==================================================================================
It's Thu 16 May 2024 10:37:43 PM BST.
*** Starting onetep_launcher (node nid004693, PIDs 235204 235205 235206 235207 235208 235209 235210 235211 235212 235213 235214 235215 235216 235217 235218 235219)...
    - ONETEP arguments: hBN_66_C_N_nspF.dat
    - Current directory: /mnt/lustre/a2fs-work3/work/e89/e89/ndmh3/hBN_def/hBN_66_C_N_nspF
    - Launcher executable directory: /mnt/lustre/a2fs-work3/work/e89/e89/ndmh3/onetep/utils
    - (-e) ONETEP executable specified through command-line: /work/e89/e89/ndmh3/onetep/bin/onetep.archer2_2023_cray
      ... trying /work/e89/e89/ndmh3/onetep/bin/onetep.archer2_2023_cray
          -> looks OK
*** Setting up environment...
    - (-s) Process stack size: unlimited
    - (-t) OMP_NUM_THREADS: 8
    - (-o) OMP_STACKSIZE: 64M
    - (-c) Maximum core file size: 2048000
    - (-d) decfort_dump_flag: n
    - (-m) I_MPI_OFA_TRANSLATION_CACHE: 0
    - (-m) I_MPI_DAPL_TRANSLATION_CACHE: 0
    - (-m) I_MPI_DAPL_UD_TRANSLATION_CACHE: 0
*** Starting ONETEP...
    - /work/e89/e89/ndmh3/onetep/bin/onetep.archer2_2023_cray hBN_66_C_N_nspF.dat
=================================================================================
_________________________________________________________________________________
 +---------------------------------------------------------------+
 |                                                               |
 |        ####### #     # ####### ####### ####### ######         |
 |        #     # ##    # #          #    #       #     #        |
 |        #     # # #   # #          #    #       #     #        |
 |        #     # #  #  # #####      #    #####   ######         |
 |        #     # #   # # #          #    #       #              |
 |        #     # #    ## #          #    #       #              |
 |        ####### #     # #######    #    ####### #              |
 |                                                               |
 |        Linear-Scaling Ab Initio Total Energy Program          |
 |                                                               |
 |          Release for academic collaborators of ODG            |
 |                                             Version 7.1.29    |
 | Remote: git@github.com:onetep-devel/onetep.git                |
 | Local branch: master                                          |
 | Commit ID: 91e6f3e6b89d8869bed7d0d1b91ca8f87d72fd1f           |
 | Date: Tue May 14 12:35:29 2024 +0200                          |
 | Working tree clean                                            |
 |                                                               |
 +---------------------------------------------------------------+
 |                                                               |
 |  Authors:                                                     |
 |  Jacek Dziedzic, Peter D. Haynes, Nicholas D. M. Hine,        |
 |  Arash A. Mostofi, Mike C. Payne and Chris-Kriton Skylaris    |
 |                                                               |
 |  Contributors:                                                |
 |  J. Aarons, L. Andrinopoulos, P. W. Avraam, R. A. Bell,       |
 |  A. Bhandari, G. A. Bramley, R. J. Charlton, S. J. Clark,     |
 |  R. J. Clements, G. C. Constantinescu, F. Corsetti,           |
 |  N. Corsini, O. Dieguez, S. M. M. Dubois, K. K. B. Duff,      |
 |  J. M. Escartin, M. Escobar Azor, A. Greco,                   |
 |  H. Helal, Q. O. Hill, L. P. Lee, J.-H. Li,                   |
 |  E. B. Linscott, G. Moynihan, D. D. O`Regan,                  |
 |  O. K. Okan, M. J. S. Phipps, C. J. Pickard,                  |
 |  J. C. A. Prentice, M. I. J. Probert, L. E. Ratcliff,         |
 |  M. Robinson, A. Ruiz Serrano, M. dos Santos Dias,            |
 |  J. S. Spencer, E. W. Tait, G. Teobaldi, D. Turban,           |
 |  V. Vitale, K. A. Wilkinson, C. Weber, J. C. Womack,          |
 |  N. Yeung and T. J. Zuehlsdorff                               |
 |                                                               |
 |                                   Copyright (c) 2004-2024     |
 |                                                               |
 |  Please cite:                                                 |
 |  "The ONETEP linear-scaling density functional theory program"|
 |   J. Chem. Phys. 152(17) 174111 (2020)                        |
 |                                                               |
 |          in all publications arising from your use of ONETEP. |
 |                                                               |
 +---------------------------------------------------------------+
 |                                                               |
 |   ONETEP is based on developments described in the following  |
 |   publications:                                               |
 |                                                               |
 |  "Nonorthogonal generalized Wannier function pseudopotential  |
 |   plane-wave method".                                         |
 |   C.-K. Skylaris, A. A. Mostofi, P. D. Haynes, O. Dieguez,    |
 |   M. C. Payne.                                                |
 |   Phys. Rev. B 66 035119 (2002).                              |
 |                                                               |
 |  "Preconditioned iterative minimization for linear-scaling    |
 |   electronic structure calculations".                         |
 |   A. A. Mostofi, P. D. Haynes, C.-K. Skylaris, M. C. Payne.   |
 |   J. Chem. Phys. 119(17), pp.8842-8848 (2003).                |
 |                                                               |
 |  "Total-energy calculations on a real space grid with         |
 |   localized functions and a plane-wave basis".                |
 |   A. A. Mostofi, C.-K. Skylaris, P. D. Haynes, M. C. Payne.   |
 |   Comput. Phys. Commun. 147, pp.788-802 (2002).               |
 |                                                               |
 |  "Accurate kinetic energy evaluation in electronic structure  |
 |   calculations with localized functions on real space grids"  |
 |   C.-K. Skylaris, A. A. Mostofi, P. D. Haynes, C. J. Pickard, |
 |   M. C. Payne.                                                |
 |   Comput. Phys. Commun. 140, pp.315-322 (2001).               |
 |                                                               |
 |  "Accurate ionic forces and geometry optimization in linear-  |
 |   scaling density-functional theory with local orbitals"      |
 |   N. D. M. Hine, M. Robinson, P. D. Haynes, C.-K. Skylaris,   |
 |   M. C. Payne, and A. A. Mostofi.                             |
 |   Phys. Rev. B 83 195102 (2011).                              |
 |                                                               |
 +---------------------------------------------------------------+

Job started: 16-05-2024 22:37 (+0100)
 
Reading parameters from file "hBN_66_C_N_nspF.dat" ...... done

If your calculation crashes here, before "Checking processes and threads..."
is displayed, then your stack size is insufficient.
If so, use "ulimit -s unlimited" at runtime.
You can disable this check with "check_stack_size F".

Checking processes and threads...
   Running with 16 MPI processes.
   There are 16 MPI processes running on the same node as the root process.
   Each MPI process is using: 
               1 threads for simulation cell FFTs.
               1 threads for threaded FFT box operations.
               8 threads for loops over batched FFT box operations.
               8 threads in other parallel regions.
   MPI Interface: S1 (use mpi_f08) (-DMPI -DUSE_MPI_F08).
   MPI_ASYNC_PROTECTS_NONBLOCKING: Yes. MPI_SUBARRAYS_SUPPORTED: Yes.
   FFTW Interface: OMP-capable and MODERN. (-DUSE_MODERN_FFTW specified).
   GPU Interface: None.
... done

Basic input checks...... done

Reading geometry and species blocks from file "hBN_66_C_N_nspF.dat" ...
  <species_atomic_set> block not found: NGWF initialisation set to SOLVE
... done


--------------------------------------------------------------------------------
---------------------------------- INPUT FILE ----------------------------------
--------------------------------------------------------------------------------

charge : 0                                                                      
comms_group_size : 8                                                            
cutoff_energy : 800 eV                                                          
do_properties : T                                                               
edft : F                                                                        
edft_maxit : 15                                                                 
edft_spin_fix : 0                                                               
fast_density : F                                                                
fine_grid_scale : 2                                                             
forces_output_detail : VERBOSE                                                  
geom_continuation : F                                                           
geom_force_tol : 0.01 eV/Ang                                                    
homo_plot : 1                                                                   
lumo_plot : 1                                                                   
maxit_ngwf_cg : 30                                                              
ngwf_threshold_orig : 1e-06                                                     
ngwfs_spin_polarized : F                                                        
output_detail : BRIEF                                                           
paw : T                                                                         
pseudo_path : .                                                                 
read_denskern : F                                                               
read_hamiltonian : F                                                            
read_tightbox_ngwfs : F                                                         
run_time : 86000                                                                
task : GEOMETRYOPTIMIZATION                                                     
write_denskern : T                                                              
write_forces : T                                                                
write_hamiltonian : F                                                           
write_tightbox_ngwfs : T                                                        
xc_functional : PBE                                                             
%BLOCK LATTICE_CART                                                             
ang                                                                             
15.06648071       0.00000000       0.00000000                                   
-7.53324036      13.04795505       0.00000000                                   
0.00000000       0.00000000      16.00000008                                    
%ENDBLOCK LATTICE_CART                                                          
%BLOCK POSITIONS_ABS                                                            
ang                                                                             
B     0.000000     0.000000     8.000000                                        
N     1.255540     0.724886     8.000000                                        
B    -1.255540     2.174659     8.000000                                        
N     0.000000     2.899546     8.000000                                        
B    -2.511080     4.349318     8.000000                                        
N    -1.255540     5.074205     8.000000                                        
B    -3.766620     6.523978     8.000000                                        
N    -2.511080     7.248864     8.000000                                        
B    -5.022160     8.698637     8.000000                                        
N    -3.766620     9.423523     8.000000                                        
B    -6.277700    10.873296     8.000000                                        
N    -5.022160    11.598182     8.000000                                        
B     2.511080     0.000000     8.000000                                        
N     3.766620     0.724886     8.000000                                        
B     1.255540     2.174659     8.000000                                        
N     2.511080     2.899546     8.000000                                        
B     0.000000     4.349318     8.000000                                        
N     1.255540     5.074205     8.000000                                        
B    -1.255540     6.523978     8.000000                                        
N    -0.000000     7.248864     8.000000                                        
B    -2.511080     8.698637     8.000000                                        
N    -1.255540     9.423523     8.000000                                        
B    -3.766620    10.873296     8.000000                                        
N    -2.511080    11.598182     8.000000                                        
B     5.022160     0.000000     8.000000                                        
N     6.277700     0.724886     8.000000                                        
B     3.766620     2.174659     8.000000                                        
N     5.022160     2.899546     8.000000                                        
B     2.511080     4.349318     8.000000                                        
C     3.766620     5.074205     8.000000                                        
B     1.255540     6.523978     8.000000                                        
N     2.511080     7.248864     8.000000                                        
B     0.000000     8.698637     8.000000                                        
N     1.255540     9.423523     8.000000                                        
B    -1.255540    10.873296     8.000000                                        
N     0.000000    11.598182     8.000000                                        
B     7.533240     0.000000     8.000000                                        
N     8.788780     0.724886     8.000000                                        
B     6.277700     2.174659     8.000000                                        
N     7.533240     2.899546     8.000000                                        
B     5.022160     4.349318     8.000000                                        
N     6.277700     5.074205     8.000000                                        
B     3.766620     6.523978     8.000000                                        
N     5.022160     7.248864     8.000000                                        
B     2.511080     8.698637     8.000000                                        
N     3.766620     9.423523     8.000000                                        
B     1.255540    10.873296     8.000000                                        
N     2.511080    11.598182     8.000000                                        
B    10.044320     0.000000     8.000000                                        
N    11.299861     0.724886     8.000000                                        
B     8.788780     2.174659     8.000000                                        
N    10.044320     2.899546     8.000000                                        
B     7.533240     4.349318     8.000000                                        
N     8.788780     5.074205     8.000000                                        
B     6.277700     6.523978     8.000000                                        
N     7.533240     7.248864     8.000000                                        
B     5.022160     8.698637     8.000000                                        
N     6.277700     9.423523     8.000000                                        
B     3.766620    10.873296     8.000000                                        
N     5.022160    11.598182     8.000000                                        
B    12.555401     0.000000     8.000000                                        
N    13.810941     0.724886     8.000000                                        
B    11.299861     2.174659     8.000000                                        
N    12.555401     2.899546     8.000000                                        
B    10.044320     4.349318     8.000000                                        
N    11.299861     5.074205     8.000000                                        
B     8.788780     6.523978     8.000000                                        
N    10.044320     7.248864     8.000000                                        
B     7.533240     8.698637     8.000000                                        
N     8.788780     9.423523     8.000000                                        
B     6.277700    10.873296     8.000000                                        
N     7.533240    11.598182     8.000000                                        
%ENDBLOCK POSITIONS_ABS                                                         
%BLOCK SPECIES                                                                  
B B 5 -1 10.0                                                                   
C C 6 -1 10.0                                                                   
N N 7 -1 10.0                                                                   
%ENDBLOCK SPECIES                                                               
%BLOCK SPECIES_POT                                                              
B B.PBE-paw.abinit                                                              
C C.PBE-paw.abinit                                                              
N N.PBE-paw.abinit                                                              
%ENDBLOCK SPECIES_POT                                                           

--------------------------------------------------------------------------------
-------------------------------- END INPUT FILE --------------------------------
--------------------------------------------------------------------------------


 
 ESDF WARNING(1): "charge" (esdf_physical) has no units. Assume "e".
<<<<<<<<<<<<<<<<<<<<<<<<<<<<<<<<< Full system >>>>>>>>>>>>>>>>>>>>>>>>>>>>>>>>>>
<<<<<<<<<<<<<<<<<<<<<<<<<<< PAW Dataset information >>>>>>>>>>>>>>>>>>>>>>>>>>>
File: B.PBE-paw.abinit; rc = 1.70 bohr; shape type =  2; rshape = 1.61 bohr;
  Atomic number:  5;  ionic charge:  3.000000
    Partial Wave 1: l = 0
    Partial Wave 2: l = 0
    Partial Wave 3: l = 1
    Partial Wave 4: l = 1
  Core charge supplied for Nonlinear Core Corrections
File: N.PBE-paw.abinit; rc = 1.20 bohr; shape type =  2; rshape = 1.01 bohr;
  Atomic number:  7;  ionic charge:  5.000000
    Partial Wave 1: l = 0
    Partial Wave 2: l = 0
    Partial Wave 3: l = 1
    Partial Wave 4: l = 1
  Core charge supplied for Nonlinear Core Corrections
File: C.PBE-paw.abinit; rc = 1.51 bohr; shape type =  2; rshape = 1.30 bohr;
  Atomic number:  6;  ionic charge:  4.000000
    Partial Wave 1: l = 0
    Partial Wave 2: l = 0
    Partial Wave 3: l = 1
    Partial Wave 4: l = 1
  Core charge supplied for Nonlinear Core Corrections
<<<<<<<<<<<<<<<<<<<<<<<<<<<<<<<<<<<<<<< >>>>>>>>>>>>>>>>>>>>>>>>>>>>>>>>>>>>>>>

-------------------------- Atom counting information ---------------------------
Symbol    Natoms    Nngwfs    Nprojs
  B         36       144       288
  N         35       140       280
  C          1         4         8
.......   ......    ......    ......
Totals:     72       288       576
--------------------------------------------------------------------------------

=============================== PSINC grid sizes ===============================
                      Simulation cell:   63 x  63 x  63
                              FFT-box:   63 x  63 x  63
                                  PPD:    7 x   7 x   1
================================================================================

Atom SCF Calculation for B  : Z (AE atom) =   5 : Z (PS atom) =   3
Config String: 2s2.0 2p1.0
Orbitals (num,occ):  2     2.00 1.00
Orbitals   (num,l):  2        0    1
Atom SCF converged after  23 iterations to a total energy of     -2.61457988

Atom SCF Calculation for C  : Z (AE atom) =   6 : Z (PS atom) =   4
Config String: 2s2.0 2p2.0
Orbitals (num,occ):  2     2.00 2.00
Orbitals   (num,l):  2        0    1
Atom SCF converged after  22 iterations to a total energy of     -5.40758077

Atom SCF Calculation for N  : Z (AE atom) =   7 : Z (PS atom) =   5
Config String: 2s2.0 2p3.0
Orbitals (num,occ):  2     2.00 3.00
Orbitals   (num,l):  2        0    1
Atom SCF converged after  23 iterations to a total energy of     -9.72185112

================================================================================
<<<<<<<<<<<<<<<<<<<< Starting ONETEP Geometry Optimisation >>>>>>>>>>>>>>>>>>>>>
================================================================================

 Geometry Optimisation: output file is "hBN_66_C_N_nspF.geom"
 
Calculating Ewald energy ...             1143.931976 Hartree

============================= Charge Augmentation ==============================
                           Aug box size:   21 x  21 x  21
================================================================================

================================= Core Density =================================
               Core den box size:   33 x  33 x  25
================================================================================
Density kernel initialisation

################################################################################
###################### NGWF self-consistent optimisation #######################
################################################################################
|ITER|    RMS GRADIENT   |     TOTAL ENERGY    |   step   |     Epredicted      
   0     0.00049476124817   -459.91543612493246   1.476738   -462.48403740656738        
   1     0.00017547460265   -462.50866756873091   1.621823   -462.86680152938646        
   2     0.00007623126567   -462.87249504608434   1.623122   -462.94063500564556        
   3     0.00003960545183   -462.94169976962212   1.683641   -462.96074805674840        
   4     0.00002439904109   -462.96090228551520   1.190677   -462.96593893105546        
   5     0.00001502629470   -462.96594149063475   2.139866   -462.96937574892348        
   6     0.00001071236308   -462.96936606765883   1.922609   -462.97092664837396        
   7     0.00000666177562   -462.97088952463770   1.712453   -462.97141635728968        
   8     0.00000432282233   -462.97139372848864   1.557050   -462.97160047548647        
   9     0.00000336770526   -462.97159654004849   2.053419   -462.97175840525387        
  10     0.00000199634835   -462.97174297005580   1.062014   -462.97177030505776        

================================================================================
           ---------------- ENERGY COMPONENTS (Eh) ----------------
           | Kinetic                    :      281.07954323815295 |
           | Core Hartree               :    -3329.48183429295341 |
           | CoreHart (non-coul chg cor):        0.00000000000000
           | Hartree                    :     1530.24545096320298 |
           | Exchange-correlation       :     -136.97573881939030 |
           | Ewald                      :     1143.93197584407426 |
           | Dij0                       :       55.85843931214838 |
           | Dijhartree                 :        0.30277377773728 |
           | Exc [AE core]              :     -348.47060986004988 |
           | Exc DC [AE core]           :     -123.56366477730893 |
           | Exc [PS core]              :      -91.02462587937114 |
           | Exc DC [PS core]           :     -108.07300869792471 |
           | Exc [Core]                 :     -249.51360671547292 |
           | Total [Sphere]             :       48.22883582467989 |
           | Total                      :     -462.97176724223368 |
           --------------------------------------------------------
           Integrated compensation chrg.:        7.02343268320187
           Integrated density           :      286.99999999999960
           Integrated spin density      :        1.00000000000003
           Integrated |spin density|    :        0.98942356660886
================================================================================

  11     0.00000040051309   -462.97176724223272  <-- CG                                 

================================= Core Density =================================
               Core den box size:   33 x  33 x  25
================================================================================
 
********************* Unconstrained **********************
********************** Ewald forces **********************
*                                                        *
* Element  Atom         Cartesian components (Eh/a)      *
* ------------------------------------------------------ *
*                       x            y            z      *
*                                                        *
*    B       1      0.00675326   0.00817781   0.00000000 *
*    N       2      0.02143980   0.03713631  -0.00000000 *
*    B       3      0.01455030   0.00839943   0.00000000 *
*    N       4      0.05536381   0.03196099  -0.00000000 *
*    B       5      0.01045863   0.00175978  -0.00000000 *
*    N       6      0.04287869   0.00000053  -0.00000000 *
*    B       7     -0.00000243  -0.00221826  -0.00000000 *
*    N       8      0.01373439  -0.00650791  -0.00000000 *
*    B       9     -0.00515525  -0.00297598  -0.00000000 *
*    N      10     -0.00000120   0.00000017  -0.00000000 *
*    B      11     -0.00192130   0.00110892   0.00000000 *
*    N      12      0.00123119   0.01515033   0.00000000 *
*    B      13      0.00524196   0.02250571   0.00000000 *
*    N      14      0.00000001   0.06393097  -0.00000000 *
*    B      15      0.03389742   0.03904864  -0.00000000 *
*    N      16      0.10818789   0.18738334   0.00000000 *
*    B      17      0.05076645   0.00983358  -0.00000000 *
*    N      18      0.21637560   0.00000041  -0.00000000 *
*    B      19      0.02211197  -0.00671475   0.00000000 *
*    N      20      0.05536352  -0.03196424  -0.00000000 *
*    B      21      0.00515373  -0.00297709   0.00000000 *
*    N      22      0.01250355  -0.00864080   0.00000000 *
*    B      23     -0.00000043   0.00595065  -0.00000000 *
*    N      24     -0.00123187   0.01515096  -0.00000000 *
*    B      25     -0.00524266   0.02250601   0.00000000 *
*    N      26     -0.02143919   0.03713709  -0.00000000 *
*    B      27      0.00000005   0.09598337   0.00000000 *
*    N      28     -0.10818761   0.18738341  -0.00000000 *
*    B      29      0.34447133   0.19888305   0.00000000 *
*    C      30      0.00000011   0.00000032  -0.00000000 *
*    B      31      0.08312475  -0.04799378  -0.00000000 *
*    N      32      0.10818788  -0.18738674  -0.00000000 *
*    B      33      0.01686978  -0.01579428  -0.00000000 *
*    N      34      0.02143959  -0.03713337   0.00000000 *
*    B      35      0.00192035   0.00110811   0.00000000 *
*    N      36      0.00000045   0.00000192   0.00000000 *
*    B      37     -0.00675213   0.00817893   0.00000000 *
*    N      38     -0.01250210   0.00864472   0.00000000 *
*    B      39     -0.03389710   0.03904873  -0.00000000 *
*    N      40     -0.05536297   0.03196093  -0.00000000 *
*    B      41     -0.34447114   0.19888306  -0.00000000 *
*    N      42     -0.21637519   0.00000041  -0.00000000 *
*    B      43      0.00000009  -0.39776295   0.00000000 *
*    N      44     -0.10818756  -0.18738674  -0.00000000 *
*    B      45      0.01686922  -0.04888168  -0.00000000 *
*    N      46      0.00000011  -0.06392746   0.00000000 *
*    B      47      0.00370730  -0.00993751   0.00000000 *
*    N      48      0.00123252  -0.01514658   0.00000000 *
*    B      49     -0.00220775  -0.00127387  -0.00000000 *
*    N      50     -0.00000366   0.00000184  -0.00000000 *
*    B      51     -0.01454935   0.00839985  -0.00000000 *
*    N      52     -0.01373249   0.00650288   0.00000000 *
*    B      53     -0.05076605   0.00983354  -0.00000000 *
*    N      54     -0.04287737   0.00000043   0.00000000 *
*    B      55     -0.08312451  -0.04799377  -0.00000000 *
*    N      56     -0.05536294  -0.03196412   0.00000000 *
*    B      57     -0.01686902  -0.04888170  -0.00000000 *
*    N      58     -0.02143897  -0.03713338   0.00000000 *
*    B      59     -0.00000002  -0.01680151  -0.00000000 *
*    N      60     -0.00123265  -0.01514745   0.00000000 *
*    B      61      0.00220952  -0.00127607  -0.00000000 *
*    N      62      0.01250275   0.00864441   0.00000000 *
*    B      63     -0.00000296   0.00255262   0.00000000 *
*    N      64      0.01373312   0.00650497   0.00000000 *
*    B      65     -0.01045690   0.00176187  -0.00000000 *
*    N      66     -0.00000428  -0.00000103   0.00000000 *
*    B      67     -0.02211146  -0.00671483   0.00000000 *
*    N      68     -0.01373431  -0.00650935   0.00000000 *
*    B      69     -0.01686928  -0.01579415   0.00000000 *
*    N      70     -0.01250227  -0.00864173  -0.00000000 *
*    B      71     -0.00370678  -0.00993783  -0.00000000 *
*    N      72      0.00000205  -0.00000010   0.00000000 *
*                                                        *
**********************************************************
TOTAL:              0.00000000  -0.00000000  -0.00000000
 
********************* Unconstrained **********************
***************** Local potential forces *****************
*                                                        *
* Element  Atom         Cartesian components (Eh/a)      *
* ------------------------------------------------------ *
*                       x            y            z      *
*                                                        *
*    B       1     -0.00499567  -0.00752842  -0.00000014 *
*    N       2     -0.02081935  -0.03338389   0.00000026 *
*    B       3     -0.01434490  -0.00828327  -0.00000015 *
*    N       4     -0.05096168  -0.02942777   0.00000020 *
*    B       5     -0.00901504  -0.00056551  -0.00000015 *
*    N       6     -0.03931434  -0.00135452  -0.00000014 *
*    B       7      0.00000537   0.00158275  -0.00000015 *
*    N       8     -0.01287348   0.00567399   0.00000024 *
*    B       9      0.00436408   0.00251677  -0.00000015 *
*    N      10      0.00001126  -0.00000412   0.00000023 *
*    B      11      0.00137487  -0.00079284  -0.00000015 *
*    N      12     -0.00151559  -0.01400010   0.00000025 *
*    B      13     -0.00704807  -0.02170066  -0.00000015 *
*    N      14      0.00001488  -0.05714230   0.00000017 *
*    B      15     -0.02582936  -0.03661058  -0.00000009 *
*    N      16     -0.10138089  -0.15031582  -0.00000007 *
*    B      17     -0.04461895  -0.00406713  -0.00000006 *
*    N      18     -0.18085254  -0.01265264  -0.00000174 *
*    B      19     -0.02231670   0.00474425  -0.00000014 *
*    N      20     -0.04946936   0.02857064   0.00000020 *
*    B      21     -0.00435748   0.00251751  -0.00000015 *
*    N      22     -0.01134306   0.00831876   0.00000024 *
*    B      23      0.00000201  -0.00503475  -0.00000015 *
*    N      24      0.00154164  -0.01399761   0.00000023 *
*    B      25      0.00705429  -0.02170046  -0.00000015 *
*    N      26      0.02083962  -0.03338684   0.00000026 *
*    B      27      0.00000128  -0.08865882  -0.00000021 *
*    N      28      0.10140186  -0.15030467   0.00000001 *
*    B      29     -0.29199234  -0.16859656  -0.00000066 *
*    C      30      0.00000850   0.00000031  -0.00000007 *
*    B      31     -0.07677973   0.04433099  -0.00000012 *
*    N      32     -0.07946586   0.16295868   0.00000043 *
*    B      33     -0.01526414   0.01695704  -0.00000015 *
*    N      34     -0.01848279   0.03472443   0.00000026 *
*    B      35     -0.00136782  -0.00079180  -0.00000014 *
*    N      36      0.00030311   0.00016498   0.00000025 *
*    B      37      0.00499970  -0.00753015  -0.00000016 *
*    N      38      0.01163894  -0.00833973   0.00000024 *
*    B      39      0.02583164  -0.03661102  -0.00000017 *
*    N      40      0.05098665  -0.02942463   0.00000016 *
*    B      41      0.29200504  -0.16858951   0.00000017 *
*    N      42      0.18087805  -0.01265586   0.00000216 *
*    B      43      0.00001173   0.33717142  -0.00000004 *
*    N      44      0.07949657   0.16297242   0.00000064 *
*    B      45     -0.01878824   0.04067550  -0.00000015 *
*    N      46      0.00001546   0.05885468   0.00000017 *
*    B      47     -0.00401976   0.00809219  -0.00000015 *
*    N      48     -0.00139112   0.01423372   0.00000024 *
*    B      49      0.00143095   0.00082268  -0.00000015 *
*    N      50      0.00001320  -0.00000649   0.00000023 *
*    B      51      0.01435003  -0.00828387  -0.00000015 *
*    N      52      0.01303859  -0.00589792   0.00000024 *
*    B      53      0.04462385  -0.00406593  -0.00000023 *
*    N      54      0.03933258  -0.00135416   0.00000069 *
*    B      55      0.07678248   0.04433106  -0.00000017 *
*    N      56      0.04949182   0.02856624   0.00000014 *
*    B      57      0.01879302   0.04067632  -0.00000020 *
*    N      58      0.01850075   0.03472237   0.00000025 *
*    B      59      0.00000284   0.01656677  -0.00000014 *
*    N      60      0.00141643   0.01423158   0.00000025 *
*    B      61     -0.00142744   0.00082445  -0.00000015 *
*    N      62     -0.01160957  -0.00833947   0.00000024 *
*    B      63      0.00000439  -0.00165285  -0.00000015 *
*    N      64     -0.01301384  -0.00589663   0.00000024 *
*    B      65      0.00901864  -0.00056812  -0.00000016 *
*    N      66      0.00001931  -0.00033851   0.00000027 *
*    B      67      0.02231897   0.00474451  -0.00000016 *
*    N      68      0.01289822   0.00567824   0.00000024 *
*    B      69      0.01526912   0.01695612  -0.00000015 *
*    N      70      0.01137141   0.00831944   0.00000025 *
*    B      71      0.00402231   0.00809223  -0.00000015 *
*    N      72     -0.00028026   0.00016997   0.00000023 *
*                                                        *
**********************************************************
TOTAL:              0.00054608  -0.00009298   0.00000259
 
********************* Unconstrained **********************
************** Compensation density forces ***************
*                                                        *
* Element  Atom         Cartesian components (Eh/a)      *
* ------------------------------------------------------ *
*                       x            y            z      *
*                                                        *
*    B       1      0.00003247   0.00001558   0.00000045 *
*    N       2     -0.00000376  -0.00006854   0.00000154 *
*    B       3      0.00002030   0.00001229   0.00000045 *
*    N       4     -0.00009916  -0.00005676   0.00000157 *
*    B       5      0.00002924   0.00002113   0.00000045 *
*    N       6     -0.00006217   0.00003191   0.00000156 *
*    B       7     -0.00000061  -0.00000147   0.00000045 *
*    N       8     -0.00002175   0.00001670   0.00000156 *
*    B       9     -0.00001377  -0.00000741   0.00000045 *
*    N      10     -0.00000005   0.00000048   0.00000157 *
*    B      11     -0.00000205   0.00000103   0.00000045 *
*    N      12      0.00000324  -0.00002645   0.00000156 *
*    B      13     -0.00000825   0.00002299   0.00000045 *
*    N      14     -0.00000028  -0.00016519   0.00000158 *
*    B      15      0.00023446   0.00010823   0.00000045 *
*    N      16     -0.00005140  -0.00076829   0.00000153 *
*    B      17      0.00021049   0.00014983   0.00000045 *
*    N      18     -0.00069541   0.00034100   0.00000161 *
*    B      19      0.00001520  -0.00001774   0.00000045 *
*    N      20     -0.00014372   0.00008273   0.00000158 *
*    B      21      0.00001297  -0.00000715   0.00000045 *
*    N      22     -0.00002527   0.00001077   0.00000156 *
*    B      23     -0.00000029   0.00001571   0.00000045 *
*    N      24     -0.00000378  -0.00002677   0.00000156 *
*    B      25      0.00000744   0.00002275   0.00000045 *
*    N      26      0.00000397  -0.00006896   0.00000154 *
*    B      27     -0.00000065   0.00019384   0.00000046 *
*    N      28      0.00005342  -0.00077117   0.00000152 *
*    B      29      0.00425806   0.00245822   0.00000053 *
*    C      30     -0.00000094   0.00000070  -0.00000060 *
*    B      31      0.00016704  -0.00009660   0.00000046 *
*    N      32     -0.00064283   0.00043171   0.00000152 *
*    B      33      0.00002295  -0.00000410   0.00000045 *
*    N      34     -0.00005805   0.00003842   0.00000154 *
*    B      35      0.00000082   0.00000104   0.00000045 *
*    N      36     -0.00000520  -0.00000243   0.00000155 *
*    B      37     -0.00003328   0.00001579   0.00000045 *
*    N      38      0.00001714  -0.00000823   0.00000155 *
*    B      39     -0.00023506   0.00010822   0.00000045 *
*    N      40      0.00009855  -0.00005717   0.00000157 *
*    B      41     -0.00426036   0.00245962   0.00000048 *
*    N      42      0.00069475   0.00033954   0.00000143 *
*    B      43      0.00000044  -0.00491626   0.00000046 *
*    N      44      0.00063971   0.00042847   0.00000151 *
*    B      45     -0.00002431  -0.00025673   0.00000045 *
*    N      46     -0.00000041   0.00011445   0.00000157 *
*    B      47     -0.00000353  -0.00003579   0.00000045 *
*    N      48      0.00000101   0.00001944   0.00000155 *
*    B      49     -0.00001519  -0.00000822   0.00000045 *
*    N      50     -0.00000004   0.00000050   0.00000157 *
*    B      51     -0.00002156   0.00001229   0.00000045 *
*    N      52      0.00001589  -0.00001053   0.00000155 *
*    B      53     -0.00021128   0.00014962   0.00000045 *
*    N      54      0.00006177   0.00003165   0.00000152 *
*    B      55     -0.00016835  -0.00009658   0.00000046 *
*    N      56      0.00014309   0.00008299   0.00000158 *
*    B      57      0.00002349  -0.00025699   0.00000045 *
*    N      58      0.00005788   0.00003836   0.00000154 *
*    B      59     -0.00000062  -0.00002396   0.00000045 *
*    N      60     -0.00000161   0.00001969   0.00000155 *
*    B      61      0.00001435  -0.00000796   0.00000045 *
*    N      62     -0.00001780  -0.00000817   0.00000155 *
*    B      63     -0.00000027   0.00001729   0.00000045 *
*    N      64     -0.00001645  -0.00001083   0.00000155 *
*    B      65     -0.00003009   0.00002140   0.00000045 *
*    N      66     -0.00000022   0.00000597   0.00000155 *
*    B      67     -0.00001577  -0.00001774   0.00000045 *
*    N      68      0.00002117   0.00001645   0.00000156 *
*    B      69     -0.00002375  -0.00000384   0.00000045 *
*    N      70      0.00002461   0.00001070   0.00000156 *
*    B      71      0.00000296  -0.00003585   0.00000045 *
*    N      72      0.00000457  -0.00000278   0.00000155 *
*                                                        *
**********************************************************
TOTAL:             -0.00002589   0.00002280   0.00007011
 
********************* Unconstrained **********************
*************** Non-local potential forces ***************
*                                                        *
* Element  Atom         Cartesian components (Eh/a)      *
* ------------------------------------------------------ *
*                       x            y            z      *
*                                                        *
*    B       1     -0.00081019  -0.00042646  -0.00000026 *
*    N       2     -0.00170366  -0.00567619  -0.00000133 *
*    B       3     -0.00045118  -0.00028979  -0.00000027 *
*    N       4     -0.00482487  -0.00276433  -0.00000128 *
*    B       5     -0.00074973  -0.00053089  -0.00000027 *
*    N       6     -0.00578635   0.00139659  -0.00000140 *
*    B       7      0.00002723   0.00003147  -0.00000026 *
*    N       8     -0.00066986   0.00117444  -0.00000131 *
*    B       9      0.00041266   0.00020990  -0.00000026 *
*    N      10     -0.00002823   0.00000627  -0.00000129 *
*    B      11      0.00006601  -0.00003588  -0.00000026 *
*    N      12      0.00066290  -0.00113406  -0.00000131 *
*    B      13      0.00032186  -0.00067890  -0.00000027 *
*    N      14     -0.00002748  -0.00580266  -0.00000122 *
*    B      15     -0.00564030  -0.00264632  -0.00000026 *
*    N      16     -0.01685530  -0.04404721  -0.00000087 *
*    B      17     -0.00508758  -0.00360479  -0.00000029 *
*    N      18     -0.04658065   0.00745838  -0.00000078 *
*    B      19     -0.00040151   0.00057404  -0.00000027 *
*    N      20     -0.00505763   0.00291112  -0.00000128 *
*    B      21     -0.00036532   0.00020565  -0.00000026 *
*    N      22     -0.00136024  -0.00002099  -0.00000130 *
*    B      23      0.00002085  -0.00046327  -0.00000026 *
*    N      24     -0.00071813  -0.00113340  -0.00000130 *
*    B      25     -0.00027423  -0.00067474  -0.00000025 *
*    N      26      0.00164680  -0.00567594  -0.00000131 *
*    B      27      0.00002828  -0.00582331  -0.00000025 *
*    N      28      0.01679829  -0.04404306  -0.00000084 *
*    B      29     -0.09628086  -0.05560728  -0.00000114 *
*    C      30     -0.00000637  -0.00000808  -0.00000144 *
*    B      31     -0.00500277   0.00289063  -0.00000024 *
*    N      32     -0.02975972   0.03659783  -0.00000154 *
*    B      33     -0.00069667   0.00005684  -0.00000026 *
*    N      34     -0.00411220   0.00429800  -0.00000133 *
*    B      35     -0.00001163  -0.00003611  -0.00000026 *
*    N      36     -0.00054770  -0.00029397  -0.00000130 *
*    B      37      0.00085787  -0.00043042  -0.00000026 *
*    N      38      0.00120019  -0.00013384  -0.00000130 *
*    B      39      0.00568238  -0.00264715  -0.00000027 *
*    N      40      0.00476896  -0.00276334  -0.00000117 *
*    B      41      0.09632891  -0.05562075  -0.00000017 *
*    N      42      0.04653094   0.00745755  -0.00000146 *
*    B      43      0.00001330   0.11118431   0.00000030 *
*    N      44      0.02970995   0.03660871  -0.00000171 *
*    B      45      0.00057398   0.00620035  -0.00000028 *
*    N      46     -0.00002833   0.00554651  -0.00000121 *
*    B      47      0.00008120   0.00091375  -0.00000026 *
*    N      48      0.00046407   0.00114105  -0.00000130 *
*    B      49      0.00045008   0.00023129  -0.00000026 *
*    N      50     -0.00002865   0.00000690  -0.00000129 *
*    B      51      0.00050613  -0.00028987  -0.00000025 *
*    N      52      0.00070913  -0.00098725  -0.00000129 *
*    B      53      0.00513522  -0.00360059  -0.00000024 *
*    N      54      0.00572989   0.00139620  -0.00000122 *
*    B      55      0.00505944   0.00289078  -0.00000023 *
*    N      56      0.00500495   0.00291139  -0.00000116 *
*    B      57     -0.00052646   0.00620373  -0.00000025 *
*    N      58      0.00405591   0.00429859  -0.00000131 *
*    B      59      0.00002735   0.00053913  -0.00000026 *
*    N      60     -0.00051839   0.00113974  -0.00000131 *
*    B      61     -0.00040211   0.00022696  -0.00000026 *
*    N      62     -0.00125500  -0.00013380  -0.00000130 *
*    B      63      0.00002057  -0.00050536  -0.00000026 *
*    N      64     -0.00076391  -0.00098668  -0.00000130 *
*    B      65      0.00079782  -0.00053480  -0.00000026 *
*    N      66     -0.00002795   0.00060712  -0.00000134 *
*    B      67      0.00044333   0.00057409  -0.00000024 *
*    N      68      0.00061582   0.00117542  -0.00000129 *
*    B      69      0.00074435   0.00005271  -0.00000026 *
*    N      70      0.00130572  -0.00002087  -0.00000131 *
*    B      71     -0.00003946   0.00091397  -0.00000026 *
*    N      72      0.00049348  -0.00029310  -0.00000129 *
*                                                        *
**********************************************************
TOTAL:             -0.00010481  -0.00033405  -0.00005558
 
********************* Unconstrained **********************
************ NGWF non self-consistent forces *************
*                                                        *
* Element  Atom         Cartesian components (Eh/a)      *
* ------------------------------------------------------ *
*                       x            y            z      *
*                                                        *
*    B       1      0.00000028   0.00000251   0.00000004 *
*    N       2     -0.00001404   0.00002148   0.00000010 *
*    B       3      0.00000023   0.00000202   0.00000004 *
*    N       4     -0.00001035   0.00001099   0.00000011 *
*    B       5      0.00000231  -0.00000010   0.00000002 *
*    N       6      0.00000037  -0.00000209   0.00000005 *
*    B       7     -0.00000579   0.00000109   0.00000003 *
*    N       8     -0.00001238   0.00000781   0.00000010 *
*    B       9      0.00000020   0.00000079   0.00000003 *
*    N      10     -0.00001122   0.00000784   0.00000010 *
*    B      11     -0.00000371  -0.00000271   0.00000003 *
*    N      12     -0.00001438   0.00001096   0.00000010 *
*    B      13      0.00000257   0.00000627   0.00000003 *
*    N      14     -0.00001193   0.00003520   0.00000011 *
*    B      15      0.00001477  -0.00001956   0.00000004 *
*    N      16      0.00002493  -0.00005013  -0.00000003 *
*    B      17     -0.00001076   0.00002359   0.00000001 *
*    N      18     -0.00004551   0.00006756   0.00000012 *
*    B      19      0.00000682   0.00000073   0.00000004 *
*    N      20      0.00001147  -0.00000765   0.00000011 *
*    B      21     -0.00000239   0.00000608   0.00000004 *
*    N      22     -0.00001040   0.00000550   0.00000010 *
*    B      23      0.00000438  -0.00000334   0.00000004 *
*    N      24     -0.00001279   0.00000798   0.00000010 *
*    B      25     -0.00000489   0.00000048   0.00000004 *
*    N      26     -0.00000792   0.00002242   0.00000008 *
*    B      27     -0.00000555   0.00002244   0.00000002 *
*    N      28     -0.00005545  -0.00004653   0.00000001 *
*    B      29     -0.00012540  -0.00007243   0.00000005 *
*    C      30     -0.00001157   0.00001023  -0.00000017 *
*    B      31      0.00001351  -0.00001283   0.00000004 *
*    N      32     -0.00008306   0.00000320   0.00000005 *
*    B      33     -0.00000241  -0.00000328   0.00000004 *
*    N      34      0.00000333   0.00000254   0.00000008 *
*    B      35     -0.00000778  -0.00000255   0.00000003 *
*    N      36     -0.00000786   0.00001270   0.00000009 *
*    B      37     -0.00000270   0.00000820   0.00000003 *
*    N      38     -0.00000878   0.00000564   0.00000010 *
*    B      39     -0.00000563  -0.00001972   0.00000003 *
*    N      40     -0.00001591   0.00000857   0.00000011 *
*    B      41      0.00012199  -0.00006604  -0.00000009 *
*    N      42      0.00001839   0.00007178  -0.00000013 *
*    B      43      0.00000425   0.00014061  -0.00000009 *
*    N      44      0.00005717  -0.00000059   0.00000014 *
*    B      45     -0.00002236   0.00000446   0.00000003 *
*    N      46     -0.00001090   0.00000190   0.00000011 *
*    B      47      0.00000633  -0.00000452   0.00000003 *
*    N      48     -0.00001200   0.00000949   0.00000010 *
*    B      49     -0.00000212  -0.00000051   0.00000004 *
*    N      50     -0.00001082   0.00000788   0.00000010 *
*    B      51     -0.00001174   0.00000235   0.00000003 *
*    N      52     -0.00001213   0.00000613   0.00000009 *
*    B      53      0.00000924   0.00001737   0.00000002 *
*    N      54     -0.00002146  -0.00000057   0.00000010 *
*    B      55     -0.00002560  -0.00001314   0.00000002 *
*    N      56     -0.00004065  -0.00000621   0.00000012 *
*    B      57      0.00001962  -0.00000008   0.00000003 *
*    N      58     -0.00002422   0.00000343   0.00000009 *
*    B      59     -0.00000558  -0.00000844   0.00000004 *
*    N      60     -0.00001567   0.00001248   0.00000009 *
*    B      61     -0.00000021   0.00000487   0.00000004 *
*    N      62     -0.00001593   0.00000610   0.00000010 *
*    B      63      0.00000435  -0.00000080   0.00000004 *
*    N      64     -0.00001497   0.00000321   0.00000010 *
*    B      65     -0.00000449   0.00000524   0.00000005 *
*    N      66     -0.00001212  -0.00000137   0.00000010 *
*    B      67      0.00000211   0.00000100   0.00000004 *
*    N      68     -0.00001458   0.00000531   0.00000009 *
*    B      69      0.00000011   0.00000177   0.00000004 *
*    N      70     -0.00001354   0.00000557   0.00000010 *
*    B      71      0.00000291  -0.00000420   0.00000003 *
*    N      72     -0.00001971   0.00001002   0.00000010 *
*                                                        *
**********************************************************
TOTAL:             -0.00048972   0.00028640   0.00000375
 
********************* Unconstrained **********************
********************** NLCC forces ***********************
*                                                        *
* Element  Atom         Cartesian components (Eh/a)      *
* ------------------------------------------------------ *
*                       x            y            z      *
*                                                        *
*    B       1      0.00000205   0.00000053  -0.00000004 *
*    N       2      0.00004365   0.00011247  -0.00011469 *
*    B       3      0.00000090   0.00000044  -0.00000004 *
*    N       4      0.00012318   0.00003840  -0.00011473 *
*    B       5      0.00000154   0.00000140  -0.00000004 *
*    N       6      0.00015808  -0.00006792  -0.00011800 *
*    B       7      0.00000009  -0.00000043  -0.00000004 *
*    N       8      0.00002614  -0.00005537  -0.00011477 *
*    B       9     -0.00000048  -0.00000035  -0.00000004 *
*    N      10      0.00000881  -0.00002821  -0.00011476 *
*    B      11     -0.00000026   0.00000018  -0.00000004 *
*    N      12     -0.00000649   0.00000085  -0.00011477 *
*    B      13     -0.00000078   0.00000044  -0.00000004 *
*    N      14      0.00000847   0.00012503  -0.00011483 *
*    B      15      0.00001225   0.00000327  -0.00000004 *
*    N      16      0.00037678   0.00106603  -0.00011470 *
*    B      17      0.00000904   0.00000887  -0.00000004 *
*    N      18      0.00109642  -0.00026199  -0.00012249 *
*    B      19      0.00000005  -0.00000100  -0.00000004 *
*    N      20      0.00014164  -0.00010442  -0.00011476 *
*    B      21      0.00000067  -0.00000035  -0.00000004 *
*    N      22      0.00004110  -0.00002987  -0.00011477 *
*    B      23      0.00000010   0.00000064  -0.00000004 *
*    N      24      0.00002379   0.00000111  -0.00011474 *
*    B      25      0.00000096   0.00000043  -0.00000004 *
*    N      26     -0.00003589   0.00012385  -0.00011443 *
*    B      27      0.00000008   0.00000437  -0.00000004 *
*    N      28     -0.00033774   0.00102839  -0.00011489 *
*    B      29      0.00017007   0.00009804  -0.00000004 *
*    C      30      0.00001507  -0.00008340  -0.00032802 *
*    B      31      0.00000390  -0.00000223  -0.00000004 *
*    N      32      0.00075713  -0.00083742  -0.00011480 *
*    B      33      0.00000092   0.00000050  -0.00000004 *
*    N      34      0.00011517  -0.00014181  -0.00011464 *
*    B      35      0.00000043   0.00000018  -0.00000004 *
*    N      36      0.00002634  -0.00001868  -0.00011494 *
*    B      37     -0.00000186   0.00000052  -0.00000004 *
*    N      38     -0.00002061  -0.00002350  -0.00011481 *
*    B      39     -0.00001207   0.00000329  -0.00000004 *
*    N      40     -0.00010576   0.00003778  -0.00011468 *
*    B      41     -0.00016992   0.00009813  -0.00000006 *
*    N      42     -0.00105641  -0.00024825  -0.00010594 *
*    B      43      0.00000011  -0.00019629  -0.00000004 *
*    N      44     -0.00075508  -0.00089424  -0.00011403 *
*    B      45     -0.00000313  -0.00001222  -0.00000004 *
*    N      46      0.00000846  -0.00016032  -0.00011478 *
*    B      47     -0.00000041  -0.00000197  -0.00000004 *
*    N      48     -0.00000182  -0.00005571  -0.00011477 *
*    B      49     -0.00000051  -0.00000037  -0.00000004 *
*    N      50      0.00000884  -0.00002814  -0.00011475 *
*    B      51     -0.00000073   0.00000044  -0.00000004 *
*    N      52     -0.00000980  -0.00000498  -0.00011474 *
*    B      53     -0.00000885   0.00000885  -0.00000004 *
*    N      54     -0.00014530  -0.00007035  -0.00011171 *
*    B      55     -0.00000373  -0.00000222  -0.00000004 *
*    N      56     -0.00012435  -0.00010465  -0.00011469 *
*    B      57      0.00000332  -0.00001220  -0.00000004 *
*    N      58     -0.00009573  -0.00012872  -0.00011480 *
*    B      59      0.00000009  -0.00000096  -0.00000004 *
*    N      60      0.00001936  -0.00005522  -0.00011474 *
*    B      61      0.00000069  -0.00000036  -0.00000004 *
*    N      62      0.00003756  -0.00002388  -0.00011477 *
*    B      63      0.00000010   0.00000067  -0.00000004 *
*    N      64      0.00002702  -0.00000516  -0.00011475 *
*    B      65     -0.00000136   0.00000139  -0.00000004 *
*    N      66      0.00001089  -0.00004377  -0.00011484 *
*    B      67      0.00000014  -0.00000100  -0.00000004 *
*    N      68     -0.00000888  -0.00005570  -0.00011476 *
*    B      69     -0.00000073   0.00000051  -0.00000004 *
*    N      70     -0.00002383  -0.00002946  -0.00011478 *
*    B      71      0.00000060  -0.00000199  -0.00000004 *
*    N      72     -0.00000528  -0.00002008  -0.00011477 *
*                                                        *
**********************************************************
TOTAL:              0.00034420  -0.00104810  -0.00434426
 
********************* Unconstrained **********************
****** Correction to ensure the total force is zero ******
*                                                        *
* Element  Atom         Cartesian components (Eh/a)      *
* ------------------------------------------------------ *
*                       x            y            z      *
*                                                        *
*    B       1     -0.00000375   0.00001619   0.00006005 *
*    N       2     -0.00000375   0.00001619   0.00006005 *
*    B       3     -0.00000375   0.00001619   0.00006005 *
*    N       4     -0.00000375   0.00001619   0.00006005 *
*    B       5     -0.00000375   0.00001619   0.00006005 *
*    N       6     -0.00000375   0.00001619   0.00006005 *
*    B       7     -0.00000375   0.00001619   0.00006005 *
*    N       8     -0.00000375   0.00001619   0.00006005 *
*    B       9     -0.00000375   0.00001619   0.00006005 *
*    N      10     -0.00000375   0.00001619   0.00006005 *
*    B      11     -0.00000375   0.00001619   0.00006005 *
*    N      12     -0.00000375   0.00001619   0.00006005 *
*    B      13     -0.00000375   0.00001619   0.00006005 *
*    N      14     -0.00000375   0.00001619   0.00006005 *
*    B      15     -0.00000375   0.00001619   0.00006005 *
*    N      16     -0.00000375   0.00001619   0.00006005 *
*    B      17     -0.00000375   0.00001619   0.00006005 *
*    N      18     -0.00000375   0.00001619   0.00006005 *
*    B      19     -0.00000375   0.00001619   0.00006005 *
*    N      20     -0.00000375   0.00001619   0.00006005 *
*    B      21     -0.00000375   0.00001619   0.00006005 *
*    N      22     -0.00000375   0.00001619   0.00006005 *
*    B      23     -0.00000375   0.00001619   0.00006005 *
*    N      24     -0.00000375   0.00001619   0.00006005 *
*    B      25     -0.00000375   0.00001619   0.00006005 *
*    N      26     -0.00000375   0.00001619   0.00006005 *
*    B      27     -0.00000375   0.00001619   0.00006005 *
*    N      28     -0.00000375   0.00001619   0.00006005 *
*    B      29     -0.00000375   0.00001619   0.00006005 *
*    C      30     -0.00000375   0.00001619   0.00006005 *
*    B      31     -0.00000375   0.00001619   0.00006005 *
*    N      32     -0.00000375   0.00001619   0.00006005 *
*    B      33     -0.00000375   0.00001619   0.00006005 *
*    N      34     -0.00000375   0.00001619   0.00006005 *
*    B      35     -0.00000375   0.00001619   0.00006005 *
*    N      36     -0.00000375   0.00001619   0.00006005 *
*    B      37     -0.00000375   0.00001619   0.00006005 *
*    N      38     -0.00000375   0.00001619   0.00006005 *
*    B      39     -0.00000375   0.00001619   0.00006005 *
*    N      40     -0.00000375   0.00001619   0.00006005 *
*    B      41     -0.00000375   0.00001619   0.00006005 *
*    N      42     -0.00000375   0.00001619   0.00006005 *
*    B      43     -0.00000375   0.00001619   0.00006005 *
*    N      44     -0.00000375   0.00001619   0.00006005 *
*    B      45     -0.00000375   0.00001619   0.00006005 *
*    N      46     -0.00000375   0.00001619   0.00006005 *
*    B      47     -0.00000375   0.00001619   0.00006005 *
*    N      48     -0.00000375   0.00001619   0.00006005 *
*    B      49     -0.00000375   0.00001619   0.00006005 *
*    N      50     -0.00000375   0.00001619   0.00006005 *
*    B      51     -0.00000375   0.00001619   0.00006005 *
*    N      52     -0.00000375   0.00001619   0.00006005 *
*    B      53     -0.00000375   0.00001619   0.00006005 *
*    N      54     -0.00000375   0.00001619   0.00006005 *
*    B      55     -0.00000375   0.00001619   0.00006005 *
*    N      56     -0.00000375   0.00001619   0.00006005 *
*    B      57     -0.00000375   0.00001619   0.00006005 *
*    N      58     -0.00000375   0.00001619   0.00006005 *
*    B      59     -0.00000375   0.00001619   0.00006005 *
*    N      60     -0.00000375   0.00001619   0.00006005 *
*    B      61     -0.00000375   0.00001619   0.00006005 *
*    N      62     -0.00000375   0.00001619   0.00006005 *
*    B      63     -0.00000375   0.00001619   0.00006005 *
*    N      64     -0.00000375   0.00001619   0.00006005 *
*    B      65     -0.00000375   0.00001619   0.00006005 *
*    N      66     -0.00000375   0.00001619   0.00006005 *
*    B      67     -0.00000375   0.00001619   0.00006005 *
*    N      68     -0.00000375   0.00001619   0.00006005 *
*    B      69     -0.00000375   0.00001619   0.00006005 *
*    N      70     -0.00000375   0.00001619   0.00006005 *
*    B      71     -0.00000375   0.00001619   0.00006005 *
*    N      72     -0.00000375   0.00001619   0.00006005 *
*                                                        *
**********************************************************
TOTAL:             -0.00026987   0.00116593   0.00432339

********************* Unconstrained **********************
************************* Forces *************************
*                                                        *
* Element  Atom         Cartesian components (Eh/a)      *
* ------------------------------------------------------ *
*                       x            y            z      *
*                                                        *
*    B       1      0.00097846   0.00025773   0.00006009 *
*    N       2     -0.00106111  -0.00184218  -0.00005408 *
*    B       3     -0.00022809  -0.00014269   0.00006008 *
*    N       4     -0.00041281  -0.00022230  -0.00005408 *
*    B       5      0.00072320   0.00070200   0.00006006 *
*    N       6     -0.00212946   0.00002070  -0.00005788 *
*    B       7      0.00002011  -0.00058866   0.00006008 *
*    N       8      0.00017930   0.00032586  -0.00005413 *
*    B       9     -0.00039631  -0.00024010   0.00006009 *
*    N      10     -0.00002437  -0.00000138  -0.00005410 *
*    B      11     -0.00049019   0.00029489   0.00006008 *
*    N      12      0.00035712   0.00001772  -0.00005413 *
*    B      13     -0.00149445   0.00017205   0.00006008 *
*    N      14     -0.00002009   0.00099724  -0.00005415 *
*    B      15      0.00268548  -0.00010014   0.00006015 *
*    N      16     -0.00970173  -0.00671589  -0.00005409 *
*    B      17      0.00126494   0.00236013   0.00006012 *
*    N      18     -0.01070584  -0.00503108  -0.00006324 *
*    B      19     -0.00058791  -0.00139828   0.00006009 *
*    N      20      0.00084217  -0.00049562  -0.00005410 *
*    B      21      0.00043843  -0.00023916   0.00006009 *
*    N      22     -0.00019808  -0.00034043  -0.00005413 *
*    B      23      0.00002287   0.00048183   0.00006009 *
*    N      24     -0.00040489   0.00001848  -0.00005410 *
*    B      25      0.00153716   0.00017067   0.00006010 *
*    N      26      0.00100365  -0.00183218  -0.00005382 *
*    B      27      0.00001974   0.00173810   0.00006004 *
*    N      28      0.00966902  -0.00673744  -0.00005413 *
*    B      29     -0.03950289  -0.02282076   0.00005878 *
*    C      30      0.00000104  -0.00006372  -0.00027025 *
*    B      31      0.00152295  -0.00086762   0.00006015 *
*    N      32     -0.00101021   0.01178345  -0.00005429 *
*    B      33      0.00092668   0.00122891   0.00006010 *
*    N      34     -0.00109869   0.00180441  -0.00005404 *
*    B      35      0.00053062   0.00029505   0.00006009 *
*    N      36     -0.00023461  -0.00011928  -0.00005430 *
*    B      37     -0.00093615   0.00025906   0.00006008 *
*    N      38      0.00032104   0.00016125  -0.00005417 *
*    B      39     -0.00263960  -0.00010146   0.00006005 *
*    N      40      0.00036578  -0.00022167  -0.00005397 *
*    B      41      0.03955076  -0.02281930   0.00006037 *
*    N      42      0.01068678  -0.00501864  -0.00004389 *
*    B      43      0.00002616   0.04563704   0.00006063 *
*    N      44      0.00095701   0.01174423  -0.00005341 *
*    B      45     -0.00139858  -0.00225413   0.00006007 *
*    N      46     -0.00001935   0.00044595  -0.00005409 *
*    B      47     -0.00023261  -0.00095766   0.00006009 *
*    N      48      0.00028891   0.00021762  -0.00005414 *
*    B      49     -0.00034829  -0.00021282   0.00006008 *
*    N      50     -0.00002488  -0.00000131  -0.00005409 *
*    B      51      0.00026904  -0.00014261   0.00006010 *
*    N      52      0.00000544  -0.00037549  -0.00005410 *
*    B      53     -0.00122163   0.00235905   0.00006000 *
*    N      54      0.00207636   0.00001940  -0.00005058 *
*    B      55     -0.00148402  -0.00086769   0.00006008 *
*    N      56     -0.00089181  -0.00049818  -0.00005396 *
*    B      57      0.00144021  -0.00225473   0.00006004 *
*    N      58      0.00105188   0.00181684  -0.00005419 *
*    B      59      0.00002031   0.00028722   0.00006009 *
*    N      60     -0.00033628   0.00021702  -0.00005411 *
*    B      61      0.00039106  -0.00021192   0.00006009 *
*    N      62     -0.00036173   0.00016138  -0.00005413 *
*    B      63      0.00002243   0.00042777   0.00006009 *
*    N      64     -0.00005279  -0.00037492  -0.00005411 *
*    B      65     -0.00068013   0.00070318   0.00006009 *
*    N      66     -0.00001812   0.00024461  -0.00005421 *
*    B      67      0.00063356  -0.00139778   0.00006010 *
*    N      68     -0.00022631   0.00032656  -0.00005412 *
*    B      69     -0.00088392   0.00122932   0.00006009 *
*    N      70      0.00015836  -0.00034015  -0.00005414 *
*    B      71      0.00027879  -0.00095747   0.00006008 *
*    N      72      0.00019110  -0.00011988  -0.00005413 *
*                                                        *
**********************************************************
* TOTAL:           -0.00000000   0.00000000   0.00000000 *
**********************************************************
 
 
***********************************************************
********** Summary of Forces (values in Eh/a) *************
*                                                         *
* ---------------------- Minimum ------------------------ *
* Atom:        10, |F|min =    0.00005935                 *
* Components:     Fx|min       Fy|min       Fz|min        *
*              -0.00002437  -0.00000138  -0.00005410      *
*                                                         *
* ---------------------- Maximum ------------------------ *
* Atom:        41, |F|max =    0.04566165                 *
* Components:     Fx|max       Fy|max       Fz|max        *
*               0.03955076  -0.02281930   0.00006037      *
*                                                         *
* ---------------- Root Mean Square Force --------------- *
*                  |F|rms =    0.00999420                 *
* Components:     Fx|rms       Fy|rms       Fz|rms        *
*               0.00706735   0.00706629   0.00006514      *
***********************************************************
 
 Geometry Optimisation: read_denskern parameter over-ridden to T
 Geometry Optimisation: read_tightbox_ngwfs parameter over-ridden to TRUE

BFGS: continuation file name is "hBN_66_C_N_nspF.continuation"
 BFGS: finished iteration   0  with enthalpy= -4.629717672422E+002 Eh
  
 +-----------+-----------------+-----------------+------------+-----+ <-- BFGS
 | Parameter |      value      |    tolerance    |    units   | OK? | <-- BFGS
 +-----------+-----------------+-----------------+------------+-----+ <-- BFGS
 |  dE/ion   |   0.000000E+000 |   1.000000E-006 |         Eh | No  | <-- BFGS
 |  |F|max   |   4.566165E-002 |   1.944690E-004 |    Eh/Bohr | No  | <-- BFGS
 |  |dR|max  |   0.000000E+000 |   5.000000E-003 |       Bohr | No  | <-- BFGS
 +-----------+-----------------+-----------------+------------+-----+ <-- BFGS
  

================================================================================
 Starting BFGS iteration    1 ...
================================================================================

 Writing continuation file "hBN_66_C_N_nspF.continuation" ...done
 Backing up NGWFs to file "hBN_66_C_N_nspF.tightbox_ngwfs.bfgs_back" ... done
 Backing up density kernel to file "hBN_66_C_N_nspF.dkn.bfgs_back" ... done
  
 +------------+-------------+-------------+-----------------+ <-- min BFGS
 |    Step    |   lambda    |   F.delta   |    enthalpy     | <-- min BFGS
 +------------+-------------+-------------+-----------------+ <-- min BFGS
 |  previous  |    0.000000 |    0.005517 |     -462.971767 | <-- min BFGS
 +------------+-------------+-------------+-----------------+ <-- min BFGS
  

--------------------------------------------------------------------------------
 BFGS: starting iteration   1 with trial guess (lambda=    1.000000)
--------------------------------------------------------------------------------
Calculating Ewald energy ...             1143.989219 Hartree

============================= Charge Augmentation ==============================
                           Aug box size:   21 x  21 x  21
================================================================================

Reading NGWFs from file "hBN_66_C_N_nspF.tightbox_ngwfs" ... done

================================= Core Density =================================
               Core den box size:   33 x  33 x  25
================================================================================

Reading density kernel from file "hBN_66_C_N_nspF.dkn" ... done

################################################################################
###################### NGWF self-consistent optimisation #######################
################################################################################
|ITER|    RMS GRADIENT   |     TOTAL ENERGY    |   step   |     Epredicted      
   0     0.00000860854948   -462.97549210184576   1.050525   -462.97604528420885        
   1     0.00000239670373   -462.97605763354085   1.082590   -462.97610169965765        

================================================================================
           ---------------- ENERGY COMPONENTS (Eh) ----------------
           | Kinetic                    :      281.08182564516710 |
           | Core Hartree               :    -3329.58047050292180 |
           | CoreHart (non-coul chg cor):        0.00000000000000
           | Hartree                    :     1530.28092900098159 |
           | Exchange-correlation       :     -136.97565526452834 |
           | Ewald                      :     1143.98921895480544 |
           | Dij0                       :       55.85762228270950 |
           | Dijhartree                 :        0.30266778043342 |
           | Exc [AE core]              :     -348.45814808072805 |
           | Exc DC [AE core]           :     -123.54773229530281 |
           | Exc [PS core]              :      -91.01229957449650 |
           | Exc DC [PS core]           :     -108.05682316705023 |
           | Exc [Core]                 :     -249.51360671547292 |
           | Total [Sphere]             :       48.22804827238423 |
           | Total                      :     -462.97610389411176 |
           --------------------------------------------------------
           Integrated compensation chrg.:        7.02413369420481
           Integrated density           :      286.99999999999966
           Integrated spin density      :        0.99999999999988
           Integrated |spin density|    :        0.98612124782673
================================================================================

   2     0.00000050658561   -462.97610389410897  <-- CG                                 

================================= Core Density =================================
               Core den box size:   33 x  33 x  25
================================================================================
 
********************* Unconstrained **********************
********************** Ewald forces **********************
*                                                        *
* Element  Atom         Cartesian components (Eh/a)      *
* ------------------------------------------------------ *
*                       x            y            z      *
*                                                        *
*    B       1      0.00239006   0.00689506   0.00025798 *
*    N       2      0.02207560   0.03850244  -0.00025268 *
*    B       3      0.01433025   0.00830039   0.00025850 *
*    N       4      0.05053971   0.02913272  -0.00024850 *
*    B       5      0.00714352  -0.00132768   0.00026007 *
*    N       6      0.04437970  -0.00016958  -0.00026596 *
*    B       7     -0.00005867   0.00006451   0.00025762 *
*    N       8      0.01378483  -0.00564896  -0.00025413 *
*    B       9     -0.00426378  -0.00243018   0.00025743 *
*    N      10      0.00005794   0.00000719  -0.00025519 *
*    B      11      0.00000437  -0.00003983   0.00025753 *
*    N      12      0.00203551   0.01470347  -0.00025487 *
*    B      13      0.01002150   0.02265564   0.00025848 *
*    N      14      0.00004060   0.06490380  -0.00025088 *
*    B      15      0.01893429   0.02764312   0.00026248 *
*    N      16      0.16017942   0.18790548  -0.00022532 *
*    B      17      0.03336842   0.00260332   0.00026894 *
*    N      18      0.24293555   0.04475635  -0.00026104 *
*    B      19      0.02459449  -0.00260008   0.00026111 *
*    N      20      0.05625742  -0.03246040  -0.00024854 *
*    B      21      0.00415579  -0.00242760   0.00025771 *
*    N      22      0.01179880  -0.00905512  -0.00025466 *
*    B      23     -0.00005790   0.00485897   0.00025756 *
*    N      24     -0.00191887   0.01470050  -0.00025478 *
*    B      25     -0.01013098   0.02264168   0.00025829 *
*    N      26     -0.02193555   0.03846877  -0.00025218 *
*    B      27     -0.00006339   0.11540979   0.00026640 *
*    N      28     -0.16009597   0.18794818  -0.00022925 *
*    B      29      0.41054867   0.23713638   0.00033791 *
*    C      30      0.00000464   0.00011335  -0.00084876 *
*    B      31      0.09993844  -0.05773008   0.00027201 *
*    N      32      0.08276329  -0.23275498  -0.00022716 *
*    B      33      0.01451504  -0.02005106   0.00025877 *
*    N      34      0.02237622  -0.03827044  -0.00025250 *
*    B      35     -0.00011309  -0.00003778   0.00025768 *
*    N      36      0.00164096   0.00090928  -0.00025575 *
*    B      37     -0.00251092   0.00690254   0.00025773 *
*    N      38     -0.01326330   0.00729429  -0.00025531 *
*    B      39     -0.01901967   0.02764689   0.00026060 *
*    N      40     -0.05041866   0.02912753  -0.00025252 *
*    B      41     -0.41060194   0.23707853   0.00033174 *
*    N      42     -0.24285754   0.04472312  -0.00018928 *
*    B      43     -0.00011438  -0.47421102   0.00033772 *
*    N      44     -0.08263828  -0.23265865  -0.00022661 *
*    B      45      0.01441067  -0.03022606   0.00026174 *
*    N      46      0.00005552  -0.05827807  -0.00025081 *
*    B      47      0.00469193  -0.00558042   0.00025799 *
*    N      48     -0.00029112  -0.01518189  -0.00025489 *
*    B      49     -0.00177756  -0.00099429   0.00025749 *
*    N      50      0.00005700   0.00000813  -0.00025518 *
*    B      51     -0.01443909   0.00829817   0.00025758 *
*    N      52     -0.01290321   0.00787999  -0.00025550 *
*    B      53     -0.03346930   0.00258094   0.00025362 *
*    N      54     -0.04423655  -0.00016674  -0.00024123 *
*    B      55     -0.10003248  -0.05770051   0.00026020 *
*    N      56     -0.05614027  -0.03243652  -0.00025255 *
*    B      57     -0.01449956  -0.03027448   0.00026090 *
*    N      58     -0.02227004  -0.03830653  -0.00025375 *
*    B      59     -0.00005648  -0.01661729   0.00025808 *
*    N      60      0.00040322  -0.01517931  -0.00025481 *
*    B      61      0.00167081  -0.00099205   0.00025756 *
*    N      62      0.01336210   0.00729715  -0.00025468 *
*    B      63     -0.00005899   0.00199081   0.00025751 *
*    N      64      0.01302059   0.00787895  -0.00025404 *
*    B      65     -0.00724638  -0.00131631   0.00025582 *
*    N      66      0.00004153  -0.00182706  -0.00025532 *
*    B      67     -0.02470151  -0.00259707   0.00025581 *
*    N      68     -0.01367084  -0.00565249  -0.00025560 *
*    B      69     -0.01463190  -0.02004963   0.00025806 *
*    N      70     -0.01170075  -0.00905988  -0.00025518 *
*    B      71     -0.00480695  -0.00556555   0.00025785 *
*    N      72     -0.00153255   0.00090818  -0.00025502 *
*                                                        *
**********************************************************
TOTAL:              0.00000000  -0.00000000   0.00000000
 
********************* Unconstrained **********************
***************** Local potential forces *****************
*                                                        *
* Element  Atom         Cartesian components (Eh/a)      *
* ------------------------------------------------------ *
*                       x            y            z      *
*                                                        *
*    B       1     -0.00106049  -0.00636846  -0.00027019 *
*    N       2     -0.02197622  -0.03440595   0.00019623 *
*    B       3     -0.01418435  -0.00821683  -0.00027070 *
*    N       4     -0.04698749  -0.02709312   0.00019231 *
*    B       5     -0.00602163   0.00221522  -0.00027241 *
*    N       6     -0.04077321  -0.00181170   0.00020764 *
*    B       7      0.00005913  -0.00068041  -0.00026976 *
*    N       8     -0.01312580   0.00500024   0.00019693 *
*    B       9      0.00367097   0.00208739  -0.00026956 *
*    N      10     -0.00004336  -0.00001134   0.00019847 *
*    B      11     -0.00053701   0.00034713  -0.00026967 *
*    N      12     -0.00225866  -0.01382389   0.00019779 *
*    B      13     -0.01186275  -0.02219155  -0.00027064 *
*    N      14     -0.00001845  -0.05929438   0.00019460 *
*    B      15     -0.01267834  -0.02672825  -0.00027412 *
*    N      16     -0.15050087  -0.15454573   0.00016909 *
*    B      17     -0.02944879   0.00235835  -0.00028110 *
*    N      18     -0.20919477  -0.05307282   0.00020094 *
*    B      19     -0.02511361   0.00077286  -0.00027344 *
*    N      20     -0.05137928   0.02965858   0.00019171 *
*    B      21     -0.00356474   0.00208387  -0.00026978 *
*    N      22     -0.01089589   0.00881806   0.00019781 *
*    B      23      0.00005530  -0.00417566  -0.00026964 *
*    N      24      0.00217595  -0.01381672   0.00019792 *
*    B      25      0.01197136  -0.02217534  -0.00027043 *
*    N      26      0.02186332  -0.03437194   0.00019535 *
*    B      27      0.00006458  -0.10987671  -0.00027961 *
*    N      28      0.15044785  -0.15458439   0.00016913 *
*    B      29     -0.35140770  -0.20300476  -0.00036418 *
*    C      30      0.00001007  -0.00010809   0.00084679 *
*    B      31     -0.09514909   0.05496677  -0.00028568 *
*    N      32     -0.05868831   0.20771137   0.00016775 *
*    B      33     -0.01319093   0.02141093  -0.00027085 *
*    N      34     -0.01885417   0.03614066   0.00019588 *
*    B      35      0.00064652   0.00034506  -0.00026981 *
*    N      36     -0.00095004  -0.00052128   0.00019883 *
*    B      37      0.00117933  -0.00637627  -0.00026987 *
*    N      38      0.01251211  -0.00706299   0.00019809 *
*    B      39      0.01275454  -0.02673105  -0.00027176 *
*    N      40      0.04690427  -0.02708351   0.00019696 *
*    B      41      0.35146881  -0.20294054  -0.00035665 *
*    N      42      0.20915178  -0.05303880   0.00013436 *
*    B      43      0.00012171   0.40591797  -0.00036316 *
*    N      44      0.05860093   0.20762110   0.00016797 *
*    B      45     -0.01674960   0.02434454  -0.00027305 *
*    N      46     -0.00003435   0.05419456   0.00019515 *
*    B      47     -0.00490253   0.00416423  -0.00027015 *
*    N      48      0.00012689   0.01440030   0.00019768 *
*    B      49      0.00118961   0.00065439  -0.00026958 *
*    N      50     -0.00004276  -0.00001261   0.00019852 *
*    B      51      0.01429204  -0.00821317  -0.00026976 *
*    N      52      0.01233044  -0.00732978   0.00019863 *
*    B      53      0.02954649   0.00238487  -0.00026428 *
*    N      54      0.04065640  -0.00181593   0.00018587 *
*    B      55      0.09524306   0.05493330  -0.00027273 *
*    N      56      0.05129169   0.02962458   0.00019749 *
*    B      57      0.01683607   0.02439553  -0.00027222 *
*    N      58      0.01877507   0.03617848   0.00019635 *
*    B      59      0.00005701   0.01644722  -0.00027027 *
*    N      60     -0.00020428   0.01439212   0.00019788 *
*    B      61     -0.00108493   0.00065095  -0.00026969 *
*    N      62     -0.01257178  -0.00706469   0.00019768 *
*    B      63      0.00005600  -0.00131277  -0.00026963 *
*    N      64     -0.01241406  -0.00732730   0.00019693 *
*    B      65      0.00612186   0.00220336  -0.00026784 *
*    N      66     -0.00002135   0.00104658   0.00019827 *
*    B      67      0.02521415   0.00076899  -0.00026780 *
*    N      68      0.01304508   0.00500677   0.00019877 *
*    B      69      0.01330716   0.02140729  -0.00027026 *
*    N      70      0.01083706   0.00882294   0.00019819 *
*    B      71      0.00501264   0.00414957  -0.00026999 *
*    N      72      0.00087739  -0.00051695   0.00019803 *
*                                                        *
**********************************************************
TOTAL:              0.00058309  -0.00007959  -0.00247230
 
********************* Unconstrained **********************
************** Compensation density forces ***************
*                                                        *
* Element  Atom         Cartesian components (Eh/a)      *
* ------------------------------------------------------ *
*                       x            y            z      *
*                                                        *
*    B       1      0.00006235   0.00002684   0.00000050 *
*    N       2      0.00000752  -0.00007627   0.00000271 *
*    B       3      0.00001411   0.00000840   0.00000050 *
[...]
*    N      72     -0.00003914  -0.00000614  -0.00012215 *
*                                                        *
**********************************************************
TOTAL:              0.00019824  -0.00089742  -0.00464460
 
********************* Unconstrained **********************
****** Correction to ensure the total force is zero ******
*                                                        *
* Element  Atom         Cartesian components (Eh/a)      *
* ------------------------------------------------------ *
*                       x            y            z      *
*                                                        *
*    B       1     -0.00000235   0.00001386   0.00006129 *
*    N       2     -0.00000235   0.00001386   0.00006129 *
*    B       3     -0.00000235   0.00001386   0.00006129 *
*    N       4     -0.00000235   0.00001386   0.00006129 *
*    B       5     -0.00000235   0.00001386   0.00006129 *
*    N       6     -0.00000235   0.00001386   0.00006129 *
*    B       7     -0.00000235   0.00001386   0.00006129 *
*    N       8     -0.00000235   0.00001386   0.00006129 *
*    B       9     -0.00000235   0.00001386   0.00006129 *
*    N      10     -0.00000235   0.00001386   0.00006129 *
*    B      11     -0.00000235   0.00001386   0.00006129 *
*    N      12     -0.00000235   0.00001386   0.00006129 *
*    B      13     -0.00000235   0.00001386   0.00006129 *
*    N      14     -0.00000235   0.00001386   0.00006129 *
*    B      15     -0.00000235   0.00001386   0.00006129 *
*    N      16     -0.00000235   0.00001386   0.00006129 *
*    B      17     -0.00000235   0.00001386   0.00006129 *
*    N      18     -0.00000235   0.00001386   0.00006129 *
*    B      19     -0.00000235   0.00001386   0.00006129 *
*    N      20     -0.00000235   0.00001386   0.00006129 *
*    B      21     -0.00000235   0.00001386   0.00006129 *
*    N      22     -0.00000235   0.00001386   0.00006129 *
*    B      23     -0.00000235   0.00001386   0.00006129 *
*    N      24     -0.00000235   0.00001386   0.00006129 *
*    B      25     -0.00000235   0.00001386   0.00006129 *
*    N      26     -0.00000235   0.00001386   0.00006129 *
*    B      27     -0.00000235   0.00001386   0.00006129 *
*    N      28     -0.00000235   0.00001386   0.00006129 *
*    B      29     -0.00000235   0.00001386   0.00006129 *
*    C      30     -0.00000235   0.00001386   0.00006129 *
*    B      31     -0.00000235   0.00001386   0.00006129 *
*    N      32     -0.00000235   0.00001386   0.00006129 *
*    B      33     -0.00000235   0.00001386   0.00006129 *
*    N      34     -0.00000235   0.00001386   0.00006129 *
*    B      35     -0.00000235   0.00001386   0.00006129 *
*    N      36     -0.00000235   0.00001386   0.00006129 *
*    B      37     -0.00000235   0.00001386   0.00006129 *
*    N      38     -0.00000235   0.00001386   0.00006129 *
*    B      39     -0.00000235   0.00001386   0.00006129 *
*    N      40     -0.00000235   0.00001386   0.00006129 *
*    B      41     -0.00000235   0.00001386   0.00006129 *
*    N      42     -0.00000235   0.00001386   0.00006129 *
*    B      43     -0.00000235   0.00001386   0.00006129 *
*    N      44     -0.00000235   0.00001386   0.00006129 *
*    B      45     -0.00000235   0.00001386   0.00006129 *
*    N      46     -0.00000235   0.00001386   0.00006129 *
*    B      47     -0.00000235   0.00001386   0.00006129 *
*    N      48     -0.00000235   0.00001386   0.00006129 *
*    B      49     -0.00000235   0.00001386   0.00006129 *
*    N      50     -0.00000235   0.00001386   0.00006129 *
*    B      51     -0.00000235   0.00001386   0.00006129 *
*    N      52     -0.00000235   0.00001386   0.00006129 *
*    B      53     -0.00000235   0.00001386   0.00006129 *
*    N      54     -0.00000235   0.00001386   0.00006129 *
*    B      55     -0.00000235   0.00001386   0.00006129 *
*    N      56     -0.00000235   0.00001386   0.00006129 *
*    B      57     -0.00000235   0.00001386   0.00006129 *
*    N      58     -0.00000235   0.00001386   0.00006129 *
*    B      59     -0.00000235   0.00001386   0.00006129 *
*    N      60     -0.00000235   0.00001386   0.00006129 *
*    B      61     -0.00000235   0.00001386   0.00006129 *
*    N      62     -0.00000235   0.00001386   0.00006129 *
*    B      63     -0.00000235   0.00001386   0.00006129 *
*    N      64     -0.00000235   0.00001386   0.00006129 *
*    B      65     -0.00000235   0.00001386   0.00006129 *
*    N      66     -0.00000235   0.00001386   0.00006129 *
*    B      67     -0.00000235   0.00001386   0.00006129 *
*    N      68     -0.00000235   0.00001386   0.00006129 *
*    B      69     -0.00000235   0.00001386   0.00006129 *
*    N      70     -0.00000235   0.00001386   0.00006129 *
*    B      71     -0.00000235   0.00001386   0.00006129 *
*    N      72     -0.00000235   0.00001386   0.00006129 *
*                                                        *
**********************************************************
TOTAL:             -0.00016935   0.00099804   0.00441321

********************* Unconstrained **********************
************************* Forces *************************
*                                                        *
* Element  Atom         Cartesian components (Eh/a)      *
* ------------------------------------------------------ *
*                       x            y            z      *
*                                                        *
*    B       1      0.00003684   0.00007594   0.00000393 *
*    N       2     -0.00003017   0.00011414   0.00001314 *
*    B       3     -0.00005531  -0.00003781  -0.00000062 *
*    N       4     -0.00009379  -0.00005961   0.00000107 *
*    B       5      0.00008979  -0.00001389   0.00000060 *
*    N       6      0.00008759  -0.00008961   0.00000104 *
*    B       7     -0.00000216   0.00009023   0.00000337 *
*    N       8     -0.00006676   0.00009971  -0.00000096 *
*    B       9      0.00010675   0.00006091   0.00000384 *
*    N      10      0.00000256   0.00000014   0.00000224 *
*    B      11      0.00007716  -0.00005077   0.00000348 *
*    N      12      0.00004871  -0.00011585   0.00000178 *
*    B      13      0.00000835  -0.00002175   0.00000685 *
*    N      14     -0.00000034  -0.00016094  -0.00000010 *
*    B      15     -0.00009043   0.00006716   0.00001517 *
*    N      16      0.00001548  -0.00005290   0.00001296 *
*    B      17      0.00001796  -0.00011569  -0.00000592 *
*    N      18     -0.00003665   0.00003969  -0.00001999 *
*    B      19     -0.00000739   0.00001613   0.00000031 *
*    N      20     -0.00012819   0.00007791  -0.00000394 *
*    B      21     -0.00010481   0.00006253   0.00000182 *
*    N      22     -0.00011544   0.00001239  -0.00000517 *
*    B      23      0.00000205  -0.00012362   0.00000265 *
*    N      24     -0.00004841  -0.00011511  -0.00000148 *
*    B      25     -0.00000896  -0.00001824  -0.00000187 *
*    N      26      0.00002751   0.00012206  -0.00000658 *
*    B      27     -0.00000238  -0.00015427  -0.00000486 *
*    N      28     -0.00001851  -0.00004959  -0.00003266 *
*    B      29      0.00000422   0.00000131  -0.00001804 *
*    C      30     -0.00000284   0.00000396  -0.00003355 *
*    B      31     -0.00012444   0.00007663  -0.00000119 *
*    N      32     -0.00004884   0.00001978   0.00001321 *
*    B      33     -0.00001440   0.00000092   0.00000521 *
*    N      34      0.00012264  -0.00002990   0.00001229 *
*    B      35     -0.00007800  -0.00004564   0.00000110 *
*    N      36     -0.00000289  -0.00000301  -0.00000163 *
*    B      37     -0.00004068   0.00008259   0.00000122 *
*    N      38      0.00012741  -0.00001541   0.00000907 *
*    B      39      0.00008378   0.00007377  -0.00001530 *
*    N      40      0.00009414  -0.00005484  -0.00000673 *
*    B      41     -0.00001235   0.00000512  -0.00002217 *
*    N      42      0.00003283   0.00003898   0.00001435 *
*    B      43     -0.00000050   0.00000075  -0.00001281 *
*    N      44      0.00004522   0.00002109  -0.00000343 *
*    B      45      0.00011116   0.00004852   0.00001427 *
*    N      46     -0.00000145   0.00012691   0.00000675 *
*    B      47      0.00005583  -0.00007120   0.00000415 *
*    N      48      0.00005667   0.00012109  -0.00000199 *
*    B      49      0.00008756   0.00004825   0.00000420 *
*    N      50     -0.00000001  -0.00000239   0.00000179 *
*    B      51      0.00005310  -0.00003429   0.00000290 *
*    N      52      0.00007756  -0.00010818   0.00000904 *
*    B      53     -0.00002137  -0.00011047   0.00000853 *
*    N      54     -0.00008998  -0.00008592  -0.00000008 *
*    B      55      0.00012236   0.00007784   0.00000659 *
*    N      56      0.00013126   0.00007887   0.00000783 *
*    B      57     -0.00010677   0.00005333  -0.00000343 *
*    N      58     -0.00011554  -0.00002966  -0.00001358 *
*    B      59      0.00000446   0.00007245   0.00000300 *
*    N      60     -0.00004682   0.00012404   0.00000265 *
*    B      61     -0.00008647   0.00005079   0.00000151 *
*    N      62     -0.00012787  -0.00001905  -0.00000537 *
*    B      63      0.00000087  -0.00010503   0.00000218 *
*    N      64     -0.00007293  -0.00011361  -0.00000766 *
*    B      65     -0.00009111  -0.00000923   0.00000304 *
*    N      66     -0.00000016   0.00000285   0.00000346 *
*    B      67      0.00000685   0.00001645   0.00000388 *
*    N      68      0.00006509   0.00010176   0.00000757 *
*    B      69      0.00001775  -0.00000005  -0.00000133 *
*    N      70      0.00011800   0.00000724   0.00000554 *
*    B      71     -0.00004935  -0.00007205  -0.00000011 *
*    N      72      0.00000491  -0.00000464   0.00000299 *
*                                                        *
**********************************************************
* TOTAL:            0.00000000   0.00000000   0.00000000 *
**********************************************************
 
 
***********************************************************
********** Summary of Forces (values in Eh/a) *************
*                                                         *
* ---------------------- Minimum ------------------------ *
* Atom:        50, |F|min =    0.00000299                 *
* Components:     Fx|min       Fy|min       Fz|min        *
*              -0.00000001  -0.00000239   0.00000179      *
*                                                         *
* ---------------------- Maximum ------------------------ *
* Atom:        14, |F|max =    0.00016094                 *
* Components:     Fx|max       Fy|max       Fz|max        *
*              -0.00000034  -0.00016094  -0.00000010      *
*                                                         *
* ---------------- Root Mean Square Force --------------- *
*                  |F|rms =    0.00010073                 *
* Components:     Fx|rms       Fy|rms       Fz|rms        *
*               0.00006934   0.00007247   0.00000940      *
***********************************************************
 

------------------------------ TIMING INFORMATION ------------------------------
AVERAGE TIME:    2589.303s on     16 proc(s)                                    
TOTAL TIME:      2589.303s on     16 proc(s)                                    
==================== AVERAGE TIMINGS FROM ALL PROCS (CUMULATIVE) =====================
|| TAG                                         #calls     cpu time   %total  Gflops ||
|| linalg_invert_sym_matrix                   :     5        0.00s   0.000%  ------ || (1 procs only)
|| onetep.F90 main loop imbalance             :     1        0.00s   0.000%  ------ ||
|| hash_table_free                            :   116        0.00s   0.000%  ------ ||
|| sparse_spam3toblacs_real_fast_imbal        :     6        0.00s   0.000%  ------ ||
|| sparse_blacstospam3_real_fast_imbal        :     8        0.00s   0.000%  ------ ||
|| onetep.F90 final imbalance                 :     1        0.00s   0.000%  ------ ||
|| sparse_spam3toblacs_real_fast_B2           :    96        0.00s   0.000%  ------ ||
|| density_fftbox_interp_mult_imbal           : 24040        0.00s   0.000%  ------ ||
|| ewald_calculate_forces_realspace           :    16        0.01s   0.000%  ------ ||
|| sparse_spam3toblacs_real_fast_B1           :    96        0.01s   0.000%  ------ ||
|| sparse_set_to_garbage                      :   804        0.01s   0.000%  ------ ||
|| sparse_spam3toblacs_real_fast              :     6        0.01s   0.001%  ------ ||
|| linalg_dgemv                               :    32        0.02s   0.001%  ------ ||
|| sparse_blacstospam3_real_fast              :     8        0.02s   0.001%  ------ ||
|| paw_dij_hartree                            :   641        0.03s   0.001%  ------ ||
|| restart_kernel_read                        :    14        0.05s   0.002%  ------ ||
|| paw_tcore_hartree_on_grid                  :    16        0.06s   0.002%  ------ ||
|| ewald_calculate_energy                     :    16        0.07s   0.003%  ------ ||
|| paw_sphere_density_on_grid                 :     1        0.07s   0.003%  ------ ||
|| pseudo_make_structure_factor               :    16        0.08s   0.003%  ------ ||
|| ewald_calculate_forces_recipspace          :    16        0.14s   0.005%  ------ ||
|| ewald_calculate_forces                     :    16        0.15s   0.006%  ------ ||
|| dense_eigensolve                           :     2        0.18s   0.007%  ------ ||
|| augmentation_density_forces                :    16        0.23s   0.009%  ------ ||
|| paw_tcore_hartree_calc_forces              :    16        0.27s   0.010%  ------ ||
|| paw_tcore_density                          :    16        0.27s   0.011%  ------ ||
|| restart_kernel_write                       :    58        0.32s   0.012%  ------ ||
|| palser_mano_kernel_optimise_spam3_embed    :     4        0.36s   0.014%  ------ ||
|| sparse_init                                :    16        0.38s   0.015%  ------ ||
|| basis_extract_function_from_box            :  4284        0.46s   0.018%  ------ ||
|| ngwfs_initialise_from_radial               :     2        0.83s   0.032%  ------ ||
|| sparse_embed_array_hotelling_invert        :   100        0.84s   0.032%  ------ ||
|| eigenstates_calculate                      :     1        1.01s   0.039%  ------ ||
|| paw_nlcc_calculate_forces                  :    16        1.08s   0.042%  ------ ||
|| paw_dataset_init                           :     3        1.32s   0.051%  ------ ||
|| integrals_grad_spam3                       :    16        1.76s   0.068%  ------ ||
|| nonsc_forces_ngwfs_calc                    :    16        1.76s   0.068%  ------ ||
|| density_init_guess_real                    :     4        1.91s   0.074%  ------ ||
|| hartree_on_grid_single                     :   586        2.40s   0.093%  ------ ||
|| energy_and_force_init_cell                 :     1        2.70s   0.104%  ------ ||
|| sparse_trace                               : 19710        3.45s   0.133%  ------ ||
|| kernel_purify                              :   887        4.40s   0.170%  ------ ||
|| kernel_fix                                 :   280        4.76s   0.184%  ------ ||
|| lnv_gradient_norm                          :   280        4.95s   0.191%  ------ ||
|| ngwf_gradient_coeffs                       :    56        6.12s   0.236%  ------ ||
|| myself                                     :  5076        6.55s   0.253% 277.786 ||
|| augmentation_screen_dij_spam3              :   585        7.69s   0.297%  ------ ||
|| restart_ngwfs_tightbox_input               :    14        7.82s   0.302%  ------ ||
|| basis_copy_function_to_box                 : 34812        8.45s   0.326%  ------ ||
|| cell_grid_deposit_box_real                 : 30340        8.95s   0.346%  ------ ||
|| paw_species_calc_proj_prec_mat             :    16        9.11s   0.352%  ------ ||
|| fourier_apply_cell_backward                :  5410        9.98s   0.386%  57.321 ||
|| properties_calculate                       :     1       10.65s   0.411%  ------ ||
|| fourier_apply_cell_forward                 :  5410       11.27s   0.435%  50.767 ||
|| function_ops_brappd_ketppd_spam3           :   100       11.52s   0.445%  ------ ||
|| cell_grid_extract_box_real                 : 19664       13.06s   0.504%  ------ ||
|| aug_density_on_grid_spam3                  :   601       14.89s   0.575%  ------ ||
|| restart_ngwfs_tightbox_output              :    42       23.87s   0.922%  ------ ||
|| sparse_product                             : 32298       24.92s   0.963%  ------ ||
|| projectors_func_grad_ovlp_box_spam3        :    48       25.06s   0.968%  ------ ||
|| aug_nl_calculate_forces                    :    16       27.24s   1.052%  ------ ||
|| hamiltonian_energy_components              :    16       28.27s   1.092%  ------ ||
|| density_fftbox_deposit_to_cell             : 24040       30.08s   1.162%  ------ ||
|| xc_energy_potential                        :   601       30.13s   1.164%  ------ ||
|| projectors_init_fftbox_recip               :   612       35.93s   1.388%  ------ ||
|| integrals_kinetic_spam3                    :   100       38.37s   1.482%  ------ ||
|| aug_nonlocal_mat_spam3_embed_array         :   569       44.88s   1.733%  ------ ||
|| paw_dij_xc                                 :   641       47.49s   1.834%  ------ ||
|| projectors_func_ovlp_box_spam3             :   100       49.89s   1.927%  ------ ||
|| fourier_filter                             :  7110       62.24s   2.404%  ------ ||
|| forces_calculate                           :    16       81.39s   3.143%  ------ ||
|| fourier_interpolate                        :  7110      109.35s   4.223%  ------ ||
|| projectors_gradient_batch                  :   224      130.74s   5.049%  ------ ||
|| basis_dot_function_with_box                : 4.049M     164.33s   6.347%  ------ ||
|| projectors_grad_precond_batch              :   224      194.26s   7.503%  ------ ||
|| integrals_locpot_mat_els_batch             :  1132      231.90s   8.956%  ------ ||
|| fourier_apply_box                          : 116.1k     248.47s   9.596% 561.073 ||
|| potential_apply_to_ngwf_batch              :  1132      257.38s   9.940%  ------ ||
|| fourier_interpolate_product                : 21636      311.34s  12.024%  ------ ||
|| density_fftbox_interpolate_multiply        : 24040      359.91s  13.900%  ------ ||
|| density_batch_row_sums                     :  2404      407.55s  15.740%  ------ ||
|| ngwf_gradient_build_batch                  :   224      416.72s  16.094%  ------ ||
|| basis_add_function_to_box                  : 8.554M     421.73s  16.288%  ------ ||
|| density_batch_interp_deposit               :  2404      479.60s  18.522%  ------ ||
|| integrals_locpot_dbl_grid                  :   566      489.90s  18.920%  ------ ||
|| ngwf_gradient_batch                        :   224      766.06s  29.586%  ------ ||
|| ngwf_gradient_lnv                          :    56      787.44s  30.411%  ------ ||
|| density_on_dbl_grid                        :  1202      899.88s  34.754%  ------ ||
|| hamiltonian_lhxc_calculate                 :   567      950.95s  36.726%  ------ ||
|| lnv_denskernel_optimise_cg                 :    56     1398.41s  54.007%  ------ ||
|| ngwf_cg_optimise                           :    16     2446.32s  94.478%  ------ ||
|| energy_and_forces                          :    16     2578.24s  99.573%  ------ ||
|| total_time                                 :     1     2589.30s 100.000%  ------ ||
======================================================================================
Overhead of generating timer report: 
- 0 ms averaging over threads,
- 1 ms ensuring consistency across MPI ranks,
- 1 ms printing in order.

Job completed: 16-05-2024 23:20 (+0100)

onetep_launcher: ONETEP seems to have finished correctly (zero exit code).
                 Brought to you by PID 235204 on nid004693.
