
     Program PWSCF v.7.1 starts on  1Apr2025 at 13:58: 6 

     This program is part of the open-source Quantum ESPRESSO suite
     for quantum simulation of materials; please cite
         "P. Giannozzi et al., J. Phys.:Condens. Matter 21 395502 (2009);
         "P. Giannozzi et al., J. Phys.:Condens. Matter 29 465901 (2017);
         "P. Giannozzi et al., J. Chem. Phys. 152 154105 (2020);
          URL http://www.quantum-espresso.org", 
     in publications or presentations arising from this work. More details at
     http://www.quantum-espresso.org/quote

     Parallel version (MPI & OpenMP), running on     220 processor cores
     Number of MPI processes:               110
     Threads/MPI process:                     2

     MPI processes distributed on     2 nodes
     241241 MiB available memory on the printing compute node when the environment starts

     Reading input from Co_2.in

     Current dimensions of program PWSCF are:
     Max number of different atomic species (ntypx) = 10
     Max number of k-points (npk) =  40000
     Max angular momentum in pseudopotentials (lmaxx) =  4
     file Co.GGA-PBE-paw.UPF: wavefunction(s)  0P 0D renormalized
     file Co.GGA-PBE-paw.UPF: wavefunction(s)  0P 0D renormalized
     file Co.GGA-PBE-paw.UPF: wavefunction(s)  0P 0D renormalized

     IMPORTANT: XC functional enforced from input :
     Exchange-correlation= PBE
                           (   1   4   3   4   0   0   0)
     Any further DFT definition will be discarded
     Please, verify this is what you really want

     Message from routine setup:
     using ibrav=0 with symmetry is DISCOURAGED, use correct ibrav instead

     K-points division:     npool     =       2
     R & G space division:  proc/nbgrp/npool/nimage =      55
     Subspace diagonalization in iterative solution of the eigenvalue problem:
     one sub-group per band group will be used
     scalapack distributed-memory algorithm (size of sub-group:  6*  6 procs)


     Parallelization info
     --------------------
     sticks:   dense  smooth     PW     G-vecs:    dense   smooth      PW
     Min         317     317     79                31519    31519    3941
     Max         318     318     80                31522    31522    3946
     Sum       17457   17457   4373              1733637  1733637  216895

     Using Slab Decomposition



     bravais-lattice index     =            0
     lattice parameter (alat)  =      34.9016  a.u.
     unit-cell volume          =   42514.4103 (a.u.)^3
     number of atoms/cell      =           55
     number of atomic types    =            3
     number of electrons       =       935.00
     number of Kohn-Sham states=          562
     kinetic-energy cutoff     =      45.0000  Ry
     charge density cutoff     =     180.0000  Ry
     scf convergence threshold =      1.0E-06
     mixing beta               =       0.3000
     number of iterations used =            8  plain     mixing
     Exchange-correlation= PBE
                           (   1   4   3   4   0   0   0)

     celldm(1)=  34.901604  celldm(2)=   0.000000  celldm(3)=   0.000000
     celldm(4)=   0.000000  celldm(5)=   0.000000  celldm(6)=   0.000000

     crystal axes: (cart. coord. in units of alat)
               a(1) = (   1.000000   0.000000   0.000000 )  
               a(2) = (   0.000000   1.000000   0.000000 )  
               a(3) = (   0.000000   0.000000   1.000000 )  

     reciprocal axes: (cart. coord. in units 2 pi/alat)
               b(1) = (  1.000000  0.000000  0.000000 )  
               b(2) = (  0.000000  1.000000  0.000000 )  
               b(3) = (  0.000000  0.000000  1.000000 )  


     PseudoPot. # 1 for Co read from file:
     ./Co.GGA-PBE-paw.UPF
     MD5 check sum: 447faad9aa7d5c741b1a5bc0f863315c
     Pseudo is Projector augmented-wave + core cor, Zval = 17.0
     Generated using ATOMPAW code
     Shape of augmentation charge: SINC**2
     Using radial grid of 2342 points,  6 beta functions with: 
                l(1) =   0
                l(2) =   0
                l(3) =   1
                l(4) =   1
                l(5) =   2
                l(6) =   2
     Q(r) pseudized with 0 coefficients 


     PseudoPot. # 2 for Co read from file:
     ./Co.GGA-PBE-paw.UPF
     MD5 check sum: 447faad9aa7d5c741b1a5bc0f863315c
     Pseudo is Projector augmented-wave + core cor, Zval = 17.0
     Generated using ATOMPAW code
     Shape of augmentation charge: SINC**2
     Using radial grid of 2342 points,  6 beta functions with: 
                l(1) =   0
                l(2) =   0
                l(3) =   1
                l(4) =   1
                l(5) =   2
                l(6) =   2
     Q(r) pseudized with 0 coefficients 


     PseudoPot. # 3 for Co read from file:
     ./Co.GGA-PBE-paw.UPF
     MD5 check sum: 447faad9aa7d5c741b1a5bc0f863315c
     Pseudo is Projector augmented-wave + core cor, Zval = 17.0
     Generated using ATOMPAW code
     Shape of augmentation charge: SINC**2
     Using radial grid of 2342 points,  6 beta functions with: 
                l(1) =   0
                l(2) =   0
                l(3) =   1
                l(4) =   1
                l(5) =   2
                l(6) =   2
     Q(r) pseudized with 0 coefficients 


     atomic species   valence    mass     pseudopotential
        Co1           17.00    58.93320     Co( 1.00)
        Co2           17.00    58.93320     Co( 1.00)
        Co3           17.00    58.93320     Co( 1.00)

     Starting magnetic structure 
     atomic species   magnetization
        Co1          1.000
        Co2          1.000
        Co3          1.000

      3 Sym. Ops. (no inversion) found



   Cartesian axes

     site n.     atom                  positions (alat units)
         1           Co1 tau(   1) = (   0.4999958   0.4999958   0.4999958  )
         2           Co2 tau(   2) = (   0.6092738   0.5000143   0.4323132  )
         3           Co2 tau(   3) = (   0.6092316   0.5000153   0.5676839  )
         4           Co2 tau(   4) = (   0.3906832   0.5000180   0.4322655  )
         5           Co2 tau(   5) = (   0.3907243   0.5000213   0.5677364  )
         6           Co2 tau(   6) = (   0.4323132   0.6092738   0.5000143  )
         7           Co2 tau(   7) = (   0.5676839   0.6092316   0.5000153  )
         8           Co2 tau(   8) = (   0.4322655   0.3906832   0.5000180  )
         9           Co2 tau(   9) = (   0.5677364   0.3907243   0.5000213  )
        10           Co2 tau(  10) = (   0.5000143   0.4323132   0.6092738  )
        11           Co2 tau(  11) = (   0.5000153   0.5676839   0.6092316  )
        12           Co2 tau(  12) = (   0.5000180   0.4322655   0.3906832  )
        13           Co2 tau(  13) = (   0.5000213   0.5677364   0.3907243  )
        14           Co3 tau(  14) = (   0.7165171   0.5000007   0.3658677  )
        15           Co3 tau(  15) = (   0.7175220   0.5000148   0.5000186  )
        16           Co3 tau(  16) = (   0.7165041   0.5000007   0.6341034  )
        17           Co3 tau(  17) = (   0.2834394   0.5000013   0.3658607  )
        18           Co3 tau(  18) = (   0.2824448   0.5000153   0.5000197  )
        19           Co3 tau(  19) = (   0.2834529   0.5000007   0.6341104  )
        20           Co3 tau(  20) = (   0.3658672   0.7165171   0.5000007  )
        21           Co3 tau(  21) = (   0.5000186   0.7175220   0.5000148  )
        22           Co3 tau(  22) = (   0.6341034   0.7165036   0.5000007  )
        23           Co3 tau(  23) = (   0.3658607   0.2834399   0.5000013  )
        24           Co3 tau(  24) = (   0.5000197   0.2824448   0.5000153  )
        25           Co3 tau(  25) = (   0.6341104   0.2834535   0.5000007  )
        26           Co3 tau(  26) = (   0.5000007   0.3658677   0.7165171  )
        27           Co3 tau(  27) = (   0.5000148   0.5000186   0.7175220  )
        28           Co3 tau(  28) = (   0.5000007   0.6341034   0.7165036  )
        29           Co3 tau(  29) = (   0.5000007   0.3658607   0.2834399  )
        30           Co3 tau(  30) = (   0.5000153   0.5000197   0.2824448  )
        31           Co3 tau(  31) = (   0.5000007   0.6341104   0.2834535  )
        32           Co3 tau(  32) = (   0.6088710   0.4326927   0.6760534  )
        33           Co3 tau(  33) = (   0.6088564   0.5673331   0.6760453  )
        34           Co3 tau(  34) = (   0.6088965   0.4326846   0.3239275  )
        35           Co3 tau(  35) = (   0.6088818   0.5673412   0.3239356  )
        36           Co3 tau(  36) = (   0.3911483   0.4326792   0.6760777  )
        37           Co3 tau(  37) = (   0.3911635   0.5673466   0.6760702  )
        38           Co3 tau(  38) = (   0.3911234   0.4326743   0.3239069  )
        39           Co3 tau(  39) = (   0.3911407   0.5673553   0.3239129  )
        40           Co3 tau(  40) = (   0.6760539   0.6088710   0.4326927  )
        41           Co3 tau(  41) = (   0.6760453   0.6088564   0.5673331  )
        42           Co3 tau(  42) = (   0.3239275   0.6088965   0.4326846  )
        43           Co3 tau(  43) = (   0.3239356   0.6088818   0.5673412  )
        44           Co3 tau(  44) = (   0.6760777   0.3911483   0.4326792  )
        45           Co3 tau(  45) = (   0.6760702   0.3911635   0.5673466  )
        46           Co3 tau(  46) = (   0.3239069   0.3911234   0.4326743  )
        47           Co3 tau(  47) = (   0.3239129   0.3911407   0.5673553  )
        48           Co3 tau(  48) = (   0.4326927   0.6760534   0.6088710  )
        49           Co3 tau(  49) = (   0.5673331   0.6760453   0.6088559  )
        50           Co3 tau(  50) = (   0.4326846   0.3239275   0.6088965  )
        51           Co3 tau(  51) = (   0.5673412   0.3239356   0.6088818  )
        52           Co3 tau(  52) = (   0.4326792   0.6760777   0.3911483  )
        53           Co3 tau(  53) = (   0.5673466   0.6760702   0.3911635  )
        54           Co3 tau(  54) = (   0.4326743   0.3239069   0.3911234  )
        55           Co3 tau(  55) = (   0.5673553   0.3239129   0.3911407  )

     number of k points=     1  Gaussian smearing, width (Ry)=  0.0100
                       cart. coord. in units 2pi/alat
        k(    1) = (   0.0000000   0.0000000   0.0000000), wk =   1.0000000

     Dense  grid:  1733637 G-vectors     FFT dimensions: ( 150, 150, 150)

     Estimated max dynamical RAM per process >     341.21 MB

     Estimated total dynamical RAM >      35.83 GB
     Generating pointlists ...
     new r_m :   0.0530 (alat units)  1.8501 (a.u.) for type    1
     new r_m :   0.0520 (alat units)  1.8160 (a.u.) for type    2
     new r_m :   0.0520 (alat units)  1.8160 (a.u.) for type    3

     Initial potential from superposition of free atoms

     starting charge     934.9702, renormalised to     935.0000

     negative rho (up, down):  3.289E-01 0.000E+00

     Program PWSCF v.7.3.1 starts on  1Apr2025 at 14:12:52 

     This program is part of the open-source Quantum ESPRESSO suite
     for quantum simulation of materials; please cite
         "P. Giannozzi et al., J. Phys.:Condens. Matter 21 395502 (2009);
         "P. Giannozzi et al., J. Phys.:Condens. Matter 29 465901 (2017);
         "P. Giannozzi et al., J. Chem. Phys. 152 154105 (2020);
          URL http://www.quantum-espresso.org", 
     in publications or presentations arising from this work. More details at
     http://www.quantum-espresso.org/quote

     Parallel version (MPI), running on    55 processors

     MPI processes distributed on     1 nodes
     244482 MiB available memory on the printing compute node when the environment starts

     Reading input from Co_2.in

     Current dimensions of program PWSCF are:
     Max number of different atomic species (ntypx) = 10
     Max number of k-points (npk) =  40000
     Max angular momentum in pseudopotentials (lmaxx) =  4
     file Co.GGA-PBE-paw.UPF: wavefunction(s)  0P 0D renormalized
     file Co.GGA-PBE-paw.UPF: wavefunction(s)  0P 0D renormalized
     file Co.GGA-PBE-paw.UPF: wavefunction(s)  0P 0D renormalized

     IMPORTANT: XC functional enforced from input :
     Exchange-correlation= PBE
                           (   1   4   3   4   0   0   0)
     Any further DFT definition will be discarded
     Please, verify this is what you really want

     Message from routine setup:
     using ibrav=0 with symmetry is DISCOURAGED, use correct ibrav instead

     R & G space division:  proc/nbgrp/npool/nimage =      55
     Subspace diagonalization in iterative solution of the eigenvalue problem:
     one sub-group per band group will be used
     custom distributed-memory algorithm (size of sub-group:  6*  6 procs)


     Parallelization info
     --------------------
     sticks:   dense  smooth     PW     G-vecs:    dense   smooth      PW
     Min         317     317     79                31519    31519    3941
     Max         318     318     80                31522    31522    3946
     Sum       17457   17457   4373              1733637  1733637  216895

     Using Slab Decomposition



     bravais-lattice index     =            0
     lattice parameter (alat)  =      34.9016  a.u.
     unit-cell volume          =   42514.4103 (a.u.)^3
     number of atoms/cell      =           55
     number of atomic types    =            3
     number of electrons       =       935.00
     number of Kohn-Sham states=          562
     kinetic-energy cutoff     =      45.0000  Ry
     charge density cutoff     =     180.0000  Ry
     scf convergence threshold =      1.0E-06
     mixing beta               =       0.3000
     number of iterations used =            8  plain     mixing
     Exchange-correlation= PBE
                           (   1   4   3   4   0   0   0)

     celldm(1)=  34.901604  celldm(2)=   0.000000  celldm(3)=   0.000000
     celldm(4)=   0.000000  celldm(5)=   0.000000  celldm(6)=   0.000000

     crystal axes: (cart. coord. in units of alat)
               a(1) = (   1.000000   0.000000   0.000000 )  
               a(2) = (   0.000000   1.000000   0.000000 )  
               a(3) = (   0.000000   0.000000   1.000000 )  

     reciprocal axes: (cart. coord. in units 2 pi/alat)
               b(1) = (  1.000000  0.000000  0.000000 )  
               b(2) = (  0.000000  1.000000  0.000000 )  
               b(3) = (  0.000000  0.000000  1.000000 )  


     PseudoPot. # 1 for Co read from file:
     ./Co.GGA-PBE-paw.UPF
     MD5 check sum: 447faad9aa7d5c741b1a5bc0f863315c
     Pseudo is Projector augmented-wave + core cor, Zval = 17.0
     Generated using ATOMPAW code
     Shape of augmentation charge: SINC**2
     Using radial grid of 2342 points,  6 beta functions with: 
                l(1) =   0
                l(2) =   0
                l(3) =   1
                l(4) =   1
                l(5) =   2
                l(6) =   2
     Q(r) pseudized with 0 coefficients 


     PseudoPot. # 2 for Co read from file:
     ./Co.GGA-PBE-paw.UPF
     MD5 check sum: 447faad9aa7d5c741b1a5bc0f863315c
     Pseudo is Projector augmented-wave + core cor, Zval = 17.0
     Generated using ATOMPAW code
     Shape of augmentation charge: SINC**2
     Using radial grid of 2342 points,  6 beta functions with: 
                l(1) =   0
                l(2) =   0
                l(3) =   1
                l(4) =   1
                l(5) =   2
                l(6) =   2
     Q(r) pseudized with 0 coefficients 


     PseudoPot. # 3 for Co read from file:
     ./Co.GGA-PBE-paw.UPF
     MD5 check sum: 447faad9aa7d5c741b1a5bc0f863315c
     Pseudo is Projector augmented-wave + core cor, Zval = 17.0
     Generated using ATOMPAW code
     Shape of augmentation charge: SINC**2
     Using radial grid of 2342 points,  6 beta functions with: 
                l(1) =   0
                l(2) =   0
                l(3) =   1
                l(4) =   1
                l(5) =   2
                l(6) =   2
     Q(r) pseudized with 0 coefficients 


     atomic species   valence    mass     pseudopotential
     Co1              17.00    58.93320     Co( 1.00)
     Co2              17.00    58.93320     Co( 1.00)
     Co3              17.00    58.93320     Co( 1.00)

     Starting magnetic structure 
     atomic species   magnetization
     Co1             0.176
     Co2             0.176
     Co3             0.176

      3 Sym. Ops. (no inversion) found



   Cartesian axes

     site n.     atom                  positions (alat units)
         1        Co1    tau(   1) = (   0.4999958   0.4999958   0.4999958  )
         2        Co2    tau(   2) = (   0.6092738   0.5000143   0.4323132  )
         3        Co2    tau(   3) = (   0.6092316   0.5000153   0.5676839  )
         4        Co2    tau(   4) = (   0.3906832   0.5000180   0.4322655  )
         5        Co2    tau(   5) = (   0.3907243   0.5000213   0.5677364  )
         6        Co2    tau(   6) = (   0.4323132   0.6092738   0.5000143  )
         7        Co2    tau(   7) = (   0.5676839   0.6092316   0.5000153  )
         8        Co2    tau(   8) = (   0.4322655   0.3906832   0.5000180  )
         9        Co2    tau(   9) = (   0.5677364   0.3907243   0.5000213  )
        10        Co2    tau(  10) = (   0.5000143   0.4323132   0.6092738  )
        11        Co2    tau(  11) = (   0.5000153   0.5676839   0.6092316  )
        12        Co2    tau(  12) = (   0.5000180   0.4322655   0.3906832  )
        13        Co2    tau(  13) = (   0.5000213   0.5677364   0.3907243  )
        14        Co3    tau(  14) = (   0.7165171   0.5000007   0.3658677  )
        15        Co3    tau(  15) = (   0.7175220   0.5000148   0.5000186  )
        16        Co3    tau(  16) = (   0.7165041   0.5000007   0.6341034  )
        17        Co3    tau(  17) = (   0.2834394   0.5000013   0.3658607  )
        18        Co3    tau(  18) = (   0.2824448   0.5000153   0.5000197  )
        19        Co3    tau(  19) = (   0.2834529   0.5000007   0.6341104  )
        20        Co3    tau(  20) = (   0.3658672   0.7165171   0.5000007  )
        21        Co3    tau(  21) = (   0.5000186   0.7175220   0.5000148  )
        22        Co3    tau(  22) = (   0.6341034   0.7165036   0.5000007  )
        23        Co3    tau(  23) = (   0.3658607   0.2834399   0.5000013  )
        24        Co3    tau(  24) = (   0.5000197   0.2824448   0.5000153  )
        25        Co3    tau(  25) = (   0.6341104   0.2834535   0.5000007  )
        26        Co3    tau(  26) = (   0.5000007   0.3658677   0.7165171  )
        27        Co3    tau(  27) = (   0.5000148   0.5000186   0.7175220  )
        28        Co3    tau(  28) = (   0.5000007   0.6341034   0.7165036  )
        29        Co3    tau(  29) = (   0.5000007   0.3658607   0.2834399  )
        30        Co3    tau(  30) = (   0.5000153   0.5000197   0.2824448  )
        31        Co3    tau(  31) = (   0.5000007   0.6341104   0.2834535  )
        32        Co3    tau(  32) = (   0.6088710   0.4326927   0.6760534  )
        33        Co3    tau(  33) = (   0.6088564   0.5673331   0.6760453  )
        34        Co3    tau(  34) = (   0.6088965   0.4326846   0.3239275  )
        35        Co3    tau(  35) = (   0.6088818   0.5673412   0.3239356  )
        36        Co3    tau(  36) = (   0.3911483   0.4326792   0.6760777  )
        37        Co3    tau(  37) = (   0.3911635   0.5673466   0.6760702  )
        38        Co3    tau(  38) = (   0.3911234   0.4326743   0.3239069  )
        39        Co3    tau(  39) = (   0.3911407   0.5673553   0.3239129  )
        40        Co3    tau(  40) = (   0.6760539   0.6088710   0.4326927  )
        41        Co3    tau(  41) = (   0.6760453   0.6088564   0.5673331  )
        42        Co3    tau(  42) = (   0.3239275   0.6088965   0.4326846  )
        43        Co3    tau(  43) = (   0.3239356   0.6088818   0.5673412  )
        44        Co3    tau(  44) = (   0.6760777   0.3911483   0.4326792  )
        45        Co3    tau(  45) = (   0.6760702   0.3911635   0.5673466  )
        46        Co3    tau(  46) = (   0.3239069   0.3911234   0.4326743  )
        47        Co3    tau(  47) = (   0.3239129   0.3911407   0.5673553  )
        48        Co3    tau(  48) = (   0.4326927   0.6760534   0.6088710  )
        49        Co3    tau(  49) = (   0.5673331   0.6760453   0.6088559  )
        50        Co3    tau(  50) = (   0.4326846   0.3239275   0.6088965  )
        51        Co3    tau(  51) = (   0.5673412   0.3239356   0.6088818  )
        52        Co3    tau(  52) = (   0.4326792   0.6760777   0.3911483  )
        53        Co3    tau(  53) = (   0.5673466   0.6760702   0.3911635  )
        54        Co3    tau(  54) = (   0.4326743   0.3239069   0.3911234  )
        55        Co3    tau(  55) = (   0.5673553   0.3239129   0.3911407  )

     number of k points=     1  Gaussian smearing, width (Ry)=  0.0100
                       cart. coord. in units 2pi/alat
        k(    1) = (   0.0000000   0.0000000   0.0000000), wk =   1.0000000

     Dense  grid:  1733637 G-vectors     FFT dimensions: ( 150, 150, 150)

     Estimated max dynamical RAM per process >     408.79 MB

     Estimated total dynamical RAM >      21.96 GB
     Generating pointlists ...
     new r_m :   0.0530 (alat units)  1.8501 (a.u.) for type    1
     new r_m :   0.0520 (alat units)  1.8160 (a.u.) for type    2
     new r_m :   0.0520 (alat units)  1.8160 (a.u.) for type    3

     Initial potential from superposition of free atoms

     starting charge     934.9702, renormalised to     935.0000

     negative rho (up, down):  1.935E-01 1.354E-01
     Starting wfcs are  990 randomized atomic wfcs
     Checking if some PAW data can be deallocated... 

     total cpu time spent up to now is       23.5 secs

     per-process dynamical memory:   241.7 Mb

     Self-consistent Calculation

     iteration #  1     ecut=    45.00 Ry     beta= 0.30
     Davidson diagonalization with overlap
     ethr =  1.00E-02,  avg # of iterations =  9.0

     negative rho (up, down):  1.881E-01 1.296E-01

     total cpu time spent up to now is       70.0 secs

     total energy              =  -20706.59859205 Ry
     estimated scf accuracy    <      24.93581516 Ry

     total magnetization       =   116.04 Bohr mag/cell
     absolute magnetization    =   118.39 Bohr mag/cell

     iteration #  2     ecut=    45.00 Ry     beta= 0.30
     Davidson diagonalization with overlap
     ethr =  2.67E-03,  avg # of iterations =  8.5

     negative rho (up, down):  1.864E-01 1.291E-01

     total cpu time spent up to now is      123.3 secs

     total energy              =  -20685.28544389 Ry
     estimated scf accuracy    <     991.35435688 Ry

     total magnetization       =    22.52 Bohr mag/cell
     absolute magnetization    =    28.95 Bohr mag/cell

     iteration #  3     ecut=    45.00 Ry     beta= 0.30
     Davidson diagonalization with overlap
     ethr =  2.67E-03,  avg # of iterations =  5.0

     negative rho (up, down):  1.870E-01 1.303E-01

     total cpu time spent up to now is      178.3 secs

     total energy              =  -20710.80633066 Ry
     estimated scf accuracy    <      69.94107284 Ry

     total magnetization       =   105.01 Bohr mag/cell
     absolute magnetization    =   108.31 Bohr mag/cell

     iteration #  4     ecut=    45.00 Ry     beta= 0.30
     Davidson diagonalization with overlap
     ethr =  2.67E-03,  avg # of iterations =  1.0

     negative rho (up, down):  1.885E-01 1.327E-01

     total cpu time spent up to now is      207.0 secs

     total energy              =  -20712.27402555 Ry
     estimated scf accuracy    <      52.97769822 Ry

     total magnetization       =   104.91 Bohr mag/cell
     absolute magnetization    =   110.07 Bohr mag/cell

     iteration #  5     ecut=    45.00 Ry     beta= 0.30
     Davidson diagonalization with overlap
     ethr =  2.67E-03,  avg # of iterations =  1.5

     negative rho (up, down):  1.893E-01 1.341E-01

     total cpu time spent up to now is      238.1 secs

     total energy              =  -20711.13910308 Ry
     estimated scf accuracy    <     228.45320355 Ry

     total magnetization       =   103.55 Bohr mag/cell
     absolute magnetization    =   107.88 Bohr mag/cell

     iteration #  6     ecut=    45.00 Ry     beta= 0.30
     Davidson diagonalization with overlap
     ethr =  2.67E-03,  avg # of iterations =  1.0

     negative rho (up, down):  1.898E-01 1.351E-01

     total cpu time spent up to now is      266.7 secs

     total energy              =  -20713.87289395 Ry
     estimated scf accuracy    <      48.97382104 Ry

     total magnetization       =   105.13 Bohr mag/cell
     absolute magnetization    =   110.16 Bohr mag/cell

     iteration #  7     ecut=    45.00 Ry     beta= 0.30
     Davidson diagonalization with overlap
     ethr =  2.67E-03,  avg # of iterations =  1.0

     negative rho (up, down):  1.904E-01 1.360E-01

     total cpu time spent up to now is      295.5 secs

     total energy              =  -20714.92859949 Ry
     estimated scf accuracy    <      12.72996248 Ry

     total magnetization       =   105.13 Bohr mag/cell
     absolute magnetization    =   110.14 Bohr mag/cell

     iteration #  8     ecut=    45.00 Ry     beta= 0.30
     Davidson diagonalization with overlap
     ethr =  1.36E-03,  avg # of iterations =  1.0

     negative rho (up, down):  1.914E-01 1.373E-01

     total cpu time spent up to now is      324.2 secs

     total energy              =  -20715.12475899 Ry
     estimated scf accuracy    <      14.74933947 Ry

     total magnetization       =   104.99 Bohr mag/cell
     absolute magnetization    =   109.88 Bohr mag/cell

     iteration #  9     ecut=    45.00 Ry     beta= 0.30
     Davidson diagonalization with overlap
     ethr =  1.36E-03,  avg # of iterations =  1.0

     negative rho (up, down):  1.919E-01 1.379E-01

     total cpu time spent up to now is      352.9 secs

     total energy              =  -20715.56557709 Ry
     estimated scf accuracy    <       1.98012754 Ry

     total magnetization       =   104.94 Bohr mag/cell
     absolute magnetization    =   110.49 Bohr mag/cell

     iteration # 10     ecut=    45.00 Ry     beta= 0.30
     Davidson diagonalization with overlap
     ethr =  2.12E-04,  avg # of iterations =  8.0

     negative rho (up, down):  1.931E-01 1.396E-01

     total cpu time spent up to now is      390.5 secs

     total energy              =  -20715.61726878 Ry
     estimated scf accuracy    <       1.24474558 Ry

     total magnetization       =   104.78 Bohr mag/cell
     absolute magnetization    =   110.41 Bohr mag/cell

     iteration # 11     ecut=    45.00 Ry     beta= 0.30
     Davidson diagonalization with overlap
     ethr =  1.33E-04,  avg # of iterations =  2.0

     negative rho (up, down):  1.927E-01 1.391E-01

     total cpu time spent up to now is      424.0 secs

     total energy              =  -20715.51656062 Ry
     estimated scf accuracy    <       2.36902941 Ry

     total magnetization       =   104.48 Bohr mag/cell
     absolute magnetization    =   110.47 Bohr mag/cell

     iteration # 12     ecut=    45.00 Ry     beta= 0.30
     Davidson diagonalization with overlap
     ethr =  1.33E-04,  avg # of iterations =  4.5

     negative rho (up, down):  1.942E-01 1.415E-01

     total cpu time spent up to now is      456.9 secs

     total energy              =  -20715.65579282 Ry
     estimated scf accuracy    <       0.81924837 Ry

     total magnetization       =   104.97 Bohr mag/cell
     absolute magnetization    =   110.90 Bohr mag/cell

     iteration # 13     ecut=    45.00 Ry     beta= 0.30
     Davidson diagonalization with overlap
     ethr =  8.76E-05,  avg # of iterations =  1.5

     negative rho (up, down):  1.939E-01 1.411E-01

     total cpu time spent up to now is      487.9 secs

     total energy              =  -20715.60728120 Ry
     estimated scf accuracy    <       2.38240162 Ry

     total magnetization       =   104.32 Bohr mag/cell
     absolute magnetization    =   110.28 Bohr mag/cell

     iteration # 14     ecut=    45.00 Ry     beta= 0.30
     Davidson diagonalization with overlap
     ethr =  8.76E-05,  avg # of iterations =  1.0

     negative rho (up, down):  1.942E-01 1.418E-01

     total cpu time spent up to now is      516.5 secs

     total energy              =  -20715.67980238 Ry
     estimated scf accuracy    <       0.47099409 Ry

     total magnetization       =   104.52 Bohr mag/cell
     absolute magnetization    =   110.57 Bohr mag/cell

     iteration # 15     ecut=    45.00 Ry     beta= 0.30
     Davidson diagonalization with overlap
     ethr =  5.04E-05,  avg # of iterations =  8.0

     negative rho (up, down):  1.942E-01 1.418E-01

     total cpu time spent up to now is      554.2 secs

     total energy              =  -20715.63224086 Ry
     estimated scf accuracy    <       2.93299483 Ry

     total magnetization       =   104.31 Bohr mag/cell
     absolute magnetization    =   110.47 Bohr mag/cell

     iteration # 16     ecut=    45.00 Ry     beta= 0.30
     Davidson diagonalization with overlap
     ethr =  5.04E-05,  avg # of iterations =  1.5

     negative rho (up, down):  1.940E-01 1.414E-01

     total cpu time spent up to now is      585.2 secs

     total energy              =  -20715.64697349 Ry
     estimated scf accuracy    <       1.49581509 Ry

     total magnetization       =   104.52 Bohr mag/cell
     absolute magnetization    =   110.80 Bohr mag/cell

     iteration # 17     ecut=    45.00 Ry     beta= 0.30
     Davidson diagonalization with overlap
     ethr =  5.04E-05,  avg # of iterations =  1.5

     negative rho (up, down):  1.943E-01 1.422E-01

     total cpu time spent up to now is      616.3 secs

     total energy              =  -20715.67169905 Ry
     estimated scf accuracy    <       0.98759806 Ry

     total magnetization       =   104.58 Bohr mag/cell
     absolute magnetization    =   110.97 Bohr mag/cell

     iteration # 18     ecut=    45.00 Ry     beta= 0.30
     Davidson diagonalization with overlap
     ethr =  5.04E-05,  avg # of iterations =  1.0

     negative rho (up, down):  1.945E-01 1.426E-01

     total cpu time spent up to now is      644.8 secs

     total energy              =  -20715.68688671 Ry
     estimated scf accuracy    <       0.70441928 Ry

     total magnetization       =   104.49 Bohr mag/cell
     absolute magnetization    =   110.86 Bohr mag/cell

     iteration # 19     ecut=    45.00 Ry     beta= 0.30
     Davidson diagonalization with overlap
     ethr =  5.04E-05,  avg # of iterations =  1.0

     negative rho (up, down):  1.944E-01 1.425E-01

     total cpu time spent up to now is      673.4 secs

     total energy              =  -20715.69890604 Ry
     estimated scf accuracy    <       0.21967630 Ry

     total magnetization       =   104.39 Bohr mag/cell
     absolute magnetization    =   110.78 Bohr mag/cell

     iteration # 20     ecut=    45.00 Ry     beta= 0.30
     Davidson diagonalization with overlap
     ethr =  2.35E-05,  avg # of iterations =  1.5

     negative rho (up, down):  1.947E-01 1.434E-01

     total cpu time spent up to now is      704.5 secs

     total energy              =  -20715.71689924 Ry
     estimated scf accuracy    <       0.06461985 Ry

     total magnetization       =   104.49 Bohr mag/cell
     absolute magnetization    =   110.88 Bohr mag/cell

     iteration # 21     ecut=    45.00 Ry     beta= 0.30
     Davidson diagonalization with overlap
     c_bands:  2 eigenvalues not converged
     c_bands:  3 eigenvalues not converged
     ethr =  6.91E-06,  avg # of iterations = 20.0

     negative rho (up, down):  1.947E-01 1.435E-01

     total cpu time spent up to now is      750.6 secs

     total energy              =  -20715.71698141 Ry
     estimated scf accuracy    <       0.07085506 Ry

     total magnetization       =   104.31 Bohr mag/cell
     absolute magnetization    =   110.83 Bohr mag/cell

     iteration # 22     ecut=    45.00 Ry     beta= 0.30
     Davidson diagonalization with overlap
     c_bands:  1 eigenvalues not converged
     ethr =  6.91E-06,  avg # of iterations = 11.0

     negative rho (up, down):  1.948E-01 1.443E-01

     total cpu time spent up to now is      790.2 secs

     total energy              =  -20715.72369890 Ry
     estimated scf accuracy    <       0.13054876 Ry

     total magnetization       =   104.19 Bohr mag/cell
     absolute magnetization    =   110.77 Bohr mag/cell

     iteration # 23     ecut=    45.00 Ry     beta= 0.30
     Davidson diagonalization with overlap
     c_bands:  2 eigenvalues not converged
     ethr =  6.91E-06,  avg # of iterations = 10.5

     negative rho (up, down):  1.947E-01 1.436E-01

     total cpu time spent up to now is      827.3 secs

     total energy              =  -20715.71649973 Ry
     estimated scf accuracy    <       0.06623125 Ry

     total magnetization       =   104.12 Bohr mag/cell
     absolute magnetization    =   110.81 Bohr mag/cell

     iteration # 24     ecut=    45.00 Ry     beta= 0.30
     Davidson diagonalization with overlap
     ethr =  6.91E-06,  avg # of iterations =  6.0

     negative rho (up, down):  1.948E-01 1.441E-01

     total cpu time spent up to now is      861.3 secs

     total energy              =  -20715.71985200 Ry
     estimated scf accuracy    <       0.14887595 Ry

     total magnetization       =   104.30 Bohr mag/cell
     absolute magnetization    =   110.91 Bohr mag/cell

     iteration # 25     ecut=    45.00 Ry     beta= 0.30
     Davidson diagonalization with overlap
     ethr =  6.91E-06,  avg # of iterations =  1.0

     negative rho (up, down):  1.948E-01 1.445E-01

     total cpu time spent up to now is      889.9 secs

     total energy              =  -20715.72364495 Ry
     estimated scf accuracy    <       0.12172629 Ry

     total magnetization       =   104.13 Bohr mag/cell
     absolute magnetization    =   110.83 Bohr mag/cell

     iteration # 26     ecut=    45.00 Ry     beta= 0.30
     Davidson diagonalization with overlap
     ethr =  6.91E-06,  avg # of iterations =  1.0

     negative rho (up, down):  1.949E-01 1.448E-01

     total cpu time spent up to now is      918.6 secs

     total energy              =  -20715.72414865 Ry
     estimated scf accuracy    <       0.20687661 Ry

     total magnetization       =   104.00 Bohr mag/cell
     absolute magnetization    =   110.75 Bohr mag/cell

     iteration # 27     ecut=    45.00 Ry     beta= 0.30
     Davidson diagonalization with overlap
     ethr =  6.91E-06,  avg # of iterations =  1.0

     negative rho (up, down):  1.949E-01 1.451E-01

     total cpu time spent up to now is      947.2 secs

     total energy              =  -20715.72705539 Ry
     estimated scf accuracy    <       0.10545634 Ry

     total magnetization       =   103.92 Bohr mag/cell
     absolute magnetization    =   110.69 Bohr mag/cell

     iteration # 28     ecut=    45.00 Ry     beta= 0.30
     Davidson diagonalization with overlap
     ethr =  6.91E-06,  avg # of iterations =  1.0

     negative rho (up, down):  1.949E-01 1.452E-01

     total cpu time spent up to now is      975.8 secs

     total energy              =  -20715.72801725 Ry
     estimated scf accuracy    <       0.08280442 Ry

     total magnetization       =   103.92 Bohr mag/cell
     absolute magnetization    =   110.76 Bohr mag/cell

     iteration # 29     ecut=    45.00 Ry     beta= 0.30
     Davidson diagonalization with overlap
     ethr =  6.91E-06,  avg # of iterations =  1.0

     negative rho (up, down):  1.949E-01 1.449E-01

     total cpu time spent up to now is     1004.5 secs

     total energy              =  -20715.72834134 Ry
     estimated scf accuracy    <       0.02461099 Ry

     total magnetization       =   103.96 Bohr mag/cell
     absolute magnetization    =   110.85 Bohr mag/cell

     iteration # 30     ecut=    45.00 Ry     beta= 0.30
     Davidson diagonalization with overlap
     ethr =  2.63E-06,  avg # of iterations =  1.5

     negative rho (up, down):  1.949E-01 1.452E-01

     total cpu time spent up to now is     1035.5 secs

     total energy              =  -20715.72993498 Ry
     estimated scf accuracy    <       0.03619975 Ry

     total magnetization       =   103.97 Bohr mag/cell
     absolute magnetization    =   110.82 Bohr mag/cell

     iteration # 31     ecut=    45.00 Ry     beta= 0.30
     Davidson diagonalization with overlap
     ethr =  2.63E-06,  avg # of iterations =  1.0

     negative rho (up, down):  1.948E-01 1.450E-01

     total cpu time spent up to now is     1064.1 secs

     total energy              =  -20715.72905745 Ry
     estimated scf accuracy    <       0.01134897 Ry

     total magnetization       =   103.92 Bohr mag/cell
     absolute magnetization    =   110.81 Bohr mag/cell

     iteration # 32     ecut=    45.00 Ry     beta= 0.30
     Davidson diagonalization with overlap
     ethr =  1.21E-06,  avg # of iterations =  1.5

     negative rho (up, down):  1.948E-01 1.455E-01

     total cpu time spent up to now is     1095.1 secs

     total energy              =  -20715.72975027 Ry
     estimated scf accuracy    <       0.06339520 Ry

     total magnetization       =   104.02 Bohr mag/cell
     absolute magnetization    =   110.87 Bohr mag/cell

     iteration # 33     ecut=    45.00 Ry     beta= 0.30
     Davidson diagonalization with overlap
     ethr =  1.21E-06,  avg # of iterations =  1.0

     negative rho (up, down):  1.948E-01 1.455E-01

     total cpu time spent up to now is     1123.8 secs

     total energy              =  -20715.73171343 Ry
     estimated scf accuracy    <       0.00578087 Ry

     total magnetization       =   103.86 Bohr mag/cell
     absolute magnetization    =   110.79 Bohr mag/cell

     iteration # 34     ecut=    45.00 Ry     beta= 0.30
     Davidson diagonalization with overlap
     ethr =  6.18E-07,  avg # of iterations =  2.0

     negative rho (up, down):  1.948E-01 1.456E-01

     total cpu time spent up to now is     1157.3 secs

     total energy              =  -20715.73193002 Ry
     estimated scf accuracy    <       0.01076174 Ry

     total magnetization       =   103.84 Bohr mag/cell
     absolute magnetization    =   110.78 Bohr mag/cell

     iteration # 35     ecut=    45.00 Ry     beta= 0.30
     Davidson diagonalization with overlap
     ethr =  6.18E-07,  avg # of iterations =  1.5

     negative rho (up, down):  1.948E-01 1.457E-01

     total cpu time spent up to now is     1188.4 secs

     total energy              =  -20715.73235150 Ry
     estimated scf accuracy    <       0.00936573 Ry

     total magnetization       =   103.85 Bohr mag/cell
     absolute magnetization    =   110.80 Bohr mag/cell

     iteration # 36     ecut=    45.00 Ry     beta= 0.30
     Davidson diagonalization with overlap
     ethr =  6.18E-07,  avg # of iterations =  1.5

     negative rho (up, down):  1.948E-01 1.458E-01

     total cpu time spent up to now is     1219.4 secs

     total energy              =  -20715.73239375 Ry
     estimated scf accuracy    <       0.01742517 Ry

     total magnetization       =   103.82 Bohr mag/cell
     absolute magnetization    =   110.80 Bohr mag/cell

     iteration # 37     ecut=    45.00 Ry     beta= 0.30
     Davidson diagonalization with overlap
     ethr =  6.18E-07,  avg # of iterations =  1.5

     negative rho (up, down):  1.948E-01 1.459E-01

     total cpu time spent up to now is     1250.5 secs

     total energy              =  -20715.73265483 Ry
     estimated scf accuracy    <       0.00950230 Ry

     total magnetization       =   103.82 Bohr mag/cell
     absolute magnetization    =   110.83 Bohr mag/cell

     iteration # 38     ecut=    45.00 Ry     beta= 0.30
     Davidson diagonalization with overlap
     ethr =  6.18E-07,  avg # of iterations =  1.0

     negative rho (up, down):  1.948E-01 1.458E-01

     total cpu time spent up to now is     1279.1 secs

     total energy              =  -20715.73263204 Ry
     estimated scf accuracy    <       0.00630260 Ry

     total magnetization       =   103.79 Bohr mag/cell
     absolute magnetization    =   110.81 Bohr mag/cell

     iteration # 39     ecut=    45.00 Ry     beta= 0.30
     Davidson diagonalization with overlap
     c_bands:  1 eigenvalues not converged
     ethr =  6.18E-07,  avg # of iterations = 10.5

     negative rho (up, down):  1.947E-01 1.459E-01

     total cpu time spent up to now is     1316.0 secs

     total energy              =  -20715.73277495 Ry
     estimated scf accuracy    <       0.00387123 Ry

     total magnetization       =   103.78 Bohr mag/cell
     absolute magnetization    =   110.78 Bohr mag/cell

     iteration # 40     ecut=    45.00 Ry     beta= 0.30
     Davidson diagonalization with overlap
     ethr =  4.14E-07,  avg # of iterations =  9.5

     negative rho (up, down):  1.947E-01 1.460E-01

     total cpu time spent up to now is     1352.1 secs

     total energy              =  -20715.73277928 Ry
     estimated scf accuracy    <       0.01192102 Ry

     total magnetization       =   103.78 Bohr mag/cell
     absolute magnetization    =   110.80 Bohr mag/cell

     iteration # 41     ecut=    45.00 Ry     beta= 0.30
     Davidson diagonalization with overlap
     ethr =  4.14E-07,  avg # of iterations =  1.0

     negative rho (up, down):  1.947E-01 1.464E-01

     total cpu time spent up to now is     1380.7 secs

     total energy              =  -20715.73350906 Ry
     estimated scf accuracy    <       0.00215753 Ry

     total magnetization       =   103.75 Bohr mag/cell
     absolute magnetization    =   110.79 Bohr mag/cell

     iteration # 42     ecut=    45.00 Ry     beta= 0.30
     Davidson diagonalization with overlap
     ethr =  2.31E-07,  avg # of iterations =  1.0

     negative rho (up, down):  1.947E-01 1.461E-01

     total cpu time spent up to now is     1409.3 secs

     total energy              =  -20715.73313323 Ry
     estimated scf accuracy    <       0.00352448 Ry

     total magnetization       =   103.68 Bohr mag/cell
     absolute magnetization    =   110.76 Bohr mag/cell

     iteration # 43     ecut=    45.00 Ry     beta= 0.30
     Davidson diagonalization with overlap
     ethr =  2.31E-07,  avg # of iterations =  1.0

     negative rho (up, down):  1.947E-01 1.461E-01

     total cpu time spent up to now is     1437.9 secs

     total energy              =  -20715.73321475 Ry
     estimated scf accuracy    <       0.00246460 Ry

     total magnetization       =   103.75 Bohr mag/cell
     absolute magnetization    =   110.80 Bohr mag/cell

     iteration # 44     ecut=    45.00 Ry     beta= 0.30
     Davidson diagonalization with overlap
     ethr =  2.31E-07,  avg # of iterations =  1.0

     negative rho (up, down):  1.947E-01 1.462E-01

     total cpu time spent up to now is     1466.5 secs

     total energy              =  -20715.73319784 Ry
     estimated scf accuracy    <       0.00752111 Ry

     total magnetization       =   103.76 Bohr mag/cell
     absolute magnetization    =   110.81 Bohr mag/cell

     iteration # 45     ecut=    45.00 Ry     beta= 0.30
     Davidson diagonalization with overlap
     ethr =  2.31E-07,  avg # of iterations =  1.0

     negative rho (up, down):  1.947E-01 1.463E-01

     total cpu time spent up to now is     1495.2 secs

     total energy              =  -20715.73343359 Ry
     estimated scf accuracy    <       0.00373663 Ry

     total magnetization       =   103.73 Bohr mag/cell
     absolute magnetization    =   110.79 Bohr mag/cell

     iteration # 46     ecut=    45.00 Ry     beta= 0.30
     Davidson diagonalization with overlap
     ethr =  2.31E-07,  avg # of iterations =  1.0

     negative rho (up, down):  1.947E-01 1.463E-01

     total cpu time spent up to now is     1523.8 secs

     total energy              =  -20715.73352045 Ry
     estimated scf accuracy    <       0.00333068 Ry

     total magnetization       =   103.71 Bohr mag/cell
     absolute magnetization    =   110.79 Bohr mag/cell

     iteration # 47     ecut=    45.00 Ry     beta= 0.30
     Davidson diagonalization with overlap
     ethr =  2.31E-07,  avg # of iterations =  1.0

     negative rho (up, down):  1.947E-01 1.463E-01

     total cpu time spent up to now is     1552.4 secs

     total energy              =  -20715.73353534 Ry
     estimated scf accuracy    <       0.00127986 Ry

     total magnetization       =   103.70 Bohr mag/cell
     absolute magnetization    =   110.78 Bohr mag/cell

     iteration # 48     ecut=    45.00 Ry     beta= 0.30
     Davidson diagonalization with overlap
     ethr =  1.37E-07,  avg # of iterations =  1.0

     negative rho (up, down):  1.947E-01 1.464E-01

     total cpu time spent up to now is     1581.1 secs

     total energy              =  -20715.73357805 Ry
     estimated scf accuracy    <       0.00098202 Ry

     total magnetization       =   103.70 Bohr mag/cell
     absolute magnetization    =   110.79 Bohr mag/cell

     iteration # 49     ecut=    45.00 Ry     beta= 0.30
     Davidson diagonalization with overlap
     ethr =  1.05E-07,  avg # of iterations =  1.0

     negative rho (up, down):  1.946E-01 1.465E-01

     total cpu time spent up to now is     1609.8 secs

     total energy              =  -20715.73367122 Ry
     estimated scf accuracy    <       0.00067249 Ry

     total magnetization       =   103.71 Bohr mag/cell
     absolute magnetization    =   110.80 Bohr mag/cell

     iteration # 50     ecut=    45.00 Ry     beta= 0.30
     Davidson diagonalization with overlap
     ethr =  7.19E-08,  avg # of iterations =  1.0

     negative rho (up, down):  1.946E-01 1.464E-01

     total cpu time spent up to now is     1638.5 secs

     total energy              =  -20715.73361709 Ry
     estimated scf accuracy    <       0.00105321 Ry

     total magnetization       =   103.68 Bohr mag/cell
     absolute magnetization    =   110.78 Bohr mag/cell

     iteration # 51     ecut=    45.00 Ry     beta= 0.30
     Davidson diagonalization with overlap
     ethr =  7.19E-08,  avg # of iterations =  1.0

     negative rho (up, down):  1.946E-01 1.464E-01

     total cpu time spent up to now is     1667.0 secs

     total energy              =  -20715.73367718 Ry
     estimated scf accuracy    <       0.00043477 Ry

     total magnetization       =   103.69 Bohr mag/cell
     absolute magnetization    =   110.79 Bohr mag/cell

     iteration # 52     ecut=    45.00 Ry     beta= 0.30
     Davidson diagonalization with overlap
     ethr =  4.65E-08,  avg # of iterations =  1.0

     negative rho (up, down):  1.946E-01 1.464E-01

     total cpu time spent up to now is     1695.7 secs

     total energy              =  -20715.73367800 Ry
     estimated scf accuracy    <       0.00020120 Ry

     total magnetization       =   103.68 Bohr mag/cell
     absolute magnetization    =   110.79 Bohr mag/cell

     iteration # 53     ecut=    45.00 Ry     beta= 0.30
     Davidson diagonalization with overlap
     ethr =  2.15E-08,  avg # of iterations =  1.0

     negative rho (up, down):  1.946E-01 1.465E-01

     total cpu time spent up to now is     1724.3 secs

     total energy              =  -20715.73370134 Ry
     estimated scf accuracy    <       0.00066848 Ry

     total magnetization       =   103.68 Bohr mag/cell
     absolute magnetization    =   110.78 Bohr mag/cell

     iteration # 54     ecut=    45.00 Ry     beta= 0.30
     Davidson diagonalization with overlap
     ethr =  2.15E-08,  avg # of iterations =  1.0

     negative rho (up, down):  1.946E-01 1.465E-01

     total cpu time spent up to now is     1753.0 secs

     total energy              =  -20715.73372770 Ry
     estimated scf accuracy    <       0.00024843 Ry

     total magnetization       =   103.67 Bohr mag/cell
     absolute magnetization    =   110.78 Bohr mag/cell

     iteration # 55     ecut=    45.00 Ry     beta= 0.30
     Davidson diagonalization with overlap
     ethr =  2.15E-08,  avg # of iterations =  1.0

     negative rho (up, down):  1.946E-01 1.465E-01

     total cpu time spent up to now is     1781.7 secs

     total energy              =  -20715.73371493 Ry
     estimated scf accuracy    <       0.00083839 Ry

     total magnetization       =   103.67 Bohr mag/cell
     absolute magnetization    =   110.78 Bohr mag/cell

     iteration # 56     ecut=    45.00 Ry     beta= 0.30
     Davidson diagonalization with overlap
     ethr =  2.15E-08,  avg # of iterations =  1.0

     negative rho (up, down):  1.946E-01 1.465E-01

     total cpu time spent up to now is     1810.4 secs

     total energy              =  -20715.73373029 Ry
     estimated scf accuracy    <       0.00071759 Ry

     total magnetization       =   103.67 Bohr mag/cell
     absolute magnetization    =   110.78 Bohr mag/cell

     iteration # 57     ecut=    45.00 Ry     beta= 0.30
     Davidson diagonalization with overlap
     ethr =  2.15E-08,  avg # of iterations =  1.0

     negative rho (up, down):  1.946E-01 1.465E-01

     total cpu time spent up to now is     1839.1 secs

     total energy              =  -20715.73374147 Ry
     estimated scf accuracy    <       0.00021911 Ry

     total magnetization       =   103.67 Bohr mag/cell
     absolute magnetization    =   110.78 Bohr mag/cell

     iteration # 58     ecut=    45.00 Ry     beta= 0.30
     Davidson diagonalization with overlap
     ethr =  2.15E-08,  avg # of iterations =  1.0

     negative rho (up, down):  1.946E-01 1.465E-01

     total cpu time spent up to now is     1867.7 secs

     total energy              =  -20715.73374166 Ry
     estimated scf accuracy    <       0.00026777 Ry

     total magnetization       =   103.66 Bohr mag/cell
     absolute magnetization    =   110.78 Bohr mag/cell

     iteration # 59     ecut=    45.00 Ry     beta= 0.30
     Davidson diagonalization with overlap
     ethr =  2.15E-08,  avg # of iterations =  1.0

     negative rho (up, down):  1.946E-01 1.466E-01

     total cpu time spent up to now is     1896.5 secs

     total energy              =  -20715.73375598 Ry
     estimated scf accuracy    <       0.00022553 Ry

     total magnetization       =   103.66 Bohr mag/cell
     absolute magnetization    =   110.77 Bohr mag/cell

     iteration # 60     ecut=    45.00 Ry     beta= 0.30
     Davidson diagonalization with overlap
     ethr =  2.15E-08,  avg # of iterations =  1.0

     negative rho (up, down):  1.946E-01 1.466E-01

     total cpu time spent up to now is     1925.1 secs

     total energy              =  -20715.73375390 Ry
     estimated scf accuracy    <       0.00016098 Ry

     total magnetization       =   103.66 Bohr mag/cell
     absolute magnetization    =   110.78 Bohr mag/cell

     iteration # 61     ecut=    45.00 Ry     beta= 0.30
     Davidson diagonalization with overlap
     ethr =  1.72E-08,  avg # of iterations =  1.0

     negative rho (up, down):  1.946E-01 1.466E-01

     total cpu time spent up to now is     1953.8 secs

     total energy              =  -20715.73376680 Ry
     estimated scf accuracy    <       0.00015727 Ry

     total magnetization       =   103.66 Bohr mag/cell
     absolute magnetization    =   110.78 Bohr mag/cell

     iteration # 62     ecut=    45.00 Ry     beta= 0.30
     Davidson diagonalization with overlap
     ethr =  1.68E-08,  avg # of iterations =  1.0

     negative rho (up, down):  1.946E-01 1.466E-01

     total cpu time spent up to now is     1982.3 secs

     total energy              =  -20715.73376595 Ry
     estimated scf accuracy    <       0.00004849 Ry

     total magnetization       =   103.65 Bohr mag/cell
     absolute magnetization    =   110.78 Bohr mag/cell

     iteration # 63     ecut=    45.00 Ry     beta= 0.30
     Davidson diagonalization with overlap
     ethr =  5.19E-09,  avg # of iterations =  2.0

     negative rho (up, down):  1.946E-01 1.466E-01

     total cpu time spent up to now is     2016.0 secs

     total energy              =  -20715.73376390 Ry
     estimated scf accuracy    <       0.00045787 Ry

     total magnetization       =   103.66 Bohr mag/cell
     absolute magnetization    =   110.78 Bohr mag/cell

     iteration # 64     ecut=    45.00 Ry     beta= 0.30
     Davidson diagonalization with overlap
     ethr =  5.19E-09,  avg # of iterations =  1.5

     negative rho (up, down):  1.946E-01 1.466E-01

     total cpu time spent up to now is     2047.0 secs

     total energy              =  -20715.73377965 Ry
     estimated scf accuracy    <       0.00008174 Ry

     total magnetization       =   103.65 Bohr mag/cell
     absolute magnetization    =   110.78 Bohr mag/cell

     iteration # 65     ecut=    45.00 Ry     beta= 0.30
     Davidson diagonalization with overlap
     ethr =  5.19E-09,  avg # of iterations =  1.0

     negative rho (up, down):  1.946E-01 1.466E-01

     total cpu time spent up to now is     2075.7 secs

     total energy              =  -20715.73377835 Ry
     estimated scf accuracy    <       0.00006887 Ry

     total magnetization       =   103.65 Bohr mag/cell
     absolute magnetization    =   110.78 Bohr mag/cell

     iteration # 66     ecut=    45.00 Ry     beta= 0.30
     Davidson diagonalization with overlap
     ethr =  5.19E-09,  avg # of iterations =  1.0

     negative rho (up, down):  1.946E-01 1.466E-01

     total cpu time spent up to now is     2104.5 secs

     total energy              =  -20715.73377873 Ry
     estimated scf accuracy    <       0.00019776 Ry

     total magnetization       =   103.65 Bohr mag/cell
     absolute magnetization    =   110.78 Bohr mag/cell

     iteration # 67     ecut=    45.00 Ry     beta= 0.30
     Davidson diagonalization with overlap
     ethr =  5.19E-09,  avg # of iterations =  1.0

     negative rho (up, down):  1.946E-01 1.466E-01

     total cpu time spent up to now is     2133.2 secs

     total energy              =  -20715.73378005 Ry
     estimated scf accuracy    <       0.00004973 Ry

     total magnetization       =   103.65 Bohr mag/cell
     absolute magnetization    =   110.77 Bohr mag/cell

     iteration # 68     ecut=    45.00 Ry     beta= 0.30
     Davidson diagonalization with overlap
     ethr =  5.19E-09,  avg # of iterations =  1.0

     negative rho (up, down):  1.946E-01 1.466E-01

     total cpu time spent up to now is     2162.0 secs

     total energy              =  -20715.73378426 Ry
     estimated scf accuracy    <       0.00006863 Ry

     total magnetization       =   103.65 Bohr mag/cell
     absolute magnetization    =   110.78 Bohr mag/cell

     iteration # 69     ecut=    45.00 Ry     beta= 0.30
     Davidson diagonalization with overlap
     ethr =  5.19E-09,  avg # of iterations =  1.0

     negative rho (up, down):  1.945E-01 1.467E-01

     total cpu time spent up to now is     2190.6 secs

     total energy              =  -20715.73378914 Ry
     estimated scf accuracy    <       0.00004697 Ry

     total magnetization       =   103.65 Bohr mag/cell
     absolute magnetization    =   110.78 Bohr mag/cell

     iteration # 70     ecut=    45.00 Ry     beta= 0.30
     Davidson diagonalization with overlap
     ethr =  5.02E-09,  avg # of iterations =  1.0

     negative rho (up, down):  1.945E-01 1.467E-01

     total cpu time spent up to now is     2219.3 secs

     total energy              =  -20715.73378855 Ry
     estimated scf accuracy    <       0.00002388 Ry

     total magnetization       =   103.64 Bohr mag/cell
     absolute magnetization    =   110.77 Bohr mag/cell

     iteration # 71     ecut=    45.00 Ry     beta= 0.30
     Davidson diagonalization with overlap
     ethr =  2.55E-09,  avg # of iterations =  1.0

     negative rho (up, down):  1.946E-01 1.467E-01

     total cpu time spent up to now is     2248.0 secs

     total energy              =  -20715.73378663 Ry
     estimated scf accuracy    <       0.00006296 Ry

     total magnetization       =   103.64 Bohr mag/cell
     absolute magnetization    =   110.77 Bohr mag/cell

     iteration # 72     ecut=    45.00 Ry     beta= 0.30
     Davidson diagonalization with overlap
     ethr =  2.55E-09,  avg # of iterations =  1.0

     negative rho (up, down):  1.945E-01 1.467E-01

     total cpu time spent up to now is     2276.8 secs

     total energy              =  -20715.73379173 Ry
     estimated scf accuracy    <       0.00001635 Ry

     total magnetization       =   103.64 Bohr mag/cell
     absolute magnetization    =   110.78 Bohr mag/cell

     iteration # 73     ecut=    45.00 Ry     beta= 0.30
     Davidson diagonalization with overlap
     ethr =  1.75E-09,  avg # of iterations =  1.0

     negative rho (up, down):  1.945E-01 1.467E-01

     total cpu time spent up to now is     2305.6 secs

     total energy              =  -20715.73378979 Ry
     estimated scf accuracy    <       0.00003696 Ry

     total magnetization       =   103.64 Bohr mag/cell
     absolute magnetization    =   110.77 Bohr mag/cell

     iteration # 74     ecut=    45.00 Ry     beta= 0.30
     Davidson diagonalization with overlap
     ethr =  1.75E-09,  avg # of iterations =  1.5

     negative rho (up, down):  1.945E-01 1.467E-01

     total cpu time spent up to now is     2336.6 secs

     total energy              =  -20715.73379052 Ry
     estimated scf accuracy    <       0.00007955 Ry

     total magnetization       =   103.64 Bohr mag/cell
     absolute magnetization    =   110.78 Bohr mag/cell

     iteration # 75     ecut=    45.00 Ry     beta= 0.30
     Davidson diagonalization with overlap
     ethr =  1.75E-09,  avg # of iterations =  1.0

     negative rho (up, down):  1.945E-01 1.467E-01

     total cpu time spent up to now is     2365.3 secs

     total energy              =  -20715.73379334 Ry
     estimated scf accuracy    <       0.00001906 Ry

     total magnetization       =   103.64 Bohr mag/cell
     absolute magnetization    =   110.77 Bohr mag/cell

     iteration # 76     ecut=    45.00 Ry     beta= 0.30
     Davidson diagonalization with overlap
     ethr =  1.75E-09,  avg # of iterations =  1.0

     negative rho (up, down):  1.945E-01 1.467E-01

     total cpu time spent up to now is     2393.9 secs

     total energy              =  -20715.73379256 Ry
     estimated scf accuracy    <       0.00005023 Ry

     total magnetization       =   103.64 Bohr mag/cell
     absolute magnetization    =   110.77 Bohr mag/cell

     iteration # 77     ecut=    45.00 Ry     beta= 0.30
     Davidson diagonalization with overlap
     ethr =  1.75E-09,  avg # of iterations =  1.0

     negative rho (up, down):  1.945E-01 1.467E-01

     total cpu time spent up to now is     2422.4 secs

     total energy              =  -20715.73379380 Ry
     estimated scf accuracy    <       0.00001409 Ry

     total magnetization       =   103.64 Bohr mag/cell
     absolute magnetization    =   110.77 Bohr mag/cell

     iteration # 78     ecut=    45.00 Ry     beta= 0.30
     Davidson diagonalization with overlap
     ethr =  1.51E-09,  avg # of iterations =  1.0

     negative rho (up, down):  1.945E-01 1.467E-01

     total cpu time spent up to now is     2451.1 secs

     total energy              =  -20715.73379465 Ry
     estimated scf accuracy    <       0.00001352 Ry

     total magnetization       =   103.64 Bohr mag/cell
     absolute magnetization    =   110.77 Bohr mag/cell

     iteration # 79     ecut=    45.00 Ry     beta= 0.30
     Davidson diagonalization with overlap
     ethr =  1.45E-09,  avg # of iterations =  1.0

     negative rho (up, down):  1.945E-01 1.467E-01

     total cpu time spent up to now is     2479.7 secs

     total energy              =  -20715.73379496 Ry
     estimated scf accuracy    <       0.00001333 Ry

     total magnetization       =   103.64 Bohr mag/cell
     absolute magnetization    =   110.77 Bohr mag/cell

     iteration # 80     ecut=    45.00 Ry     beta= 0.30
     Davidson diagonalization with overlap
     ethr =  1.43E-09,  avg # of iterations =  1.0

     negative rho (up, down):  1.945E-01 1.467E-01

     total cpu time spent up to now is     2508.5 secs

     total energy              =  -20715.73379596 Ry
     estimated scf accuracy    <       0.00000295 Ry

     total magnetization       =   103.64 Bohr mag/cell
     absolute magnetization    =   110.77 Bohr mag/cell

     iteration # 81     ecut=    45.00 Ry     beta= 0.30
     Davidson diagonalization with overlap
     ethr =  3.16E-10,  avg # of iterations =  1.0

     negative rho (up, down):  1.945E-01 1.467E-01

     total cpu time spent up to now is     2537.1 secs

     total energy              =  -20715.73379556 Ry
     estimated scf accuracy    <       0.00000911 Ry

     total magnetization       =   103.64 Bohr mag/cell
     absolute magnetization    =   110.77 Bohr mag/cell

     iteration # 82     ecut=    45.00 Ry     beta= 0.30
     Davidson diagonalization with overlap
     ethr =  3.16E-10,  avg # of iterations =  1.0

     negative rho (up, down):  1.945E-01 1.467E-01

     total cpu time spent up to now is     2565.7 secs

     total energy              =  -20715.73379663 Ry
     estimated scf accuracy    <       0.00000457 Ry

     total magnetization       =   103.64 Bohr mag/cell
     absolute magnetization    =   110.77 Bohr mag/cell

     iteration # 83     ecut=    45.00 Ry     beta= 0.30
     Davidson diagonalization with overlap
     ethr =  3.16E-10,  avg # of iterations =  1.0

     negative rho (up, down):  1.945E-01 1.467E-01

     total cpu time spent up to now is     2594.4 secs

     total energy              =  -20715.73379779 Ry
     estimated scf accuracy    <       0.00000558 Ry

     total magnetization       =   103.64 Bohr mag/cell
     absolute magnetization    =   110.77 Bohr mag/cell

     iteration # 84     ecut=    45.00 Ry     beta= 0.30
     Davidson diagonalization with overlap
     ethr =  3.16E-10,  avg # of iterations =  1.0

     negative rho (up, down):  1.945E-01 1.467E-01

     total cpu time spent up to now is     2623.0 secs

     total energy              =  -20715.73379709 Ry
     estimated scf accuracy    <       0.00000403 Ry

     total magnetization       =   103.63 Bohr mag/cell
     absolute magnetization    =   110.77 Bohr mag/cell

     iteration # 85     ecut=    45.00 Ry     beta= 0.30
     Davidson diagonalization with overlap
     ethr =  3.16E-10,  avg # of iterations =  1.5

     negative rho (up, down):  1.945E-01 1.467E-01

     total cpu time spent up to now is     2654.2 secs

     total energy              =  -20715.73379691 Ry
     estimated scf accuracy    <       0.00001151 Ry

     total magnetization       =   103.64 Bohr mag/cell
     absolute magnetization    =   110.77 Bohr mag/cell

     iteration # 86     ecut=    45.00 Ry     beta= 0.30
     Davidson diagonalization with overlap
     ethr =  3.16E-10,  avg # of iterations =  1.0

     negative rho (up, down):  1.945E-01 1.467E-01

     total cpu time spent up to now is     2682.8 secs

     total energy              =  -20715.73379681 Ry
     estimated scf accuracy    <       0.00002881 Ry

     total magnetization       =   103.64 Bohr mag/cell
     absolute magnetization    =   110.77 Bohr mag/cell

     iteration # 87     ecut=    45.00 Ry     beta= 0.30
     Davidson diagonalization with overlap
     ethr =  3.16E-10,  avg # of iterations =  1.0

     negative rho (up, down):  1.945E-01 1.467E-01

     total cpu time spent up to now is     2711.4 secs

     total energy              =  -20715.73379719 Ry
     estimated scf accuracy    <       0.00001342 Ry

     total magnetization       =   103.63 Bohr mag/cell
     absolute magnetization    =   110.77 Bohr mag/cell

     iteration # 88     ecut=    45.00 Ry     beta= 0.30
     Davidson diagonalization with overlap
     ethr =  3.16E-10,  avg # of iterations =  1.5

     negative rho (up, down):  1.945E-01 1.467E-01

     total cpu time spent up to now is     2742.4 secs

     total energy              =  -20715.73379756 Ry
     estimated scf accuracy    <       0.00002275 Ry

     total magnetization       =   103.63 Bohr mag/cell
     absolute magnetization    =   110.77 Bohr mag/cell

     iteration # 89     ecut=    45.00 Ry     beta= 0.30
     Davidson diagonalization with overlap
     ethr =  3.16E-10,  avg # of iterations =  1.0

     negative rho (up, down):  1.945E-01 1.467E-01

     total cpu time spent up to now is     2771.1 secs

     total energy              =  -20715.73379794 Ry
     estimated scf accuracy    <       0.00000538 Ry

     total magnetization       =   103.63 Bohr mag/cell
     absolute magnetization    =   110.77 Bohr mag/cell

     iteration # 90     ecut=    45.00 Ry     beta= 0.30
     Davidson diagonalization with overlap
     ethr =  3.16E-10,  avg # of iterations =  1.0

     negative rho (up, down):  1.945E-01 1.467E-01

     total cpu time spent up to now is     2799.8 secs

     total energy              =  -20715.73379837 Ry
     estimated scf accuracy    <       0.00000163 Ry

     total magnetization       =   103.63 Bohr mag/cell
     absolute magnetization    =   110.77 Bohr mag/cell

     iteration # 91     ecut=    45.00 Ry     beta= 0.30
     Davidson diagonalization with overlap
     ethr =  1.75E-10,  avg # of iterations =  1.0

     negative rho (up, down):  1.945E-01 1.467E-01

     total cpu time spent up to now is     2828.3 secs

     total energy              =  -20715.73379803 Ry
     estimated scf accuracy    <       0.00000126 Ry

     total magnetization       =   103.63 Bohr mag/cell
     absolute magnetization    =   110.77 Bohr mag/cell

     iteration # 92     ecut=    45.00 Ry     beta= 0.30
     Davidson diagonalization with overlap
     ethr =  1.35E-10,  avg # of iterations =  1.0

     negative rho (up, down):  1.945E-01 1.467E-01

     total cpu time spent up to now is     2857.0 secs

     total energy              =  -20715.73379824 Ry
     estimated scf accuracy    <       0.00000242 Ry

     total magnetization       =   103.63 Bohr mag/cell
     absolute magnetization    =   110.77 Bohr mag/cell

     iteration # 93     ecut=    45.00 Ry     beta= 0.30
     Davidson diagonalization with overlap
     ethr =  1.35E-10,  avg # of iterations =  1.0

     negative rho (up, down):  1.945E-01 1.467E-01

     Magnetic moment per site  (integrated on atomic sphere of radius R)
     atom   1 (R=0.053)  charge= 15.5083  magn=  1.7023
     atom   2 (R=0.052)  charge= 15.3231  magn=  1.7970
     atom   3 (R=0.052)  charge= 15.3237  magn=  1.7964
     atom   4 (R=0.052)  charge= 15.3223  magn=  1.7977
     atom   5 (R=0.052)  charge= 15.3230  magn=  1.7970
     atom   6 (R=0.052)  charge= 15.3231  magn=  1.7970
     atom   7 (R=0.052)  charge= 15.3237  magn=  1.7964
     atom   8 (R=0.052)  charge= 15.3223  magn=  1.7977
     atom   9 (R=0.052)  charge= 15.3230  magn=  1.7970
     atom  10 (R=0.052)  charge= 15.3231  magn=  1.7970
     atom  11 (R=0.052)  charge= 15.3237  magn=  1.7964
     atom  12 (R=0.052)  charge= 15.3223  magn=  1.7977
     atom  13 (R=0.052)  charge= 15.3230  magn=  1.7970
     atom  14 (R=0.052)  charge= 15.1667  magn=  1.9239
     atom  15 (R=0.052)  charge= 15.1861  magn=  1.8878
     atom  16 (R=0.052)  charge= 15.1670  magn=  1.9236
     atom  17 (R=0.052)  charge= 15.1668  magn=  1.9239
     atom  18 (R=0.052)  charge= 15.1857  magn=  1.8881
     atom  19 (R=0.052)  charge= 15.1668  magn=  1.9238
     atom  20 (R=0.052)  charge= 15.1667  magn=  1.9239
     atom  21 (R=0.052)  charge= 15.1861  magn=  1.8878
     atom  22 (R=0.052)  charge= 15.1670  magn=  1.9236
     atom  23 (R=0.052)  charge= 15.1668  magn=  1.9239
     atom  24 (R=0.052)  charge= 15.1857  magn=  1.8881
     atom  25 (R=0.052)  charge= 15.1668  magn=  1.9238
     atom  26 (R=0.052)  charge= 15.1667  magn=  1.9239
     atom  27 (R=0.052)  charge= 15.1861  magn=  1.8878
     atom  28 (R=0.052)  charge= 15.1670  magn=  1.9236
     atom  29 (R=0.052)  charge= 15.1668  magn=  1.9239
     atom  30 (R=0.052)  charge= 15.1857  magn=  1.8881
     atom  31 (R=0.052)  charge= 15.1668  magn=  1.9238
     atom  32 (R=0.052)  charge= 15.1885  magn=  1.8864
     atom  33 (R=0.052)  charge= 15.1884  magn=  1.8864
     atom  34 (R=0.052)  charge= 15.1880  magn=  1.8869
     atom  35 (R=0.052)  charge= 15.1883  magn=  1.8866
     atom  36 (R=0.052)  charge= 15.1882  magn=  1.8867
     atom  37 (R=0.052)  charge= 15.1884  magn=  1.8865
     atom  38 (R=0.052)  charge= 15.1878  magn=  1.8870
     atom  39 (R=0.052)  charge= 15.1880  magn=  1.8869
     atom  40 (R=0.052)  charge= 15.1885  magn=  1.8864
     atom  41 (R=0.052)  charge= 15.1884  magn=  1.8864
     atom  42 (R=0.052)  charge= 15.1880  magn=  1.8869
     atom  43 (R=0.052)  charge= 15.1883  magn=  1.8866
     atom  44 (R=0.052)  charge= 15.1882  magn=  1.8867
     atom  45 (R=0.052)  charge= 15.1884  magn=  1.8865
     atom  46 (R=0.052)  charge= 15.1878  magn=  1.8870
     atom  47 (R=0.052)  charge= 15.1880  magn=  1.8869
     atom  48 (R=0.052)  charge= 15.1885  magn=  1.8864
     atom  49 (R=0.052)  charge= 15.1884  magn=  1.8864
     atom  50 (R=0.052)  charge= 15.1880  magn=  1.8869
     atom  51 (R=0.052)  charge= 15.1883  magn=  1.8866
     atom  52 (R=0.052)  charge= 15.1882  magn=  1.8867
     atom  53 (R=0.052)  charge= 15.1884  magn=  1.8865
     atom  54 (R=0.052)  charge= 15.1878  magn=  1.8870
     atom  55 (R=0.052)  charge= 15.1880  magn=  1.8869

     total cpu time spent up to now is     2885.7 secs

     End of self-consistent calculation

 ------ SPIN UP ------------


          k = 0.0000 0.0000 0.0000 (216895 PWs)   bands (ev):

   -98.4161 -98.3979 -98.3978 -98.3977 -98.3835 -98.3834 -98.3833 -98.3832
   -98.3831 -98.3778 -98.3777 -98.3776 -98.2799 -98.0590 -98.0558 -98.0557
   -98.0556 -98.0504 -98.0503 -98.0502 -98.0500 -98.0498 -98.0459 -98.0456
   -98.0455 -98.0455 -98.0367 -98.0367 -98.0366 -98.0364 -98.0358 -98.0357
   -98.0357 -98.0324 -98.0323 -98.0323 -98.0322 -98.0322 -98.0321 -98.0320
   -98.0320 -98.0320 -98.0318 -97.9674 -97.9674 -97.9672 -97.9672 -97.9671
   -97.9671 -97.9670 -97.9668 -97.9665 -97.9664 -97.9663 -97.9658 -61.8094
   -61.8093 -61.8093 -61.7649 -61.7621 -61.7620 -61.7620 -61.7619 -61.7568
   -61.7567 -61.7563 -61.7562 -61.7562 -61.6852 -61.6852 -61.6851 -61.6843
   -61.6843 -61.6840 -61.6839 -61.6838 -61.6769 -61.6769 -61.6768 -61.6764
   -61.6485 -61.6484 -61.6484 -61.6399 -61.6399 -61.6399 -61.6388 -61.6387
   -61.5985 -61.5984 -61.5984 -61.5273 -61.5272 -61.5272 -61.4755 -61.4693
   -61.4693 -61.4693 -61.4692 -61.4691 -61.4649 -61.4649 -61.4648 -61.4492
   -61.4492 -61.4491 -61.4184 -61.3966 -61.3966 -61.3966 -61.3913 -61.3913
   -61.3912 -61.3912 -61.3911 -61.3832 -61.3831 -61.3830 -61.3808 -61.3802
   -61.3802 -61.3802 -61.3766 -61.3762 -61.3761 -61.3761 -61.3732 -61.3731
   -61.3730 -61.3730 -61.3730 -61.3722 -61.3721 -61.3720 -61.3720 -61.3720
   -61.3473 -61.3472 -61.3472 -61.3348 -61.3343 -61.3342 -61.3341 -61.3201
   -61.3200 -61.3200 -61.3171 -61.3171 -61.3170 -61.3007 -61.3006 -61.3000
   -61.3000 -61.2999 -61.2925 -61.2924 -61.2922 -61.2921 -61.2921 -61.2830
   -61.2825 -61.2825 -61.2824 -61.2654 -61.2654 -61.2653 -61.2651 -61.2651
   -61.2650 -61.2649 -61.2328 -61.2328 -61.2326 -61.2318 -61.2318 -61.2317
   -61.2316 -61.2315 -61.2239 -61.2238 -61.2236 -61.2235 -61.1979 -61.1978
   -61.1977 -61.1916 -61.1914 -61.1906 -61.1905 -61.1904 -61.1884 -61.1883
   -61.1883 -61.1828 -61.1827 -61.1826 -61.1163 -61.1158 -61.1157 -61.1156
   -61.1119 -61.1118 -61.1117 -61.1114 -61.1112 -61.0969 -61.0969 -61.0968
   -61.0962 -61.0930 -61.0929 -61.0928 -61.0899 -61.0898 -61.0897 -61.0897
   -61.0896 -61.0823 -61.0823 -61.0822 -10.3312  -9.0464  -9.0464  -9.0463
    -7.8492  -7.8491  -7.8490  -7.8443  -7.8443  -7.5671  -7.2711  -7.2711
    -7.2711  -7.1244  -7.0402  -7.0402  -7.0401  -7.0388  -7.0387  -6.8661
    -6.8625  -6.8624  -6.8624  -6.8153  -6.8152  -6.8152  -6.7758  -6.7705
    -6.7705  -6.7704  -6.6128  -6.6128  -6.6127  -6.6079  -6.6079  -6.6078
    -6.3384  -6.3383  -6.3383  -6.3343  -6.3343  -6.2866  -6.2866  -6.2866
    -6.2825  -6.1770  -6.1770  -6.1769  -6.1768  -6.1767  -6.1559  -6.1559
    -6.1559  -6.1539  -5.8673  -5.8672  -5.8672  -5.8110  -5.8109  -5.8107
    -5.8107  -5.8106  -5.7732  -5.6403  -5.6403  -5.6374  -5.6374  -5.6374
    -5.5678  -5.5677  -5.5676  -5.4011  -5.4011  -5.4010  -5.4003  -5.4003
    -5.2429  -5.2428  -5.2428  -5.2382  -5.2382  -5.2382  -5.2310  -5.2309
    -5.2008  -5.2008  -5.2007  -5.1710  -5.1691  -5.1691  -5.1690  -5.0320
    -5.0319  -5.0261  -5.0261  -5.0260  -5.0231  -5.0231  -5.0230  -4.9491
    -4.9490  -4.9490  -4.9417  -4.9417  -4.9412  -4.9408  -4.9408  -4.9229
    -4.9179  -4.9179  -4.9178  -4.8403  -4.8403  -4.8402  -4.8379  -4.8378
    -4.7467  -4.7467  -4.7466  -4.7450  -4.7104  -4.7103  -4.7103  -4.6633
    -4.6606  -4.6606  -4.6605  -4.6154  -4.6154  -4.6154  -4.6131  -4.5808
    -4.4937  -4.4937  -4.4936  -4.4933  -4.4933  -4.4692  -4.4691  -4.4691
    -4.4089  -4.4088  -4.4088  -4.4081  -4.4033  -4.4033  -4.4032  -4.3467
    -4.3467  -4.3466  -4.3457  -4.3456  -4.2985  -4.2944  -4.2944  -4.2944
    -4.2576  -4.2576  -4.2576  -4.1740  -4.1740  -4.1740  -4.1643  -4.1641
    -4.1631  -4.1630  -4.1629  -4.1557  -4.1556  -4.1555  -4.1252  -4.1252
    -4.1252  -4.1205  -4.1205  -4.0275  -4.0275  -4.0275  -4.0237  -3.9829
    -3.9829  -3.9829  -3.9751  -3.9751  -3.9723  -3.9655  -3.9655  -3.9655
    -3.7835  -3.7834  -3.7834  -3.6984  -3.6983  -3.6953  -3.6952  -3.6951
    -3.6859  -3.6858  -3.6857  -3.6838  -3.6566  -3.6565  -3.6564  -3.6541
    -3.6540  -3.6285  -3.6284  -3.6284  -3.6266  -3.6264  -3.6243  -3.6242
    -3.6242  -3.6043  -3.6034  -3.6033  -3.6033  -3.6001  -3.6000  -3.5999
    -3.5858  -3.5857  -3.5857  -3.5546  -3.5546  -3.5546  -3.3388  -3.3387
    -3.3369  -3.3369  -3.3368  -3.3161  -3.3161  -3.3160  -3.3119  -3.3118
    -3.3108  -3.3107  -3.3106  -3.3032  -3.2872  -3.2872  -3.2871  -3.2853
    -3.2772  -3.2772  -3.2772  -3.2412  -3.2411  -3.2411  -3.1586  -3.1582
    -3.1581  -3.1575  -3.1564  -3.1563  -3.1558  -3.1555  -3.1554  -3.1268
    -3.1267  -3.1245  -3.1244  -3.1244  -3.1150  -3.1149  -3.1149  -3.0122
    -3.0122  -3.0121  -3.0102  -2.9047  -2.9046  -2.9046  -2.8841  -2.8840
    -2.8840  -2.8033  -2.8032  -2.8023  -2.8023  -2.8023  -2.7825  -2.7800
    -2.7799  -2.7799  -2.7269  -2.6937  -2.6936  -2.6936  -2.6919  -2.6918
    -2.4439  -2.4438  -2.4437  -1.9667  -1.9666  -1.9666  -1.9655  -1.9654
    -1.3523  -1.3522  -1.3522  -1.3479  -1.0918  -0.8639  -0.8637  -0.8612
    -0.8611  -0.8610  -0.6824  -0.6823  -0.6823   0.0467   0.0467   0.0467
     0.3172   0.3173   0.3181   0.3182   0.3183   0.4317   0.4318   0.4318
     0.6255   0.6255   0.6255   0.6469   0.6561   0.6561   0.6562   0.9705
     0.9706   0.9706   1.2991   1.3972   1.3973   1.5579   1.5580   1.5581
     1.7934   1.7937

 ------ SPIN DOWN ----------


          k = 0.0000 0.0000 0.0000 (216895 PWs)   bands (ev):

   -96.2274 -96.1915 -96.1914 -96.1914 -96.1760 -96.1760 -96.1759 -96.1757
   -96.1756 -96.1699 -96.1699 -96.1698 -96.1651 -95.7923 -95.7886 -95.7885
   -95.7884 -95.7828 -95.7828 -95.7827 -95.7818 -95.7816 -95.7778 -95.7772
   -95.7771 -95.7771 -95.7679 -95.7679 -95.7679 -95.7669 -95.7668 -95.7667
   -95.7665 -95.7633 -95.7632 -95.7631 -95.7630 -95.7629 -95.7625 -95.7623
   -95.7623 -95.7622 -95.7621 -95.6994 -95.6993 -95.6992 -95.6991 -95.6991
   -95.6990 -95.6989 -95.6988 -95.6984 -95.6982 -95.6981 -95.6976 -59.7149
   -59.7149 -59.7148 -59.6346 -59.6114 -59.6112 -59.6112 -59.6110 -59.6109
   -59.6102 -59.6096 -59.6096 -59.6095 -59.5352 -59.5351 -59.5350 -59.5310
   -59.5310 -59.5309 -59.5300 -59.5300 -59.5188 -59.5188 -59.5187 -59.5176
   -59.4909 -59.4909 -59.4909 -59.4806 -59.4805 -59.4805 -59.4800 -59.4799
   -59.4411 -59.4411 -59.4410 -59.4147 -59.4147 -59.4146 -59.1879 -59.1878
   -59.1878 -59.1775 -59.1775 -59.1774 -59.1763 -59.1757 -59.1757 -59.1756
   -59.1755 -59.1754 -59.1748 -59.1748 -59.1746 -59.1626 -59.1626 -59.1625
   -59.1549 -59.1549 -59.1549 -59.1519 -59.1327 -59.1327 -59.1326 -59.1315
   -59.1300 -59.1300 -59.1300 -59.1299 -59.1299 -59.1298 -59.1287 -59.1287
   -59.1287 -59.1269 -59.1269 -59.1268 -59.1259 -59.1258 -59.1124 -59.1123
   -59.1123 -59.1092 -59.1091 -59.1091 -59.1058 -59.1058 -59.1057 -59.1050
   -59.1049 -59.1018 -59.1016 -59.1016 -59.1015 -59.1001 -59.0999 -59.0994
   -59.0993 -59.0993 -59.0927 -59.0926 -59.0926 -59.0925 -59.0924 -59.0917
   -59.0917 -59.0917 -59.0909 -59.0807 -59.0803 -59.0803 -59.0803 -59.0592
   -59.0592 -59.0591 -59.0551 -59.0550 -59.0549 -59.0492 -59.0490 -59.0489
   -59.0488 -59.0383 -59.0383 -59.0382 -59.0381 -59.0380 -59.0100 -59.0099
   -59.0099 -59.0032 -59.0030 -59.0025 -59.0024 -59.0023 -58.9997 -58.9996
   -58.9996 -58.9960 -58.9959 -58.9958 -58.9696 -58.9689 -58.9689 -58.9688
   -58.9640 -58.9640 -58.9639 -58.9637 -58.9635 -58.9438 -58.9437 -58.9436
   -58.9431 -58.9384 -58.9384 -58.9383 -58.9347 -58.9345 -58.9345 -58.9345
   -58.9344 -58.9248 -58.9248 -58.9247 -10.2511  -8.9336  -8.9336  -8.9335
    -7.5732  -7.5731  -7.5730  -7.5675  -7.5675  -7.1433  -6.5701  -6.5701
    -6.5700  -6.1561  -6.1517  -6.1516  -6.1516  -6.0853  -5.9706  -5.9705
    -5.9704  -5.9356  -5.9356  -5.9355  -5.9340  -5.9339  -5.6222  -5.6195
    -5.6195  -5.6194  -5.4637  -5.4637  -5.4637  -5.3936  -5.3936  -5.3935
    -5.1894  -5.1893  -5.1893  -5.1880  -5.1879  -4.9591  -4.9590  -4.9590
    -4.9562  -4.8908  -4.8908  -4.8898  -4.8897  -4.8896  -4.8208  -4.8208
    -4.8208  -4.8187  -4.5927  -4.4648  -4.4648  -4.4647  -4.4612  -4.4612
    -4.4196  -4.4195  -4.4195  -4.2988  -4.2987  -4.2986  -4.0651  -4.0651
    -4.0625  -4.0625  -4.0624  -4.0276  -4.0275  -4.0275  -4.0239  -4.0238
    -3.9647  -3.9647  -3.9646  -3.8337  -3.8336  -3.8336  -3.8287  -3.8286
    -3.6568  -3.6568  -3.6567  -3.6331  -3.6331  -3.6331  -3.6021  -3.5960
    -3.5959  -3.5959  -3.3311  -3.3311  -3.3310  -3.3307  -3.3307  -3.3298
    -3.3298  -3.3218  -3.3217  -3.3216  -3.2790  -3.2788  -3.2788  -3.2757
    -3.2757  -3.2757  -3.2756  -3.2674  -3.2674  -3.2193  -3.2193  -3.2192
    -3.1500  -3.1500  -3.1499  -3.1477  -3.1415  -3.1415  -3.1415  -3.0395
    -3.0394  -3.0394  -3.0363  -3.0052  -2.8613  -2.8612  -2.8612  -2.8584
    -2.8313  -2.8313  -2.8312  -2.8251  -2.8250  -2.8250  -2.8231  -2.8231
    -2.7477  -2.7477  -2.7476  -2.7011  -2.7002  -2.7002  -2.7002  -2.6299
    -2.6299  -2.6298  -2.6295  -2.6293  -2.6044  -2.5989  -2.5989  -2.5989
    -2.4899  -2.4899  -2.4899  -2.4320  -2.4320  -2.4320  -2.3979  -2.3978
    -2.3978  -2.3932  -2.3768  -2.3766  -2.3647  -2.3646  -2.3646  -2.3542
    -2.3541  -2.3541  -2.3422  -2.3420  -2.3230  -2.3230  -2.3229  -2.2341
    -2.2276  -2.2275  -2.2275  -2.1406  -2.1405  -2.1405  -2.1338  -2.1337
    -2.0785  -2.0785  -2.0785  -1.9041  -1.9041  -1.9040  -1.9010  -1.7850
    -1.7850  -1.7849  -1.7526  -1.7525  -1.7524  -1.7523  -1.7522  -1.7507
    -1.7507  -1.7506  -1.7501  -1.7500  -1.7322  -1.6311  -1.6311  -1.6310
    -1.5673  -1.5646  -1.5645  -1.5645  -1.5050  -1.5049  -1.5007  -1.5007
    -1.5007  -1.4862  -1.4862  -1.4862  -1.4791  -1.4581  -1.4581  -1.4580
    -1.4043  -1.4043  -1.4043  -1.4018  -1.4017  -1.4017  -1.4015  -1.4015
    -1.4015  -1.3483  -1.3482  -1.3470  -1.3469  -1.3469  -1.3467  -1.3467
    -1.3466  -1.3465  -1.3465  -1.3267  -1.3267  -1.3266  -1.2381  -1.2328
    -1.2328  -1.2328  -1.2064  -1.2064  -1.2063  -1.2044  -1.2044  -1.1751
    -1.1751  -1.1750  -1.0482  -1.0454  -1.0454  -1.0454  -1.0371  -1.0370
    -1.0370  -1.0367  -1.0366  -0.9604  -0.9603  -0.9603  -0.9577  -0.9362
    -0.9361  -0.9361  -0.9146  -0.9146  -0.9145  -0.8404  -0.8404  -0.8403
    -0.8323  -0.8323  -0.8322  -0.8321  -0.8321  -0.7657  -0.7657  -0.7656
    -0.7644  -0.7644  -0.6601  -0.6601  -0.6601  -0.6600  -0.6600  -0.5685
    -0.2311  -0.2310  -0.2310  -0.2267  -0.1318  -0.1318  -0.1317  -0.0951
     0.0920   0.0921   0.1056   0.1057   0.1058   0.7886   0.7886   0.7887
     1.1758   1.1758   1.1759   1.1774   1.1775   1.2806   1.2806   1.2807
     1.3146   1.3146   1.3147   1.3387   1.3836   1.3838   1.3838   1.3969
     1.6163   1.6164   1.6164   1.7046   1.7046   1.9272   1.9272   1.9273
     2.0252   2.0636

     the Fermi energy is    -1.8608 ev

!    total energy              =  -20715.73379826 Ry
     total all-electron energy =    -20715.733798 Ry
     estimated scf accuracy    <       0.00000070 Ry
     smearing contrib. (-TS)   =      -0.04161322 Ry
     internal energy E=F+TS    =  -20715.69218504 Ry

     The total energy is F=E-TS. E is the sum of the following terms:
     one-electron contribution =  -96334.54849540 Ry
     hartree contribution      =   47276.87431247 Ry
     xc contribution           =   -1536.66800861 Ry
     ewald contribution        =   34014.50012171 Ry
     one-center paw contrib.   =   -4135.85011521 Ry

     total magnetization       =   103.63 Bohr mag/cell
     absolute magnetization    =   110.77 Bohr mag/cell

     convergence has been achieved in  93 iterations

     negative rho (up, down):  1.945E-01 1.467E-01

     Forces acting on atoms (cartesian axes, Ry/au):

     atom    1 type  1   force =    -0.00098809   -0.00098809   -0.00098809
     atom    2 type  2   force =    -0.00034593   -0.00056225    0.00088799
     atom    3 type  2   force =     0.00023447   -0.00010918   -0.00126070
     atom    4 type  2   force =     0.00071993   -0.00052426    0.00157413
     atom    5 type  2   force =     0.00016426   -0.00069642   -0.00228851
     atom    6 type  2   force =     0.00088799   -0.00034593   -0.00056225
     atom    7 type  2   force =    -0.00126070    0.00023447   -0.00010918
     atom    8 type  2   force =     0.00157413    0.00071993   -0.00052426
     atom    9 type  2   force =    -0.00228851    0.00016426   -0.00069642
     atom   10 type  2   force =    -0.00056225    0.00088799   -0.00034593
     atom   11 type  2   force =    -0.00010918   -0.00126070    0.00023447
     atom   12 type  2   force =    -0.00052426    0.00157413    0.00071993
     atom   13 type  2   force =    -0.00069642   -0.00228851    0.00016426
     atom   14 type  3   force =     0.00405394   -0.00014686   -0.00179249
     atom   15 type  3   force =     0.00813757    0.00000006   -0.00018819
     atom   16 type  3   force =     0.00425746    0.00027374    0.00204282
     atom   17 type  3   force =    -0.00332644    0.00000360   -0.00152063
     atom   18 type  3   force =    -0.00742677   -0.00022861   -0.00029527
     atom   19 type  3   force =    -0.00393157   -0.00020399    0.00182520
     atom   20 type  3   force =    -0.00179249    0.00405394   -0.00014686
     atom   21 type  3   force =    -0.00018819    0.00813757    0.00000006
     atom   22 type  3   force =     0.00204282    0.00425746    0.00027374
     atom   23 type  3   force =    -0.00152063   -0.00332644    0.00000360
     atom   24 type  3   force =    -0.00029527   -0.00742677   -0.00022861
     atom   25 type  3   force =     0.00182520   -0.00393157   -0.00020399
     atom   26 type  3   force =    -0.00014686   -0.00179249    0.00405394
     atom   27 type  3   force =     0.00000006   -0.00018819    0.00813757
     atom   28 type  3   force =     0.00027374    0.00204282    0.00425746
     atom   29 type  3   force =     0.00000360   -0.00152063   -0.00332644
     atom   30 type  3   force =    -0.00022861   -0.00029527   -0.00742677
     atom   31 type  3   force =    -0.00020399    0.00182520   -0.00393157
     atom   32 type  3   force =     0.00338629   -0.00236317    0.00725256
     atom   33 type  3   force =     0.00373168    0.00261867    0.00728809
     atom   34 type  3   force =     0.00322572   -0.00247144   -0.00662740
     atom   35 type  3   force =     0.00345929    0.00200775   -0.00693844
     atom   36 type  3   force =    -0.00339572   -0.00267490    0.00682201
     atom   37 type  3   force =    -0.00353759    0.00225880    0.00714661
     atom   38 type  3   force =    -0.00312887   -0.00224309   -0.00625066
     atom   39 type  3   force =    -0.00343980    0.00207276   -0.00653818
     atom   40 type  3   force =     0.00725256    0.00338629   -0.00236317
     atom   41 type  3   force =     0.00728809    0.00373168    0.00261867
     atom   42 type  3   force =    -0.00662740    0.00322572   -0.00247144
     atom   43 type  3   force =    -0.00693844    0.00345929    0.00200775
     atom   44 type  3   force =     0.00682201   -0.00339572   -0.00267490
     atom   45 type  3   force =     0.00714661   -0.00353759    0.00225880
     atom   46 type  3   force =    -0.00625066   -0.00312887   -0.00224309
     atom   47 type  3   force =    -0.00653818   -0.00343980    0.00207276
     atom   48 type  3   force =    -0.00236317    0.00725256    0.00338629
     atom   49 type  3   force =     0.00261867    0.00728809    0.00373168
     atom   50 type  3   force =    -0.00247144   -0.00662740    0.00322572
     atom   51 type  3   force =     0.00200775   -0.00693844    0.00345929
     atom   52 type  3   force =    -0.00267490    0.00682201   -0.00339572
     atom   53 type  3   force =     0.00225880    0.00714661   -0.00353759
     atom   54 type  3   force =    -0.00224309   -0.00625066   -0.00312887
     atom   55 type  3   force =     0.00207276   -0.00653818   -0.00343980

     Total force =     0.046588     Total SCF correction =     0.004959
     SCF correction compared to forces is large: reduce conv_thr to get better values


     Computing stress (Cartesian axis) and pressure


     negative rho (up, down):  1.945E-01 1.467E-01
          total   stress  (Ry/bohr**3)                   (kbar)     P=       -0.48
  -0.00000324   0.00000000   0.00000000           -0.48        0.00        0.00
   0.00000000  -0.00000324   0.00000000            0.00       -0.48        0.00
   0.00000000   0.00000000  -0.00000324            0.00        0.00       -0.48


     Writing all to output data dir .out_Co2/Co2.save/ :
     XML data file, charge density, pseudopotentials, collected wavefunctions

     init_run     :     21.39s CPU     21.65s WALL (       1 calls)
     electrons    :   2841.99s CPU   2862.53s WALL (       1 calls)
     forces       :      7.48s CPU      7.56s WALL (       1 calls)
     stress       :    163.67s CPU    163.97s WALL (       1 calls)

     Called by init_run:
     wfcinit      :     18.71s CPU     18.86s WALL (       1 calls)
     potinit      :      0.81s CPU      0.85s WALL (       1 calls)
     hinit0       :      0.63s CPU      0.65s WALL (       1 calls)

     Called by electrons:
     c_bands      :   2364.04s CPU   2375.18s WALL (      93 calls)
     sum_band     :    355.55s CPU    361.84s WALL (      93 calls)
     v_of_rho     :      9.48s CPU      9.52s WALL (      94 calls)
     newd         :     44.65s CPU     47.53s WALL (      94 calls)
     PAW_pot      :     65.34s CPU     65.37s WALL (      94 calls)
     mix_rho      :      3.60s CPU      3.61s WALL (      93 calls)

     Called by c_bands:
     init_us_2    :     15.56s CPU     15.59s WALL (     378 calls)
     cegterg      :   2326.75s CPU   2337.59s WALL (     186 calls)

     Called by *egterg:
     cdiaghg      :    275.30s CPU    275.53s WALL (     589 calls)
     h_psi        :   1040.43s CPU   1044.84s WALL (     591 calls)
     s_psi        :    245.07s CPU    245.10s WALL (     591 calls)
     g_psi        :      2.15s CPU      2.16s WALL (     403 calls)

     Called by h_psi:
     h_psi:calbec :    265.44s CPU    265.46s WALL (     591 calls)
     vloc_psi     :    526.65s CPU    528.20s WALL (     591 calls)
     add_vuspsi   :    245.04s CPU    245.06s WALL (     591 calls)

     General routines
     calbec       :    400.95s CPU    400.98s WALL (     787 calls)
     fft          :      6.71s CPU      6.76s WALL (    2016 calls)
     ffts         :      0.44s CPU      0.45s WALL (     186 calls)
     fftw         :    607.85s CPU    609.56s WALL (  532740 calls)

     Parallel routines

     PWSCF        :  50m39.00s CPU  51m14.78s WALL


   This run was terminated on:  15: 4: 6   1Apr2025            

=------------------------------------------------------------------------------=
   JOB DONE.
=------------------------------------------------------------------------------=
