
     Program PWSCF v.7.3 starts on 17Oct2024 at 14:12:13 

     This program is part of the open-source Quantum ESPRESSO suite
     for quantum simulation of materials; please cite
         "P. Giannozzi et al., J. Phys.:Condens. Matter 21 395502 (2009);
         "P. Giannozzi et al., J. Phys.:Condens. Matter 29 465901 (2017);
         "P. Giannozzi et al., J. Chem. Phys. 152 154105 (2020);
          URL http://www.quantum-espresso.org", 
     in publications or presentations arising from this work. More details at
     http://www.quantum-espresso.org/quote

     Parallel version (MPI), running on    24 processors

     MPI processes distributed on     1 nodes
     56312 MiB available memory on the printing compute node when the environment starts

     Reading input from ht_afm_qe.opt.in
Warning: card &CELL ignored
Warning: card / ignored

     Current dimensions of program PWSCF are:
     Max number of different atomic species (ntypx) = 10
     Max number of k-points (npk) =  40000
     Max angular momentum in pseudopotentials (lmaxx) =  4
read_pp_mesh; mismatch in mesh size, discarding the one in header
read_pp_mesh; mismatch in mesh size, discarding the one in header
read_pp_mesh; mismatch in mesh size, discarding the one in header
     file Cr.GGA-PBE-paw.UPF: wavefunction(s)  3S 4S 3P 4P 3D 4D renormalized
     file I.GGA-PBE-paw.UPF: wavefunction(s)  6S 6P renormalized
     file Cr.GGA-PBE-paw.UPF: wavefunction(s)  3S 4S 3P 4P 3D 4D renormalized

     IMPORTANT: XC functional enforced from input :
     Exchange-correlation= OPTB86B
                           (   1   4  24   1   0   0   0)
     Any further DFT definition will be discarded
     Please, verify this is what you really want

     Message from routine setup:
     using ibrav=0 with symmetry is DISCOURAGED, use correct ibrav instead

     R & G space division:  proc/nbgrp/npool/nimage =      24
     Subspace diagonalization in iterative solution of the eigenvalue problem:
     a serial algorithm will be used


     Parallelization info
     --------------------
     sticks:   dense  smooth     PW     G-vecs:    dense   smooth      PW
     Min         179     174     46                38065    36532    5046
     Max         180     175     47                38082    36557    5059
     Sum        4303    4189   1123               913669   876961  121297

     Using Slab Decomposition



     bravais-lattice index     =            0
     lattice parameter (alat)  =      12.9956  a.u.
     unit-cell volume          =    7602.9282 (a.u.)^3
     number of atoms/cell      =           16
     number of atomic types    =            3
     number of electrons       =       140.00 (up:  70.00, down:  70.00)
     number of Kohn-Sham states=          100
     kinetic-energy cutoff     =      90.0000  Ry
     charge density cutoff     =     370.0000  Ry
     scf convergence threshold =      1.0E-09
     mixing beta               =       0.5000
     number of iterations used =            8  plain     mixing
     energy convergence thresh.=      1.0E-04
     force convergence thresh. =      1.0E-03
     Exchange-correlation= OPTB86B
                           (   1   4  24   1   0   0   0)
     nstep                     =           50


     celldm(1)=  12.995613  celldm(2)=   0.000000  celldm(3)=   0.000000
     celldm(4)=   0.000000  celldm(5)=   0.000000  celldm(6)=   0.000000

     crystal axes: (cart. coord. in units of alat)
               a(1) = (   1.000000  -0.000000   0.000000 )  
               a(2) = (  -0.500000   0.866025   0.000000 )  
               a(3) = (  -0.000000   0.000000   4.000000 )  

     reciprocal axes: (cart. coord. in units 2 pi/alat)
               b(1) = (  1.000000  0.577350  0.000000 )  
               b(2) = (  0.000000  1.154701  0.000000 )  
               b(3) = ( -0.000000 -0.000000  0.250000 )  


     PseudoPot. # 1 for Cr read from file:
     ../Cr.GGA-PBE-paw.UPF
     MD5 check sum: 389087661106aa6caf57455f2e439c97
     Pseudo is Projector augmented-wave + core cor, Zval = 14.0
     Generated using ATOMPAW code
     Shape of augmentation charge: SINC**2
     Using radial grid of 2342 points,  6 beta functions with: 
                l(1) =   0
                l(2) =   0
                l(3) =   1
                l(4) =   1
                l(5) =   2
                l(6) =   2
     Q(r) pseudized with 0 coefficients 


     PseudoPot. # 2 for I  read from file:
     ../I.GGA-PBE-paw.UPF
     MD5 check sum: 736bb4145856fa7ed29d0984862794a4
     Pseudo is Projector augmented-wave + core cor, Zval =  7.0
     Generated using ATOMPAW code
     Shape of augmentation charge: SINC**2
     Using radial grid of 2342 points,  4 beta functions with: 
                l(1) =   0
                l(2) =   0
                l(3) =   1
                l(4) =   1
     Q(r) pseudized with 0 coefficients 


     PseudoPot. # 3 for Cr read from file:
     ../Cr.GGA-PBE-paw.UPF
     MD5 check sum: 389087661106aa6caf57455f2e439c97
     Pseudo is Projector augmented-wave + core cor, Zval = 14.0
     Generated using ATOMPAW code
     Shape of augmentation charge: SINC**2
     Using radial grid of 2342 points,  6 beta functions with: 
                l(1) =   0
                l(2) =   0
                l(3) =   1
                l(4) =   1
                l(5) =   2
                l(6) =   2
     Q(r) pseudized with 0 coefficients 


     atomic species   valence    mass     pseudopotential
     Cr               14.00    51.99610     Cr( 1.00)
     I                 7.00   126.90447     I ( 1.00)
     Cr1              14.00    51.99610     Cr( 1.00)

     Starting magnetic structure 
     atomic species   magnetization
     Cr              0.214
     I               0.000
     Cr1            -0.214

      2 Sym. Ops. (no inversion) found



   Cartesian axes

     site n.     atom                  positions (alat units)
         1        Cr     tau(   1) = (   0.8333333   0.2886751   2.2705038  )
         2        Cr     tau(   2) = (   0.3333333   0.5773503   2.2705039  )
         3        I      tau(   3) = (   0.9764357  -0.0000019   2.0449365  )
         4        I      tau(   4) = (   0.5117805   0.3090834   2.0449365  )
         5        I      tau(   5) = (   0.0117838   0.5569439   2.0449365  )
         6        I      tau(   6) = (   0.6902310  -0.0000017   2.4960710  )
         7        I      tau(   7) = (   0.6548831   0.5569438   2.4960710  )
         8        I      tau(   8) = (   0.1548859   0.3090833   2.4960710  )
         9        Cr1    tau(   9) = (   0.5000000   0.2886751   1.3133332  )
        10        Cr1    tau(  10) = (   0.0000000   0.5773503   1.3133333  )
        11        I      tau(  11) = (   0.6431024  -0.0000019   1.0877658  )
        12        I      tau(  12) = (   0.1784472   0.3090834   1.0877658  )
        13        I      tau(  13) = (  -0.3215495   0.5569439   1.0877658  )
        14        I      tau(  14) = (   0.3568977  -0.0000017   1.5389004  )
        15        I      tau(  15) = (   0.3215497   0.5569438   1.5389004  )
        16        I      tau(  16) = (  -0.1784474   0.3090833   1.5389004  )

     number of k points=    13
                       cart. coord. in units 2pi/alat
        k(    1) = (   0.0000000   0.0000000   0.0000000), wk =   0.0277778
        k(    2) = (   0.0000000   0.1924501   0.0000000), wk =   0.0555556
        k(    3) = (   0.0000000   0.3849002   0.0000000), wk =   0.0555556
        k(    4) = (   0.0000000  -0.5773503   0.0000000), wk =   0.0277778
        k(    5) = (   0.1666667   0.2886751   0.0000000), wk =   0.1111111
        k(    6) = (   0.1666667   0.4811252   0.0000000), wk =   0.1111111
        k(    7) = (   0.3333333   0.5773503   0.0000000), wk =   0.0555556
        k(    8) = (  -0.1666667   0.0962250   0.0000000), wk =   0.1111111
        k(    9) = (  -0.3333333   0.1924501   0.0000000), wk =   0.1111111
        k(   10) = (   0.5000000  -0.2886751   0.0000000), wk =   0.0555556
        k(   11) = (   0.3333333   0.0000000   0.0000000), wk =   0.0555556
        k(   12) = (  -0.3333333   0.3849002   0.0000000), wk =   0.1111111
        k(   13) = (   0.5000000   0.0962250   0.0000000), wk =   0.1111111

     Dense  grid:   913669 G-vectors     FFT dimensions: (  80,  80, 320)

     Smooth grid:   876961 G-vectors     FFT dimensions: (  80,  80, 320)

     Estimated max dynamical RAM per process >     440.63 MB

     Estimated total dynamical RAM >      10.33 GB
 ----2D----2D----2D----2D----2D----2D----2D----2D----2D----2D----2D----2D
  The code is running with the 2D cutoff
  Please refer to:
  Sohier, T., Calandra, M., & Mauri, F. (2017), 
  Density functional perturbation theory for gated two-dimensional heterostructures:
  Theoretical developments and application to flexural phonons in graphene.
  Physical Review B, 96(7), 75448. https://doi.org/10.1103/PhysRevB.96.075448
 ----2D----2D----2D----2D----2D----2D----2D----2D----2D----2D----2D----2D
     Generating pointlists ...
     new r_m :   0.1622 (alat units)  2.1084 (a.u.) for type    1
     new r_m :   0.1622 (alat units)  2.1084 (a.u.) for type    2
     new r_m :   0.1622 (alat units)  2.1084 (a.u.) for type    3
     Cannot read rho : file not found

     Initial potential from superposition of free atoms

     starting charge     139.9932, renormalised to     140.0000

     negative rho (up, down):  2.640E-02 2.641E-02
     Starting wfcs are  168 atomic wfcs
     Checking if some PAW data can be deallocated... 

     total cpu time spent up to now is       26.5 secs

     Self-consistent Calculation

     iteration #  1     ecut=    90.00 Ry     beta= 0.50
     Davidson diagonalization with overlap
     ethr =  1.00E-05,  avg # of iterations =  9.1

     negative rho (up, down):  3.249E-02 3.251E-02

     total cpu time spent up to now is      188.4 secs

     total energy              =   -5461.95129684 Ry
     estimated scf accuracy    <       3.50091147 Ry

     total magnetization       =    -0.00 Bohr mag/cell
     absolute magnetization    =    12.58 Bohr mag/cell

     iteration #  2     ecut=    90.00 Ry     beta= 0.50
     Davidson diagonalization with overlap
     ethr =  2.50E-03,  avg # of iterations =  5.0

     negative rho (up, down):  3.003E-02 3.004E-02

     total cpu time spent up to now is      257.7 secs

     total energy              =   -5456.98270085 Ry
     estimated scf accuracy    <      80.30981151 Ry

     total magnetization       =    -0.00 Bohr mag/cell
     absolute magnetization    =     2.29 Bohr mag/cell

     iteration #  3     ecut=    90.00 Ry     beta= 0.50
     Davidson diagonalization with overlap
     ethr =  2.50E-03,  avg # of iterations =  4.0

     negative rho (up, down):  3.167E-02 3.169E-02

     total cpu time spent up to now is      315.6 secs

     total energy              =   -5464.11229425 Ry
     estimated scf accuracy    <       0.86366259 Ry

     total magnetization       =     0.00 Bohr mag/cell
     absolute magnetization    =    13.18 Bohr mag/cell

     iteration #  4     ecut=    90.00 Ry     beta= 0.50
     Davidson diagonalization with overlap
     ethr =  6.17E-04,  avg # of iterations =  1.9

     negative rho (up, down):  3.256E-02 3.259E-02

     total cpu time spent up to now is      356.6 secs

     total energy              =   -5464.13138051 Ry
     estimated scf accuracy    <       0.19943077 Ry

     total magnetization       =     0.00 Bohr mag/cell
     absolute magnetization    =    13.49 Bohr mag/cell

     iteration #  5     ecut=    90.00 Ry     beta= 0.50
     Davidson diagonalization with overlap
     ethr =  1.42E-04,  avg # of iterations =  2.2

     negative rho (up, down):  3.271E-02 3.275E-02

     total cpu time spent up to now is      399.0 secs

     total energy              =   -5464.14710607 Ry
     estimated scf accuracy    <       0.02907837 Ry

     total magnetization       =     0.00 Bohr mag/cell
     absolute magnetization    =    13.79 Bohr mag/cell

     iteration #  6     ecut=    90.00 Ry     beta= 0.50
     Davidson diagonalization with overlap
     ethr =  2.08E-05,  avg # of iterations =  7.9

     negative rho (up, down):  3.275E-02 3.280E-02

     total cpu time spent up to now is      464.3 secs

     total energy              =   -5464.15717719 Ry
     estimated scf accuracy    <       0.01474697 Ry

     total magnetization       =     0.00 Bohr mag/cell
     absolute magnetization    =    13.93 Bohr mag/cell

     iteration #  7     ecut=    90.00 Ry     beta= 0.50
     Davidson diagonalization with overlap
     ethr =  1.05E-05,  avg # of iterations =  3.2

     negative rho (up, down):  3.294E-02 3.299E-02

     total cpu time spent up to now is      509.8 secs

     total energy              =   -5464.15991430 Ry
     estimated scf accuracy    <       0.00270900 Ry

     total magnetization       =    -0.00 Bohr mag/cell
     absolute magnetization    =    14.38 Bohr mag/cell

     iteration #  8     ecut=    90.00 Ry     beta= 0.50
     Davidson diagonalization with overlap
     ethr =  1.93E-06,  avg # of iterations =  5.7

     negative rho (up, down):  3.294E-02 3.300E-02

     total cpu time spent up to now is      563.9 secs

     total energy              =   -5464.16021911 Ry
     estimated scf accuracy    <       0.00038889 Ry

     total magnetization       =    -0.00 Bohr mag/cell
     absolute magnetization    =    14.44 Bohr mag/cell

     iteration #  9     ecut=    90.00 Ry     beta= 0.50
     Davidson diagonalization with overlap
     ethr =  2.78E-07,  avg # of iterations =  3.6

     negative rho (up, down):  3.291E-02 3.297E-02

     total cpu time spent up to now is      611.2 secs

     total energy              =   -5464.16029795 Ry
     estimated scf accuracy    <       0.00026047 Ry

     total magnetization       =    -0.00 Bohr mag/cell
     absolute magnetization    =    14.45 Bohr mag/cell

     iteration # 10     ecut=    90.00 Ry     beta= 0.50
     Davidson diagonalization with overlap
     ethr =  1.86E-07,  avg # of iterations =  3.2

     negative rho (up, down):  3.288E-02 3.294E-02

     total cpu time spent up to now is      657.6 secs

     total energy              =   -5464.16031405 Ry
     estimated scf accuracy    <       0.00016717 Ry

     total magnetization       =    -0.00 Bohr mag/cell
     absolute magnetization    =    14.49 Bohr mag/cell

     iteration # 11     ecut=    90.00 Ry     beta= 0.50
     Davidson diagonalization with overlap
     ethr =  1.19E-07,  avg # of iterations =  1.7

     negative rho (up, down):  3.287E-02 3.293E-02

     total cpu time spent up to now is      697.6 secs

     total energy              =   -5464.16032415 Ry
     estimated scf accuracy    <       0.00002309 Ry

     total magnetization       =     0.00 Bohr mag/cell
     absolute magnetization    =    14.51 Bohr mag/cell

     iteration # 12     ecut=    90.00 Ry     beta= 0.50
     Davidson diagonalization with overlap
     ethr =  1.65E-08,  avg # of iterations =  3.8

     negative rho (up, down):  3.283E-02 3.289E-02

     total cpu time spent up to now is      747.2 secs

     total energy              =   -5464.16033297 Ry
     estimated scf accuracy    <       0.00000760 Ry

     total magnetization       =     0.00 Bohr mag/cell
     absolute magnetization    =    14.53 Bohr mag/cell

     iteration # 13     ecut=    90.00 Ry     beta= 0.50
     Davidson diagonalization with overlap
     ethr =  5.43E-09,  avg # of iterations =  2.7

     negative rho (up, down):  3.282E-02 3.288E-02

     total cpu time spent up to now is      792.1 secs

     total energy              =   -5464.16033541 Ry
     estimated scf accuracy    <       0.00000023 Ry

     total magnetization       =     0.00 Bohr mag/cell
     absolute magnetization    =    14.54 Bohr mag/cell

     iteration # 14     ecut=    90.00 Ry     beta= 0.50
     Davidson diagonalization with overlap
     ethr =  1.68E-10,  avg # of iterations =  4.5

     negative rho (up, down):  3.281E-02 3.287E-02

     total cpu time spent up to now is      864.1 secs

     total energy              =   -5464.16033573 Ry
     estimated scf accuracy    <       0.00000009 Ry

     total magnetization       =    -0.00 Bohr mag/cell
     absolute magnetization    =    14.54 Bohr mag/cell

     iteration # 15     ecut=    90.00 Ry     beta= 0.50
     Davidson diagonalization with overlap
     ethr =  6.44E-11,  avg # of iterations =  2.0

     negative rho (up, down):  3.281E-02 3.287E-02

     total cpu time spent up to now is      906.7 secs

     total energy              =   -5464.16033576 Ry
     estimated scf accuracy    <       0.00000001 Ry

     total magnetization       =    -0.00 Bohr mag/cell
     absolute magnetization    =    14.54 Bohr mag/cell

     iteration # 16     ecut=    90.00 Ry     beta= 0.50
     Davidson diagonalization with overlap
     ethr =  7.19E-12,  avg # of iterations =  3.5

     negative rho (up, down):  3.281E-02 3.287E-02

     total cpu time spent up to now is      957.1 secs

     total energy              =   -5464.16033576 Ry
     estimated scf accuracy    <          2.3E-09 Ry

     total magnetization       =    -0.00 Bohr mag/cell
     absolute magnetization    =    14.54 Bohr mag/cell

     iteration # 17     ecut=    90.00 Ry     beta= 0.50
     Davidson diagonalization with overlap
     ethr =  1.66E-12,  avg # of iterations =  3.7

     negative rho (up, down):  3.281E-02 3.287E-02

     Magnetic moment per site  (integrated on atomic sphere of radius R)
     atom   1 (R=0.162)  charge= 12.4165  magn=  2.9524
     atom   2 (R=0.162)  charge= 12.4165  magn=  2.9524
     atom   3 (R=0.162)  charge=  4.0417  magn= -0.0563
     atom   4 (R=0.162)  charge=  4.0410  magn= -0.0575
     atom   5 (R=0.162)  charge=  4.0410  magn= -0.0575
     atom   6 (R=0.162)  charge=  4.0452  magn= -0.0583
     atom   7 (R=0.162)  charge=  4.0451  magn= -0.0587
     atom   8 (R=0.162)  charge=  4.0451  magn= -0.0587
     atom   9 (R=0.162)  charge= 12.4164  magn= -2.9524
     atom  10 (R=0.162)  charge= 12.4164  magn= -2.9524
     atom  11 (R=0.162)  charge=  4.0452  magn=  0.0583
     atom  12 (R=0.162)  charge=  4.0450  magn=  0.0587
     atom  13 (R=0.162)  charge=  4.0450  magn=  0.0587
     atom  14 (R=0.162)  charge=  4.0417  magn=  0.0563
     atom  15 (R=0.162)  charge=  4.0411  magn=  0.0575
     atom  16 (R=0.162)  charge=  4.0411  magn=  0.0575

     total cpu time spent up to now is     1007.3 secs

     End of self-consistent calculation

 ------ SPIN UP ------------


          k = 0.0000 0.0000 0.0000 (109591 PWs)   bands (ev):

   -77.9522 -77.9512 -74.8768 -74.8757 -49.3610 -49.3596 -49.3527 -49.3518
   -49.3491 -49.3482 -46.3360 -46.3345 -46.3034 -46.3030 -46.2992 -46.2988
   -18.5813 -18.4843 -17.8043 -17.6681 -17.4859 -17.4849 -17.4449 -17.4430
   -17.3444 -17.3439 -17.3029 -17.3018 -10.3088  -9.9935  -9.8531  -9.2949
    -9.1467  -9.1436  -9.0813  -9.0774  -8.9809  -8.9400  -8.7887  -8.7646
    -8.7478  -8.7349  -8.3313  -8.2944  -8.1952  -8.0039  -7.7834  -7.7464
    -7.7198  -7.7052  -7.4315  -7.3154  -7.2551  -7.1312  -6.9733  -6.7609
    -6.7250  -6.5974  -6.3609  -6.3498  -6.3012  -6.2682  -6.2662  -6.0785
    -6.0726  -6.0124  -5.8042  -5.8042  -5.6028  -5.5989  -4.3289  -4.3196
    -3.8801  -3.8785  -3.5706  -3.5695  -3.5657  -3.4786  -3.2356  -3.2319
    -2.8527  -2.8456  -2.5333  -2.5300  -0.7430  -0.4982  -0.1612  -0.0409
     0.0862   0.2174   0.7254   0.7323   0.9182   0.9737   1.3664   1.5358
     1.5978   1.6672   1.9099   2.1286

          k = 0.0000 0.1925 0.0000 (109722 PWs)   bands (ev):

   -77.9522 -77.9512 -74.8768 -74.8757 -49.3609 -49.3596 -49.3527 -49.3517
   -49.3494 -49.3481 -46.3360 -46.3345 -46.3035 -46.3027 -46.2995 -46.2987
   -18.5221 -18.4270 -17.7697 -17.6384 -17.5669 -17.5297 -17.5047 -17.4667
   -17.3588 -17.3536 -17.3114 -17.3082 -10.2699  -9.9718  -9.8076  -9.3313
    -9.2293  -9.1902  -9.1367  -9.0356  -8.9754  -8.9135  -8.8209  -8.7603
    -8.6111  -8.4053  -8.3327  -8.2952  -7.9463  -7.8689  -7.8196  -7.7692
    -7.7149  -7.5568  -7.4007  -7.3589  -7.1625  -7.1183  -7.0003  -6.8966
    -6.7350  -6.6486  -6.4708  -6.4592  -6.3747  -6.3233  -6.2606  -6.1876
    -6.0636  -6.0413  -5.9959  -5.9125  -5.6720  -5.5749  -4.3176  -4.2907
    -4.0605  -3.9271  -3.6331  -3.5005  -3.4915  -3.3768  -3.2627  -3.2587
    -2.8380  -2.8234  -2.6728  -2.5757  -0.7029  -0.1794  -0.0187   0.2777
     0.3983   0.4988   0.5910   0.6191   0.8988   1.0980   1.3013   1.3972
     1.6888   1.7298   1.8839   1.9165

          k = 0.0000 0.3849 0.0000 (109616 PWs)   bands (ev):

   -77.9522 -77.9512 -74.8768 -74.8757 -49.3609 -49.3597 -49.3527 -49.3513
   -49.3499 -49.3480 -46.3359 -46.3346 -46.3036 -46.3021 -46.3001 -46.2986
   -18.3604 -18.2704 -17.7694 -17.7195 -17.6780 -17.5648 -17.5466 -17.5075
   -17.4196 -17.3796 -17.3489 -17.3277 -10.1984  -9.9179  -9.6740  -9.3583
    -9.3042  -9.2304  -9.1253  -9.0098  -8.9286  -8.7512  -8.7032  -8.5856
    -8.4499  -8.3311  -8.2920  -8.1853  -7.9400  -7.8323  -7.7887  -7.6182
    -7.5032  -7.4880  -7.4422  -7.2773  -7.1983  -7.1089  -7.0580  -6.9703
    -6.9544  -6.9147  -6.7650  -6.5058  -6.4891  -6.3996  -6.3172  -6.2226
    -6.0891  -6.0766  -6.0364  -5.9161  -5.7270  -5.5796  -4.2902  -4.2264
    -4.1810  -4.0746  -3.6796  -3.6315  -3.4182  -3.2787  -3.2733  -3.1988
    -2.8300  -2.7935  -2.7270  -2.6520  -0.9101  -0.2072   0.0943   0.4701
     0.5384   0.6970   0.7915   0.9836   1.0392   1.1089   1.1689   1.2319
     1.4520   1.4943   1.5801   1.6849

          k = 0.0000-0.5774 0.0000 (109602 PWs)   bands (ev):

   -77.9522 -77.9512 -74.8768 -74.8758 -49.3608 -49.3598 -49.3527 -49.3508
   -49.3505 -49.3479 -46.3358 -46.3347 -46.3036 -46.3017 -46.3005 -46.2985
   -18.2088 -18.1207 -17.9409 -17.8850 -17.5917 -17.5767 -17.5290 -17.4908
   -17.4765 -17.4238 -17.3778 -17.3386 -10.1842  -9.8938  -9.5649  -9.3582
    -9.2933  -9.1926  -9.1199  -8.8584  -8.8205  -8.7148  -8.6167  -8.5376
    -8.5128  -8.3330  -8.2099  -8.1227  -8.0620  -7.9209  -7.7581  -7.7099
    -7.7041  -7.5319  -7.4729  -7.3823  -7.2125  -7.0634  -7.0515  -6.8938
    -6.8575  -6.7454  -6.6827  -6.5837  -6.5828  -6.4607  -6.3614  -6.3314
    -6.0676  -6.0541  -6.0518  -5.8741  -5.6896  -5.6143  -4.2395  -4.2339
    -4.2104  -4.0930  -3.7341  -3.7185  -3.4425  -3.2542  -3.2512  -3.1613
    -2.8455  -2.7815  -2.6702  -2.6493  -1.1639  -0.4115   0.1017   0.1323
     0.4857   0.7258   0.8246   0.8486   1.0578   1.2212   1.2653   1.3741
     1.4528   1.5192   1.5591   1.5913

          k = 0.1667 0.2887 0.0000 (109615 PWs)   bands (ev):

   -77.9522 -77.9512 -74.8768 -74.8757 -49.3609 -49.3597 -49.3526 -49.3516
   -49.3495 -49.3481 -46.3359 -46.3346 -46.3036 -46.3023 -46.3000 -46.2986
   -18.4100 -18.3198 -17.7072 -17.6915 -17.6534 -17.5822 -17.5576 -17.5175
   -17.3929 -17.3737 -17.3337 -17.3195 -10.1814  -9.8936  -9.7405  -9.3941
    -9.2746  -9.2497  -9.1182  -9.0575  -9.0075  -8.8155  -8.7305  -8.5380
    -8.4969  -8.4311  -8.2415  -8.1051  -7.9730  -7.8867  -7.7702  -7.6619
    -7.5757  -7.4896  -7.3928  -7.2520  -7.1736  -7.1394  -7.0198  -6.9872
    -6.8613  -6.8462  -6.6558  -6.5407  -6.4698  -6.4095  -6.3156  -6.1974
    -6.1228  -6.0889  -5.9841  -5.9383  -5.7290  -5.5695  -4.3063  -4.2373
    -4.2189  -3.9631  -3.6239  -3.6096  -3.4006  -3.3531  -3.2495  -3.2339
    -2.8548  -2.7590  -2.7342  -2.6262  -0.7274  -0.3075   0.0824   0.3297
     0.4645   0.6082   0.7441   0.8978   1.0676   1.1140   1.2124   1.3503
     1.4824   1.5707   1.6402   1.6665

          k = 0.1667 0.4811 0.0000 (109606 PWs)   bands (ev):

   -77.9522 -77.9512 -74.8768 -74.8758 -49.3608 -49.3598 -49.3527 -49.3511
   -49.3501 -49.3480 -46.3358 -46.3347 -46.3037 -46.3016 -46.3006 -46.2985
   -18.2245 -18.1397 -17.8892 -17.8452 -17.6143 -17.6059 -17.5665 -17.4946
   -17.4616 -17.4121 -17.3704 -17.3381 -10.0600  -9.7817  -9.6245  -9.3798
    -9.3084  -9.2070  -9.0970  -8.9709  -8.8955  -8.8308  -8.6715  -8.5824
    -8.4876  -8.3777  -8.3220  -8.2174  -7.9082  -7.8570  -7.7934  -7.7168
    -7.5547  -7.4509  -7.3965  -7.3103  -7.1960  -7.1117  -6.9566  -6.9049
    -6.8394  -6.7869  -6.7136  -6.6709  -6.5477  -6.4680  -6.3539  -6.2997
    -6.1737  -6.0447  -5.9679  -5.8603  -5.7275  -5.6078  -4.2627  -4.2327
    -4.1685  -4.0129  -3.7104  -3.6598  -3.4285  -3.3817  -3.2098  -3.1803
    -2.7944  -2.7486  -2.6668  -2.6530  -0.9899  -0.4480  -0.2755   0.1690
     0.2760   0.5285   0.6157   0.7296   0.9129   1.0129   1.0679   1.1802
     1.2297   1.3488   1.5245   1.6049

          k = 0.3333 0.5774 0.0000 (109542 PWs)   bands (ev):

   -77.9522 -77.9512 -74.8768 -74.8758 -49.3608 -49.3598 -49.3528 -49.3510
   -49.3499 -49.3481 -46.3358 -46.3347 -46.3037 -46.3016 -46.3006 -46.2985
   -18.0526 -18.0375 -17.9910 -17.9709 -17.6652 -17.6197 -17.5269 -17.5118
   -17.4562 -17.4256 -17.3889 -17.3523  -9.7673  -9.7578  -9.4945  -9.4941
    -9.2784  -9.1635  -9.1340  -8.9502  -8.9412  -8.9217  -8.7318  -8.6964
    -8.5724  -8.3535  -8.3355  -8.3317  -8.2669  -7.8480  -7.6831  -7.5594
    -7.3316  -7.3177  -7.2900  -7.2573  -7.2563  -7.1098  -7.0197  -7.0143
    -6.7768  -6.6889  -6.6660  -6.6238  -6.6002  -6.5826  -6.3852  -6.2851
    -6.2698  -6.0002  -5.8950  -5.8710  -5.6876  -5.6583  -4.2729  -4.1683
    -4.1656  -3.9259  -3.6645  -3.6644  -3.4931  -3.4331  -3.1913  -3.1910
    -2.7449  -2.6895  -2.6889  -2.5826  -0.8789  -0.8497  -0.2866  -0.2355
     0.1908   0.2949   0.3349   0.5350   0.6454   0.6969   0.9364   1.0143
     1.1072   1.2198   1.4023   1.4385

          k =-0.1667 0.0962 0.0000 (109722 PWs)   bands (ev):

   -77.9522 -77.9512 -74.8768 -74.8757 -49.3609 -49.3596 -49.3528 -49.3517
   -49.3492 -49.3482 -46.3360 -46.3345 -46.3033 -46.3029 -46.2993 -46.2989
   -18.5218 -18.4273 -17.7696 -17.6389 -17.5682 -17.5232 -17.5087 -17.4675
   -17.3591 -17.3535 -17.3112 -17.3081 -10.2751  -9.9626  -9.8079  -9.3442
    -9.2260  -9.1805  -9.1170  -9.0677  -8.9584  -8.9242  -8.8292  -8.7594
    -8.5960  -8.3994  -8.3514  -8.2814  -7.9583  -7.8903  -7.8316  -7.7497
    -7.6804  -7.5722  -7.4263  -7.3000  -7.2248  -7.1199  -6.9587  -6.9078
    -6.7279  -6.6333  -6.4687  -6.4441  -6.4261  -6.3265  -6.2487  -6.1850
    -6.0608  -6.0504  -5.9928  -5.9081  -5.6689  -5.5781  -4.3147  -4.2937
    -4.0608  -3.9274  -3.6345  -3.4986  -3.4902  -3.3770  -3.2619  -3.2599
    -2.8362  -2.8263  -2.6700  -2.5771  -0.7204  -0.1604   0.0125   0.2745
     0.3635   0.5004   0.5722   0.5989   0.9612   1.1320   1.2092   1.4170
     1.6467   1.7880   1.8990   1.9411

          k =-0.3333 0.1925 0.0000 (109616 PWs)   bands (ev):

   -77.9522 -77.9512 -74.8768 -74.8757 -49.3609 -49.3597 -49.3528 -49.3513
   -49.3495 -49.3483 -46.3359 -46.3346 -46.3033 -46.3026 -46.2995 -46.2989
   -18.3580 -18.2736 -17.7734 -17.7153 -17.6731 -17.5680 -17.5490 -17.5073
   -17.4197 -17.3766 -17.3496 -17.3288 -10.2070  -9.9050  -9.6798  -9.3488
    -9.2993  -9.2088  -9.1487  -9.0279  -8.9147  -8.7623  -8.7206  -8.5863
    -8.4310  -8.3217  -8.2749  -8.1950  -7.9523  -7.8445  -7.8014  -7.6193
    -7.5355  -7.4527  -7.3995  -7.2879  -7.1892  -7.1192  -7.0889  -6.9940
    -6.9662  -6.8563  -6.7523  -6.5158  -6.4931  -6.3876  -6.3410  -6.2236
    -6.0840  -6.0444  -6.0110  -5.9369  -5.7563  -5.5834  -4.2921  -4.2209
    -4.1799  -4.0755  -3.6812  -3.6272  -3.4178  -3.2761  -3.2731  -3.1990
    -2.8320  -2.7932  -2.7254  -2.6529  -0.9390  -0.1604   0.0640   0.4086
     0.5618   0.7283   0.8440   0.9875   1.0503   1.1116   1.1401   1.2875
     1.4090   1.4286   1.5890   1.6557

          k = 0.5000-0.2887 0.0000 (109602 PWs)   bands (ev):

   -77.9522 -77.9512 -74.8768 -74.8758 -49.3608 -49.3597 -49.3529 -49.3511
   -49.3497 -49.3483 -46.3358 -46.3347 -46.3034 -46.3024 -46.2997 -46.2988
   -18.1903 -18.1485 -17.9306 -17.8848 -17.5794 -17.5779 -17.5311 -17.5252
   -17.4524 -17.4152 -17.3853 -17.3393 -10.1889  -9.8948  -9.5518  -9.3594
    -9.3058  -9.1886  -9.0573  -8.9248  -8.8343  -8.7286  -8.6374  -8.5213
    -8.4660  -8.3251  -8.2267  -8.1259  -8.0585  -7.9041  -7.7798  -7.7405
    -7.6893  -7.5355  -7.4149  -7.3751  -7.2903  -7.0701  -7.0475  -6.8777
    -6.8026  -6.7593  -6.7065  -6.5892  -6.5680  -6.4711  -6.3588  -6.3425
    -6.0585  -6.0460  -5.9602  -5.8724  -5.7979  -5.6089  -4.2415  -4.2309
    -4.2093  -4.0859  -3.7294  -3.7194  -3.4415  -3.2528  -3.2499  -3.1612
    -2.8468  -2.7802  -2.6722  -2.6483  -1.1922  -0.3980   0.0747   0.1395
     0.4978   0.7675   0.8147   0.8815   0.9869   1.2605   1.3100   1.3461
     1.4350   1.4971   1.5612   1.5981

          k = 0.3333 0.0000 0.0000 (109615 PWs)   bands (ev):

   -77.9522 -77.9512 -74.8768 -74.8757 -49.3609 -49.3597 -49.3528 -49.3516
   -49.3491 -49.3484 -46.3359 -46.3346 -46.3034 -46.3026 -46.2996 -46.2988
   -18.4092 -18.3208 -17.7060 -17.7000 -17.6378 -17.5928 -17.5570 -17.5152
   -17.3979 -17.3686 -17.3320 -17.3218 -10.1915  -9.8745  -9.7412  -9.4155
    -9.2631  -9.2427  -9.1171  -9.0652  -8.9910  -8.7988  -8.7736  -8.5461
    -8.4892  -8.4206  -8.2245  -8.1253  -7.9431  -7.9243  -7.7784  -7.6852
    -7.5320  -7.5129  -7.3503  -7.2392  -7.1912  -7.1476  -7.0162  -7.0002
    -6.8984  -6.7922  -6.6512  -6.5525  -6.4809  -6.3984  -6.3286  -6.1835
    -6.1056  -6.1043  -5.9750  -5.9535  -5.7318  -5.5721  -4.3101  -4.2383
    -4.2101  -3.9635  -3.6235  -3.6111  -3.3980  -3.3535  -3.2498  -3.2339
    -2.8578  -2.7586  -2.7285  -2.6279  -0.7639  -0.2378   0.0303   0.3170
     0.4336   0.6610   0.7865   0.8719   1.0166   1.1182   1.1901   1.3970
     1.5294   1.5847   1.6193   1.7479

          k =-0.3333 0.3849 0.0000 (109606 PWs)   bands (ev):

   -77.9522 -77.9512 -74.8768 -74.8758 -49.3608 -49.3597 -49.3528 -49.3510
   -49.3499 -49.3481 -46.3358 -46.3347 -46.3035 -46.3022 -46.3000 -46.2987
   -18.2188 -18.1483 -17.8894 -17.8410 -17.6173 -17.6008 -17.5662 -17.5079
   -17.4528 -17.4074 -17.3740 -17.3385 -10.0650  -9.7749  -9.6310  -9.3680
    -9.3026  -9.1885  -9.1143  -8.9800  -8.9174  -8.8251  -8.6881  -8.5611
    -8.4779  -8.3674  -8.3273  -8.2209  -7.9141  -7.8495  -7.8075  -7.7238
    -7.5158  -7.4590  -7.3890  -7.3651  -7.1768  -7.1023  -6.9471  -6.9046
    -6.8601  -6.7887  -6.7212  -6.6503  -6.5212  -6.4808  -6.3613  -6.3277
    -6.1328  -6.0396  -5.9483  -5.8613  -5.7722  -5.6073  -4.2631  -4.2312
    -4.1672  -4.0126  -3.7083  -3.6573  -3.4286  -3.3812  -3.2089  -3.1802
    -2.7955  -2.7474  -2.6687  -2.6525  -1.0124  -0.4302  -0.2741   0.1665
     0.2537   0.5488   0.6635   0.7242   0.8910   0.9820   1.0318   1.2216
     1.2494   1.3599   1.4606   1.5777

          k = 0.5000 0.0962 0.0000 (109606 PWs)   bands (ev):

   -77.9522 -77.9512 -74.8768 -74.8758 -49.3608 -49.3597 -49.3527 -49.3514
   -49.3493 -49.3484 -46.3358 -46.3347 -46.3036 -46.3019 -46.3002 -46.2986
   -18.2180 -18.1486 -17.8987 -17.8299 -17.6200 -17.6055 -17.5597 -17.5053
   -17.4636 -17.3897 -17.3843 -17.3389 -10.0696  -9.7683  -9.6316  -9.3680
    -9.2967  -9.2009  -9.1096  -8.9554  -8.9219  -8.8266  -8.7189  -8.5617
    -8.4921  -8.3621  -8.2781  -8.2430  -7.9328  -7.8540  -7.7962  -7.7265
    -7.4862  -7.4486  -7.4222  -7.3584  -7.1738  -7.1336  -6.9492  -6.8954
    -6.8167  -6.7744  -6.7156  -6.6913  -6.5419  -6.4738  -6.3711  -6.2965
    -6.1376  -6.0445  -5.9408  -5.8615  -5.7864  -5.6063  -4.2589  -4.2311
    -4.1683  -4.0116  -3.7093  -3.6581  -3.4269  -3.3810  -3.2095  -3.1794
    -2.7950  -2.7485  -2.6685  -2.6510  -1.0199  -0.4254  -0.2737   0.1110
     0.2734   0.5687   0.6735   0.7839   0.8694   0.9445   1.0078   1.1639
     1.3478   1.4196   1.5042   1.5514

 ------ SPIN DOWN ----------


          k = 0.0000 0.0000 0.0000 (109591 PWs)   bands (ev):

   -77.9522 -77.9511 -74.8768 -74.8758 -49.3609 -49.3596 -49.3527 -49.3518
   -49.3491 -49.3482 -46.3361 -46.3345 -46.3034 -46.3030 -46.2993 -46.2989
   -18.5814 -18.4843 -17.8043 -17.6681 -17.4860 -17.4849 -17.4449 -17.4430
   -17.3444 -17.3439 -17.3028 -17.3018 -10.3087  -9.9935  -9.8531  -9.2949
    -9.1467  -9.1436  -9.0813  -9.0774  -8.9809  -8.9400  -8.7887  -8.7646
    -8.7478  -8.7349  -8.3313  -8.2944  -8.1952  -8.0039  -7.7834  -7.7464
    -7.7198  -7.7053  -7.4315  -7.3154  -7.2551  -7.1312  -6.9733  -6.7609
    -6.7249  -6.5974  -6.3609  -6.3499  -6.3011  -6.2682  -6.2662  -6.0785
    -6.0726  -6.0124  -5.8042  -5.8042  -5.6028  -5.5989  -4.3289  -4.3196
    -3.8801  -3.8785  -3.5706  -3.5695  -3.5657  -3.4786  -3.2356  -3.2319
    -2.8527  -2.8456  -2.5333  -2.5300  -0.7430  -0.4982  -0.1612  -0.0409
     0.0862   0.2174   0.7254   0.7323   0.9182   0.9737   1.3664   1.5358
     1.5979   1.6672   1.9101   2.1287

          k = 0.0000 0.1925 0.0000 (109722 PWs)   bands (ev):

   -77.9522 -77.9511 -74.8768 -74.8758 -49.3609 -49.3596 -49.3527 -49.3516
   -49.3494 -49.3481 -46.3360 -46.3345 -46.3035 -46.3027 -46.2995 -46.2987
   -18.5221 -18.4270 -17.7697 -17.6384 -17.5669 -17.5297 -17.5047 -17.4667
   -17.3588 -17.3536 -17.3114 -17.3082 -10.2699  -9.9718  -9.8076  -9.3313
    -9.2293  -9.1902  -9.1367  -9.0356  -8.9754  -8.9135  -8.8209  -8.7603
    -8.6111  -8.4053  -8.3327  -8.2952  -7.9463  -7.8689  -7.8196  -7.7692
    -7.7149  -7.5568  -7.4007  -7.3589  -7.1625  -7.1183  -7.0003  -6.8965
    -6.7350  -6.6486  -6.4708  -6.4593  -6.3747  -6.3233  -6.2606  -6.1875
    -6.0635  -6.0413  -5.9959  -5.9125  -5.6720  -5.5749  -4.3176  -4.2907
    -4.0605  -3.9271  -3.6331  -3.5005  -3.4915  -3.3768  -3.2627  -3.2588
    -2.8380  -2.8235  -2.6728  -2.5757  -0.7029  -0.1794  -0.0187   0.2777
     0.3983   0.4988   0.5910   0.6191   0.8988   1.0980   1.3013   1.3972
     1.6888   1.7298   1.8840   1.9166

          k = 0.0000 0.3849 0.0000 (109616 PWs)   bands (ev):

   -77.9522 -77.9511 -74.8768 -74.8758 -49.3608 -49.3597 -49.3526 -49.3513
   -49.3499 -49.3479 -46.3359 -46.3347 -46.3036 -46.3022 -46.3001 -46.2986
   -18.3604 -18.2704 -17.7694 -17.7195 -17.6780 -17.5648 -17.5466 -17.5075
   -17.4196 -17.3797 -17.3489 -17.3277 -10.1984  -9.9179  -9.6739  -9.3583
    -9.3042  -9.2304  -9.1253  -9.0098  -8.9286  -8.7512  -8.7032  -8.5856
    -8.4499  -8.3311  -8.2920  -8.1853  -7.9400  -7.8323  -7.7887  -7.6182
    -7.5032  -7.4880  -7.4422  -7.2773  -7.1983  -7.1089  -7.0580  -6.9703
    -6.9543  -6.9147  -6.7650  -6.5058  -6.4891  -6.3996  -6.3172  -6.2226
    -6.0891  -6.0766  -6.0363  -5.9161  -5.7270  -5.5796  -4.2902  -4.2264
    -4.1810  -4.0746  -3.6796  -3.6315  -3.4182  -3.2787  -3.2733  -3.1988
    -2.8300  -2.7935  -2.7270  -2.6521  -0.9101  -0.2072   0.0943   0.4701
     0.5384   0.6970   0.7915   0.9836   1.0392   1.1089   1.1689   1.2319
     1.4520   1.4943   1.5801   1.6849

          k = 0.0000-0.5774 0.0000 (109602 PWs)   bands (ev):

   -77.9522 -77.9511 -74.8768 -74.8758 -49.3608 -49.3597 -49.3526 -49.3508
   -49.3504 -49.3479 -46.3358 -46.3347 -46.3037 -46.3017 -46.3006 -46.2985
   -18.2088 -18.1207 -17.9409 -17.8850 -17.5917 -17.5767 -17.5290 -17.4908
   -17.4765 -17.4238 -17.3778 -17.3386 -10.1842  -9.8938  -9.5649  -9.3582
    -9.2933  -9.1926  -9.1199  -8.8584  -8.8205  -8.7148  -8.6167  -8.5376
    -8.5128  -8.3329  -8.2099  -8.1227  -8.0620  -7.9209  -7.7581  -7.7099
    -7.7041  -7.5319  -7.4729  -7.3823  -7.2125  -7.0634  -7.0515  -6.8938
    -6.8575  -6.7454  -6.6827  -6.5837  -6.5828  -6.4607  -6.3613  -6.3314
    -6.0676  -6.0541  -6.0518  -5.8740  -5.6896  -5.6143  -4.2394  -4.2339
    -4.2104  -4.0930  -3.7342  -3.7185  -3.4425  -3.2543  -3.2513  -3.1613
    -2.8455  -2.7815  -2.6702  -2.6493  -1.1639  -0.4115   0.1017   0.1324
     0.4857   0.7259   0.8246   0.8486   1.0578   1.2212   1.2653   1.3741
     1.4529   1.5192   1.5591   1.5912

          k = 0.1667 0.2887 0.0000 (109615 PWs)   bands (ev):

   -77.9522 -77.9511 -74.8768 -74.8758 -49.3609 -49.3597 -49.3527 -49.3513
   -49.3497 -49.3480 -46.3359 -46.3346 -46.3035 -46.3025 -46.2997 -46.2987
   -18.4100 -18.3198 -17.7072 -17.6916 -17.6534 -17.5822 -17.5576 -17.5175
   -17.3929 -17.3737 -17.3337 -17.3195 -10.1814  -9.8936  -9.7405  -9.3941
    -9.2746  -9.2497  -9.1182  -9.0575  -9.0076  -8.8155  -8.7304  -8.5380
    -8.4969  -8.4310  -8.2415  -8.1051  -7.9730  -7.8867  -7.7702  -7.6619
    -7.5757  -7.4896  -7.3928  -7.2520  -7.1736  -7.1394  -7.0198  -6.9872
    -6.8613  -6.8462  -6.6558  -6.5406  -6.4698  -6.4095  -6.3155  -6.1975
    -6.1229  -6.0889  -5.9842  -5.9382  -5.7290  -5.5695  -4.3062  -4.2374
    -4.2189  -3.9631  -3.6238  -3.6096  -3.4006  -3.3532  -3.2495  -3.2339
    -2.8548  -2.7590  -2.7343  -2.6263  -0.7274  -0.3074   0.0824   0.3297
     0.4645   0.6082   0.7441   0.8978   1.0676   1.1141   1.2123   1.3503
     1.4823   1.5707   1.6402   1.6666

          k = 0.1667 0.4811 0.0000 (109606 PWs)   bands (ev):

   -77.9522 -77.9511 -74.8768 -74.8758 -49.3608 -49.3597 -49.3527 -49.3509
   -49.3503 -49.3479 -46.3358 -46.3347 -46.3037 -46.3018 -46.3004 -46.2986
   -18.2245 -18.1397 -17.8893 -17.8452 -17.6143 -17.6059 -17.5665 -17.4946
   -17.4617 -17.4121 -17.3704 -17.3381 -10.0600  -9.7817  -9.6245  -9.3798
    -9.3084  -9.2070  -9.0970  -8.9709  -8.8955  -8.8308  -8.6715  -8.5824
    -8.4876  -8.3777  -8.3220  -8.2174  -7.9082  -7.8569  -7.7934  -7.7169
    -7.5548  -7.4508  -7.3965  -7.3103  -7.1960  -7.1117  -6.9566  -6.9048
    -6.8394  -6.7869  -6.7136  -6.6709  -6.5478  -6.4680  -6.3539  -6.2997
    -6.1737  -6.0446  -5.9679  -5.8602  -5.7275  -5.6078  -4.2627  -4.2327
    -4.1685  -4.0129  -3.7104  -3.6598  -3.4285  -3.3818  -3.2098  -3.1804
    -2.7944  -2.7486  -2.6668  -2.6530  -0.9899  -0.4480  -0.2755   0.1690
     0.2760   0.5285   0.6157   0.7296   0.9129   1.0129   1.0679   1.1802
     1.2298   1.3487   1.5246   1.6052

          k = 0.3333 0.5774 0.0000 (109542 PWs)   bands (ev):

   -77.9522 -77.9511 -74.8768 -74.8758 -49.3608 -49.3597 -49.3527 -49.3510
   -49.3499 -49.3481 -46.3358 -46.3348 -46.3037 -46.3016 -46.3007 -46.2986
   -18.0526 -18.0375 -17.9910 -17.9709 -17.6653 -17.6197 -17.5269 -17.5118
   -17.4562 -17.4256 -17.3890 -17.3523  -9.7673  -9.7578  -9.4945  -9.4941
    -9.2784  -9.1635  -9.1340  -8.9502  -8.9412  -8.9217  -8.7318  -8.6964
    -8.5724  -8.3535  -8.3355  -8.3317  -8.2669  -7.8480  -7.6831  -7.5594
    -7.3316  -7.3177  -7.2899  -7.2573  -7.2563  -7.1098  -7.0197  -7.0143
    -6.7768  -6.6889  -6.6660  -6.6238  -6.6002  -6.5826  -6.3852  -6.2851
    -6.2698  -6.0002  -5.8950  -5.8710  -5.6876  -5.6583  -4.2729  -4.1683
    -4.1656  -3.9259  -3.6645  -3.6644  -3.4931  -3.4332  -3.1913  -3.1910
    -2.7449  -2.6895  -2.6889  -2.5826  -0.8789  -0.8497  -0.2866  -0.2355
     0.1908   0.2949   0.3349   0.5350   0.6454   0.6969   0.9364   1.0143
     1.1072   1.2198   1.4023   1.4385

          k =-0.1667 0.0962 0.0000 (109722 PWs)   bands (ev):

   -77.9522 -77.9511 -74.8768 -74.8758 -49.3609 -49.3596 -49.3527 -49.3517
   -49.3491 -49.3483 -46.3360 -46.3345 -46.3035 -46.3028 -46.2995 -46.2988
   -18.5218 -18.4273 -17.7696 -17.6389 -17.5682 -17.5233 -17.5087 -17.4675
   -17.3591 -17.3536 -17.3112 -17.3081 -10.2751  -9.9626  -9.8079  -9.3442
    -9.2259  -9.1805  -9.1170  -9.0677  -8.9583  -8.9243  -8.8292  -8.7594
    -8.5960  -8.3993  -8.3514  -8.2813  -7.9583  -7.8903  -7.8316  -7.7497
    -7.6804  -7.5722  -7.4263  -7.3000  -7.2248  -7.1199  -6.9587  -6.9078
    -6.7279  -6.6333  -6.4687  -6.4441  -6.4261  -6.3265  -6.2488  -6.1849
    -6.0608  -6.0504  -5.9928  -5.9081  -5.6689  -5.5781  -4.3146  -4.2937
    -4.0608  -3.9274  -3.6345  -3.4987  -3.4902  -3.3771  -3.2619  -3.2599
    -2.8362  -2.8263  -2.6700  -2.5771  -0.7203  -0.1604   0.0125   0.2745
     0.3635   0.5004   0.5722   0.5989   0.9612   1.1320   1.2092   1.4170
     1.6467   1.7881   1.8990   1.9412

          k =-0.3333 0.1925 0.0000 (109616 PWs)   bands (ev):

   -77.9522 -77.9511 -74.8768 -74.8758 -49.3608 -49.3597 -49.3527 -49.3516
   -49.3490 -49.3485 -46.3359 -46.3347 -46.3036 -46.3023 -46.3000 -46.2987
   -18.3580 -18.2736 -17.7734 -17.7153 -17.6731 -17.5680 -17.5491 -17.5073
   -17.4197 -17.3766 -17.3496 -17.3287 -10.2070  -9.9050  -9.6798  -9.3488
    -9.2993  -9.2088  -9.1487  -9.0279  -8.9147  -8.7624  -8.7206  -8.5862
    -8.4310  -8.3216  -8.2749  -8.1949  -7.9523  -7.8445  -7.8014  -7.6193
    -7.5355  -7.4527  -7.3996  -7.2878  -7.1892  -7.1192  -7.0889  -6.9940
    -6.9661  -6.8563  -6.7523  -6.5158  -6.4931  -6.3876  -6.3409  -6.2236
    -6.0840  -6.0443  -6.0110  -5.9369  -5.7563  -5.5834  -4.2921  -4.2210
    -4.1798  -4.0755  -3.6812  -3.6272  -3.4178  -3.2761  -3.2731  -3.1990
    -2.8321  -2.7932  -2.7254  -2.6529  -0.9390  -0.1604   0.0640   0.4086
     0.5618   0.7283   0.8440   0.9875   1.0503   1.1115   1.1401   1.2876
     1.4090   1.4285   1.5891   1.6557

          k = 0.5000-0.2887 0.0000 (109602 PWs)   bands (ev):

   -77.9522 -77.9511 -74.8768 -74.8758 -49.3608 -49.3597 -49.3527 -49.3515
   -49.3490 -49.3486 -46.3358 -46.3347 -46.3036 -46.3019 -46.3003 -46.2986
   -18.1903 -18.1485 -17.9306 -17.8849 -17.5794 -17.5780 -17.5311 -17.5252
   -17.4524 -17.4152 -17.3853 -17.3393 -10.1889  -9.8948  -9.5518  -9.3594
    -9.3058  -9.1887  -9.0573  -8.9247  -8.8343  -8.7286  -8.6374  -8.5213
    -8.4660  -8.3251  -8.2266  -8.1259  -8.0585  -7.9041  -7.7798  -7.7405
    -7.6894  -7.5355  -7.4149  -7.3752  -7.2903  -7.0701  -7.0475  -6.8777
    -6.8026  -6.7593  -6.7065  -6.5892  -6.5680  -6.4711  -6.3588  -6.3425
    -6.0585  -6.0460  -5.9601  -5.8724  -5.7979  -5.6089  -4.2413  -4.2309
    -4.2094  -4.0858  -3.7294  -3.7194  -3.4416  -3.2528  -3.2499  -3.1612
    -2.8468  -2.7802  -2.6722  -2.6483  -1.1922  -0.3980   0.0747   0.1395
     0.4978   0.7675   0.8147   0.8815   0.9869   1.2605   1.3100   1.3460
     1.4350   1.4972   1.5613   1.5982

          k = 0.3333 0.0000 0.0000 (109615 PWs)   bands (ev):

   -77.9522 -77.9511 -74.8768 -74.8758 -49.3609 -49.3597 -49.3527 -49.3515
   -49.3491 -49.3484 -46.3359 -46.3346 -46.3035 -46.3026 -46.2996 -46.2988
   -18.4092 -18.3208 -17.7060 -17.7000 -17.6378 -17.5928 -17.5570 -17.5152
   -17.3979 -17.3686 -17.3320 -17.3218 -10.1915  -9.8745  -9.7412  -9.4155
    -9.2631  -9.2427  -9.1171  -9.0652  -8.9910  -8.7988  -8.7736  -8.5461
    -8.4892  -8.4206  -8.2245  -8.1253  -7.9431  -7.9243  -7.7784  -7.6852
    -7.5320  -7.5129  -7.3503  -7.2392  -7.1912  -7.1476  -7.0162  -7.0002
    -6.8984  -6.7922  -6.6511  -6.5525  -6.4809  -6.3984  -6.3286  -6.1834
    -6.1056  -6.1043  -5.9750  -5.9535  -5.7318  -5.5721  -4.3101  -4.2383
    -4.2101  -3.9635  -3.6235  -3.6111  -3.3980  -3.3535  -3.2498  -3.2339
    -2.8578  -2.7586  -2.7285  -2.6279  -0.7639  -0.2378   0.0303   0.3170
     0.4336   0.6610   0.7865   0.8719   1.0166   1.1182   1.1901   1.3970
     1.5294   1.5847   1.6193   1.7479

          k =-0.3333 0.3849 0.0000 (109606 PWs)   bands (ev):

   -77.9522 -77.9511 -74.8768 -74.8758 -49.3608 -49.3597 -49.3527 -49.3514
   -49.3495 -49.3483 -46.3358 -46.3347 -46.3037 -46.3018 -46.3005 -46.2986
   -18.2188 -18.1483 -17.8894 -17.8410 -17.6173 -17.6008 -17.5662 -17.5079
   -17.4528 -17.4074 -17.3740 -17.3384 -10.0650  -9.7749  -9.6310  -9.3680
    -9.3025  -9.1884  -9.1144  -8.9800  -8.9174  -8.8250  -8.6882  -8.5611
    -8.4779  -8.3674  -8.3272  -8.2209  -7.9142  -7.8495  -7.8075  -7.7238
    -7.5158  -7.4591  -7.3890  -7.3651  -7.1767  -7.1023  -6.9470  -6.9046
    -6.8601  -6.7886  -6.7212  -6.6503  -6.5212  -6.4808  -6.3613  -6.3276
    -6.1328  -6.0396  -5.9483  -5.8613  -5.7723  -5.6072  -4.2631  -4.2313
    -4.1671  -4.0126  -3.7083  -3.6573  -3.4286  -3.3812  -3.2089  -3.1803
    -2.7955  -2.7475  -2.6686  -2.6525  -1.0124  -0.4302  -0.2741   0.1665
     0.2537   0.5488   0.6635   0.7242   0.8910   0.9820   1.0318   1.2217
     1.2494   1.3599   1.4606   1.5778

          k = 0.5000 0.0962 0.0000 (109606 PWs)   bands (ev):

   -77.9522 -77.9511 -74.8768 -74.8758 -49.3608 -49.3597 -49.3528 -49.3512
   -49.3495 -49.3483 -46.3358 -46.3347 -46.3035 -46.3022 -46.3000 -46.2987
   -18.2180 -18.1486 -17.8987 -17.8299 -17.6200 -17.6055 -17.5597 -17.5053
   -17.4636 -17.3897 -17.3843 -17.3389 -10.0696  -9.7683  -9.6316  -9.3679
    -9.2967  -9.2009  -9.1096  -8.9554  -8.9218  -8.8266  -8.7189  -8.5618
    -8.4921  -8.3621  -8.2781  -8.2430  -7.9328  -7.8540  -7.7962  -7.7264
    -7.4862  -7.4486  -7.4222  -7.3584  -7.1738  -7.1336  -6.9492  -6.8954
    -6.8167  -6.7744  -6.7156  -6.6913  -6.5419  -6.4738  -6.3711  -6.2965
    -6.1376  -6.0444  -5.9408  -5.8614  -5.7864  -5.6063  -4.2590  -4.2310
    -4.1683  -4.0116  -3.7093  -3.6581  -3.4269  -3.3810  -3.2095  -3.1794
    -2.7949  -2.7486  -2.6686  -2.6510  -1.0199  -0.4254  -0.2737   0.1110
     0.2734   0.5687   0.6735   0.7839   0.8695   0.9445   1.0078   1.1639
     1.3478   1.4196   1.5042   1.5514

     highest occupied, lowest unoccupied level (ev):    -5.5695   -4.3289

!    total energy              =   -5464.16033576 Ry
     total all-electron energy =     -5464.160336 Ry
     estimated scf accuracy    <          5.2E-10 Ry

     The total energy is the sum of the following terms:
     one-electron contribution =   -9555.82762973 Ry
     hartree contribution      =    4752.27966787 Ry
     xc contribution           =    -163.56479731 Ry
     ewald contribution        =    3972.84397750 Ry
     one-center paw contrib.   =   -4469.89155409 Ry

     total magnetization       =     0.00 Bohr mag/cell
     absolute magnetization    =    14.54 Bohr mag/cell

     convergence has been achieved in  17 iterations

     negative rho (up, down):  3.281E-02 3.287E-02

     Forces acting on atoms (cartesian axes, Ry/au):

     atom    1 type  1   force =    -0.00025804    0.00049605    0.00047569
     atom    2 type  1   force =    -0.00025804   -0.00049605    0.00047569
     atom    3 type  2   force =     0.00091718    0.00000000    0.00028062
     atom    4 type  2   force =    -0.00074087   -0.00042076    0.00242733
     atom    5 type  2   force =    -0.00074087    0.00042076    0.00242733
     atom    6 type  2   force =    -0.00046808    0.00000000   -0.00252406
     atom    7 type  2   force =     0.00029751    0.00030918   -0.00263542
     atom    8 type  2   force =     0.00029751   -0.00030918   -0.00263542
     atom    9 type  3   force =     0.00025486    0.00049013   -0.00047179
     atom   10 type  3   force =     0.00025486   -0.00049013   -0.00047179
     atom   11 type  2   force =     0.00047076    0.00000000    0.00252179
     atom   12 type  2   force =    -0.00029712   -0.00031053    0.00263262
     atom   13 type  2   force =    -0.00029712    0.00031053    0.00263262
     atom   14 type  2   force =    -0.00091655    0.00000000   -0.00027995
     atom   15 type  2   force =     0.00074201    0.00041987   -0.00242763
     atom   16 type  2   force =     0.00074201   -0.00041987   -0.00242763

     Total force =     0.008492     Total SCF correction =     0.000057


     Computing stress (Cartesian axis) and pressure


     negative rho (up, down):  3.281E-02 3.287E-02
          total   stress  (Ry/bohr**3)                   (kbar)     P=        0.93
   0.00000255   0.00000000  -0.00000112            0.38        0.00       -0.16
   0.00000000   0.00000236  -0.00000000            0.00        0.35       -0.00
  -0.00000112  -0.00000000   0.00001396           -0.16       -0.00        2.05


     BFGS Geometry Optimization
     Energy error            =      0.0E+00 Ry
     Gradient error          =      2.6E-03 Ry/Bohr

     number of scf cycles    =   1
     number of bfgs steps    =   0

     energy             new  =   -5464.1603357594 Ry

     new trust radius        =       0.0026701232 bohr
     new conv_thr            =       0.0000000010 Ry


ATOMIC_POSITIONS (angstrom)
Cr               5.7306818024        1.9854762099       15.6144656127
Cr               2.2921907924        3.9701649201       15.6144660727
I                6.7154160926       -0.0000131800       14.0631398053
I                3.5191131865        2.1253381614       14.0642757995
I                0.0806449965        3.8303161486       14.0642757995
I                4.7464583718       -0.0000114000       17.1640997644
I                4.5037765446        3.8302561119       17.1640408343
I                1.0653052846        2.1253964281       17.1640408343
Cr1              3.4386258764        1.9854730770        9.0315190701
Cr1              0.0001348664        3.9701680530        9.0315195301
I                4.4228525168       -0.0000131800        7.4818806238
I                1.2270206686        2.1253964921        7.4819392716
I               -2.2114475214        3.8302578179        7.4819392716
I                2.4538937130       -0.0000114000       10.5828421284
I                2.2116844244        3.8303146878       10.5817056259
I               -1.2267868356        2.1253378522       10.5817056259



     Writing config-only to output data dir ./ht_afm_qe/ht_afm_qe.save/ :
     XML data file
     NEW-OLD atomic charge density approx. for the potential

     negative rho (up, down):  3.282E-02 3.288E-02
     Generating pointlists ...

     total cpu time spent up to now is     1105.0 secs

     Self-consistent Calculation

     iteration #  1     ecut=    90.00 Ry     beta= 0.50
     Davidson diagonalization with overlap
     ethr =  1.00E-06,  avg # of iterations =  2.0

     Threshold (ethr) on eigenvalues was too large:
     Diagonalizing with lowered threshold

     Davidson diagonalization with overlap
     ethr =  1.91E-09,  avg # of iterations =  4.0

     negative rho (up, down):  3.283E-02 3.289E-02

     total cpu time spent up to now is     1216.0 secs

     total energy              =   -5464.16040118 Ry
     estimated scf accuracy    <       0.00000310 Ry

     total magnetization       =     0.00 Bohr mag/cell
     absolute magnetization    =    14.54 Bohr mag/cell

     iteration #  2     ecut=    90.00 Ry     beta= 0.50
     Davidson diagonalization with overlap
     ethr =  2.21E-09,  avg # of iterations =  4.0

     negative rho (up, down):  3.283E-02 3.289E-02

     total cpu time spent up to now is     1270.6 secs

     total energy              =   -5464.16040044 Ry
     estimated scf accuracy    <       0.00002052 Ry

     total magnetization       =     0.00 Bohr mag/cell
     absolute magnetization    =    14.54 Bohr mag/cell

     iteration #  3     ecut=    90.00 Ry     beta= 0.50
     Davidson diagonalization with overlap
     ethr =  2.21E-09,  avg # of iterations =  2.7

     negative rho (up, down):  3.282E-02 3.288E-02

     total cpu time spent up to now is     1317.9 secs

     total energy              =   -5464.16040331 Ry
     estimated scf accuracy    <       0.00000045 Ry

     total magnetization       =     0.00 Bohr mag/cell
     absolute magnetization    =    14.54 Bohr mag/cell

     iteration #  4     ecut=    90.00 Ry     beta= 0.50
     Davidson diagonalization with overlap
     ethr =  3.20E-10,  avg # of iterations =  4.0

     negative rho (up, down):  3.282E-02 3.288E-02

     total cpu time spent up to now is     1368.6 secs

     total energy              =   -5464.16040350 Ry
     estimated scf accuracy    <       0.00000018 Ry

     total magnetization       =    -0.00 Bohr mag/cell
     absolute magnetization    =    14.54 Bohr mag/cell

     iteration #  5     ecut=    90.00 Ry     beta= 0.50
     Davidson diagonalization with overlap
     ethr =  1.25E-10,  avg # of iterations =  2.2

     negative rho (up, down):  3.282E-02 3.288E-02

     total cpu time spent up to now is     1410.6 secs

     total energy              =   -5464.16040358 Ry
     estimated scf accuracy    <       0.00000011 Ry

     total magnetization       =     0.00 Bohr mag/cell
     absolute magnetization    =    14.54 Bohr mag/cell

     iteration #  6     ecut=    90.00 Ry     beta= 0.50
     Davidson diagonalization with overlap
     ethr =  8.06E-11,  avg # of iterations =  2.2

     negative rho (up, down):  3.281E-02 3.288E-02

     total cpu time spent up to now is     1452.5 secs

     total energy              =   -5464.16040363 Ry
     estimated scf accuracy    <       0.00000003 Ry

     total magnetization       =    -0.00 Bohr mag/cell
     absolute magnetization    =    14.54 Bohr mag/cell

     iteration #  7     ecut=    90.00 Ry     beta= 0.50
     Davidson diagonalization with overlap
     ethr =  2.04E-11,  avg # of iterations =  3.3

     negative rho (up, down):  3.281E-02 3.288E-02

     total cpu time spent up to now is     1499.3 secs

     total energy              =   -5464.16040364 Ry
     estimated scf accuracy    <       0.00000002 Ry

     total magnetization       =     0.00 Bohr mag/cell
     absolute magnetization    =    14.54 Bohr mag/cell

     iteration #  8     ecut=    90.00 Ry     beta= 0.50
     Davidson diagonalization with overlap
     ethr =  1.25E-11,  avg # of iterations =  1.9

     negative rho (up, down):  3.281E-02 3.288E-02

     total cpu time spent up to now is     1539.9 secs

     total energy              =   -5464.16040364 Ry
     estimated scf accuracy    <          1.8E-09 Ry

     total magnetization       =    -0.00 Bohr mag/cell
     absolute magnetization    =    14.54 Bohr mag/cell

     iteration #  9     ecut=    90.00 Ry     beta= 0.50
     Davidson diagonalization with overlap
     ethr =  1.26E-12,  avg # of iterations =  4.0

     negative rho (up, down):  3.281E-02 3.288E-02

     Magnetic moment per site  (integrated on atomic sphere of radius R)
     atom   1 (R=0.162)  charge= 12.4173  magn=  2.9518
     atom   2 (R=0.162)  charge= 12.4173  magn=  2.9518
     atom   3 (R=0.162)  charge=  4.0417  magn= -0.0563
     atom   4 (R=0.162)  charge=  4.0412  magn= -0.0574
     atom   5 (R=0.162)  charge=  4.0412  magn= -0.0574
     atom   6 (R=0.162)  charge=  4.0454  magn= -0.0581
     atom   7 (R=0.162)  charge=  4.0453  magn= -0.0586
     atom   8 (R=0.162)  charge=  4.0453  magn= -0.0586
     atom   9 (R=0.162)  charge= 12.4172  magn= -2.9518
     atom  10 (R=0.162)  charge= 12.4172  magn= -2.9518
     atom  11 (R=0.162)  charge=  4.0454  magn=  0.0581
     atom  12 (R=0.162)  charge=  4.0453  magn=  0.0586
     atom  13 (R=0.162)  charge=  4.0453  magn=  0.0586
     atom  14 (R=0.162)  charge=  4.0417  magn=  0.0563
     atom  15 (R=0.162)  charge=  4.0412  magn=  0.0574
     atom  16 (R=0.162)  charge=  4.0412  magn=  0.0574

     total cpu time spent up to now is     1596.9 secs

     End of self-consistent calculation

 ------ SPIN UP ------------


          k = 0.0000 0.0000 0.0000 (109591 PWs)   bands (ev):

   -77.9516 -77.9506 -74.8769 -74.8759 -49.3603 -49.3589 -49.3522 -49.3514
   -49.3486 -49.3478 -46.3358 -46.3342 -46.3038 -46.3033 -46.2996 -46.2992
   -18.5831 -18.4868 -17.8039 -17.6678 -17.4866 -17.4864 -17.4455 -17.4449
   -17.3453 -17.3450 -17.3037 -17.3035 -10.3105  -9.9949  -9.8536  -9.2965
    -9.1488  -9.1447  -9.0843  -9.0798  -8.9828  -8.9418  -8.7899  -8.7665
    -8.7473  -8.7362  -8.3331  -8.2963  -8.1975  -8.0054  -7.7840  -7.7478
    -7.7213  -7.7068  -7.4316  -7.3156  -7.2545  -7.1313  -6.9728  -6.7614
    -6.7256  -6.5982  -6.3612  -6.3505  -6.2999  -6.2685  -6.2658  -6.0782
    -6.0721  -6.0124  -5.8049  -5.8048  -5.6027  -5.5998  -4.3276  -4.3181
    -3.8785  -3.8767  -3.5714  -3.5702  -3.5675  -3.4785  -3.2358  -3.2325
    -2.8519  -2.8448  -2.5319  -2.5285  -0.7390  -0.4971  -0.1626  -0.0373
     0.0848   0.2176   0.7284   0.7346   0.9185   0.9741   1.3689   1.5380
     1.5985   1.6685   1.9060   2.1298

          k = 0.0000 0.1925 0.0000 (109722 PWs)   bands (ev):

   -77.9516 -77.9506 -74.8769 -74.8759 -49.3603 -49.3590 -49.3522 -49.3512
   -49.3489 -49.3477 -46.3357 -46.3342 -46.3039 -46.3031 -46.2999 -46.2991
   -18.5238 -18.4294 -17.7695 -17.6382 -17.5675 -17.5307 -17.5063 -17.4686
   -17.3594 -17.3550 -17.3122 -17.3096 -10.2718  -9.9734  -9.8082  -9.3330
    -9.2307  -9.1916  -9.1388  -9.0374  -8.9767  -8.9162  -8.8230  -8.7620
    -8.6115  -8.4069  -8.3345  -8.2964  -7.9483  -7.8702  -7.8207  -7.7700
    -7.7165  -7.5589  -7.4008  -7.3593  -7.1616  -7.1185  -7.0006  -6.8972
    -6.7351  -6.6493  -6.4713  -6.4595  -6.3753  -6.3234  -6.2603  -6.1867
    -6.0630  -6.0410  -5.9957  -5.9132  -5.6717  -5.5755  -4.3163  -4.2890
    -4.0590  -3.9253  -3.6343  -3.5008  -3.4923  -3.3772  -3.2632  -3.2593
    -2.8373  -2.8224  -2.6718  -2.5743  -0.6992  -0.1776  -0.0162   0.2763
     0.3989   0.4984   0.5915   0.6205   0.8997   1.0998   1.3034   1.3980
     1.6889   1.7298   1.8833   1.9146

          k = 0.0000 0.3849 0.0000 (109616 PWs)   bands (ev):

   -77.9516 -77.9506 -74.8769 -74.8759 -49.3602 -49.3591 -49.3522 -49.3508
   -49.3494 -49.3475 -46.3356 -46.3344 -46.3040 -46.3025 -46.3004 -46.2990
   -18.3622 -18.2729 -17.7700 -17.7204 -17.6779 -17.5654 -17.5478 -17.5095
   -17.4199 -17.3808 -17.3494 -17.3291 -10.2006  -9.9198  -9.6750  -9.3596
    -9.3053  -9.2317  -9.1271  -9.0115  -8.9306  -8.7528  -8.7047  -8.5873
    -8.4513  -8.3332  -8.2938  -8.1874  -7.9417  -7.8332  -7.7906  -7.6192
    -7.5034  -7.4882  -7.4430  -7.2773  -7.1991  -7.1108  -7.0600  -6.9694
    -6.9555  -6.9147  -6.7647  -6.5060  -6.4894  -6.3989  -6.3172  -6.2212
    -6.0890  -6.0767  -6.0357  -5.9159  -5.7269  -5.5797  -4.2888  -4.2250
    -4.1790  -4.0730  -3.6805  -3.6315  -3.4190  -3.2798  -3.2736  -3.1990
    -2.8291  -2.7926  -2.7259  -2.6510  -0.9079  -0.2052   0.0957   0.4716
     0.5385   0.6986   0.7921   0.9847   1.0383   1.1079   1.1687   1.2320
     1.4515   1.4932   1.5775   1.6846

          k = 0.0000-0.5774 0.0000 (109602 PWs)   bands (ev):

   -77.9516 -77.9506 -74.8769 -74.8759 -49.3602 -49.3591 -49.3522 -49.3504
   -49.3500 -49.3474 -46.3355 -46.3344 -46.3041 -46.3021 -46.3009 -46.2990
   -18.2110 -18.1238 -17.9412 -17.8856 -17.5919 -17.5782 -17.5308 -17.4908
   -17.4771 -17.4240 -17.3788 -17.3400 -10.1866  -9.8960  -9.5662  -9.3593
    -9.2942  -9.1936  -9.1221  -8.8597  -8.8208  -8.7166  -8.6193  -8.5385
    -8.5147  -8.3354  -8.2111  -8.1248  -8.0644  -7.9228  -7.7585  -7.7101
    -7.7071  -7.5337  -7.4729  -7.3824  -7.2119  -7.0655  -7.0512  -6.8931
    -6.8586  -6.7462  -6.6831  -6.5838  -6.5827  -6.4593  -6.3613  -6.3303
    -6.0672  -6.0544  -6.0511  -5.8737  -5.6900  -5.6140  -4.2382  -4.2323
    -4.2090  -4.0906  -3.7342  -3.7194  -3.4432  -3.2555  -3.2515  -3.1615
    -2.8447  -2.7811  -2.6693  -2.6476  -1.1625  -0.4106   0.1027   0.1337
     0.4864   0.7251   0.8254   0.8496   1.0569   1.2212   1.2634   1.3746
     1.4539   1.5194   1.5601   1.5903

          k = 0.1667 0.2887 0.0000 (109615 PWs)   bands (ev):

   -77.9516 -77.9506 -74.8769 -74.8759 -49.3602 -49.3590 -49.3522 -49.3511
   -49.3490 -49.3477 -46.3356 -46.3343 -46.3040 -46.3026 -46.3003 -46.2990
   -18.4117 -18.3222 -17.7071 -17.6924 -17.6544 -17.5823 -17.5593 -17.5193
   -17.3935 -17.3747 -17.3344 -17.3207 -10.1832  -9.8953  -9.7416  -9.3959
    -9.2761  -9.2509  -9.1194  -9.0594  -9.0096  -8.8173  -8.7321  -8.5402
    -8.4986  -8.4323  -8.2433  -8.1072  -7.9741  -7.8875  -7.7716  -7.6630
    -7.5760  -7.4900  -7.3939  -7.2538  -7.1739  -7.1397  -7.0197  -6.9882
    -6.8616  -6.8469  -6.6566  -6.5409  -6.4701  -6.4087  -6.3157  -6.1961
    -6.1232  -6.0886  -5.9837  -5.9380  -5.7287  -5.5697  -4.3048  -4.2355
    -4.2174  -3.9613  -3.6241  -3.6105  -3.4009  -3.3540  -3.2500  -3.2346
    -2.8538  -2.7578  -2.7335  -2.6250  -0.7245  -0.3062   0.0839   0.3303
     0.4652   0.6087   0.7450   0.8971   1.0688   1.1140   1.2130   1.3505
     1.4826   1.5694   1.6396   1.6661

          k = 0.1667 0.4811 0.0000 (109606 PWs)   bands (ev):

   -77.9516 -77.9506 -74.8769 -74.8759 -49.3602 -49.3591 -49.3522 -49.3506
   -49.3496 -49.3475 -46.3355 -46.3344 -46.3041 -46.3020 -46.3009 -46.2989
   -18.2265 -18.1424 -17.8899 -17.8462 -17.6159 -17.6062 -17.5684 -17.4949
   -17.4618 -17.4128 -17.3711 -17.3393 -10.0622  -9.7837  -9.6259  -9.3810
    -9.3099  -9.2084  -9.0987  -8.9723  -8.8964  -8.8332  -8.6726  -8.5840
    -8.4899  -8.3795  -8.3236  -8.2190  -7.9095  -7.8582  -7.7946  -7.7188
    -7.5548  -7.4524  -7.3977  -7.3102  -7.1962  -7.1123  -6.9566  -6.9056
    -6.8396  -6.7876  -6.7141  -6.6715  -6.5471  -6.4671  -6.3539  -6.2993
    -6.1741  -6.0446  -5.9670  -5.8598  -5.7276  -5.6077  -4.2615  -4.2312
    -4.1665  -4.0109  -3.7107  -3.6601  -3.4294  -3.3824  -3.2104  -3.1807
    -2.7936  -2.7480  -2.6657  -2.6514  -0.9885  -0.4476  -0.2750   0.1689
     0.2770   0.5293   0.6145   0.7303   0.9126   1.0132   1.0674   1.1804
     1.2290   1.3496   1.5244   1.6049

          k = 0.3333 0.5774 0.0000 (109542 PWs)   bands (ev):

   -77.9516 -77.9506 -74.8769 -74.8759 -49.3602 -49.3591 -49.3523 -49.3505
   -49.3495 -49.3477 -46.3355 -46.3345 -46.3040 -46.3020 -46.3010 -46.2989
   -18.0547 -18.0383 -17.9920 -17.9737 -17.6668 -17.6214 -17.5274 -17.5118
   -17.4563 -17.4264 -17.3897 -17.3530  -9.7687  -9.7598  -9.4961  -9.4960
    -9.2806  -9.1647  -9.1349  -8.9523  -8.9427  -8.9239  -8.7333  -8.6975
    -8.5743  -8.3547  -8.3368  -8.3338  -8.2681  -7.8486  -7.6853  -7.5595
    -7.3337  -7.3190  -7.2895  -7.2581  -7.2572  -7.1118  -7.0190  -7.0144
    -6.7752  -6.6894  -6.6665  -6.6249  -6.6009  -6.5815  -6.3854  -6.2853
    -6.2701  -6.0000  -5.8947  -5.8706  -5.6876  -5.6580  -4.2717  -4.1663
    -4.1638  -3.9237  -3.6646  -3.6645  -3.4937  -3.4343  -3.1921  -3.1912
    -2.7444  -2.6883  -2.6878  -2.5809  -0.8790  -0.8489  -0.2865  -0.2361
     0.1904   0.2954   0.3350   0.5350   0.6464   0.6961   0.9370   1.0137
     1.1069   1.2206   1.4024   1.4389

          k =-0.1667 0.0962 0.0000 (109722 PWs)   bands (ev):

   -77.9516 -77.9506 -74.8769 -74.8759 -49.3603 -49.3590 -49.3522 -49.3512
   -49.3487 -49.3478 -46.3357 -46.3342 -46.3037 -46.3033 -46.2997 -46.2993
   -18.5235 -18.4297 -17.7693 -17.6387 -17.5697 -17.5246 -17.5100 -17.4686
   -17.3602 -17.3543 -17.3119 -17.3095 -10.2767  -9.9641  -9.8086  -9.3460
    -9.2275  -9.1817  -9.1187  -9.0691  -8.9604  -8.9263  -8.8312  -8.7618
    -8.5968  -8.4012  -8.3529  -8.2827  -7.9598  -7.8908  -7.8335  -7.7510
    -7.6812  -7.5744  -7.4266  -7.3003  -7.2243  -7.1203  -6.9590  -6.9083
    -6.7279  -6.6341  -6.4690  -6.4445  -6.4264  -6.3268  -6.2486  -6.1841
    -6.0604  -6.0498  -5.9927  -5.9087  -5.6690  -5.5781  -4.3132  -4.2921
    -4.0591  -3.9257  -3.6356  -3.4987  -3.4910  -3.3778  -3.2623  -3.2605
    -2.8354  -2.8254  -2.6688  -2.5758  -0.7167  -0.1588   0.0152   0.2734
     0.3647   0.5002   0.5725   0.5993   0.9618   1.1331   1.2107   1.4189
     1.6468   1.7872   1.8986   1.9402

          k =-0.3333 0.1925 0.0000 (109616 PWs)   bands (ev):

   -77.9516 -77.9506 -74.8769 -74.8759 -49.3602 -49.3590 -49.3523 -49.3509
   -49.3490 -49.3478 -46.3356 -46.3344 -46.3037 -46.3031 -46.3000 -46.2992
   -18.3595 -18.2757 -17.7751 -17.7173 -17.6732 -17.5681 -17.5498 -17.5086
   -17.4205 -17.3774 -17.3505 -17.3297 -10.2087  -9.9067  -9.6809  -9.3503
    -9.3001  -9.2103  -9.1497  -9.0297  -8.9168  -8.7642  -8.7227  -8.5886
    -8.4333  -8.3228  -8.2769  -8.1972  -7.9536  -7.8449  -7.8032  -7.6195
    -7.5363  -7.4535  -7.4002  -7.2875  -7.1900  -7.1213  -7.0900  -6.9951
    -6.9672  -6.8562  -6.7514  -6.5161  -6.4933  -6.3869  -6.3412  -6.2223
    -6.0839  -6.0438  -6.0111  -5.9366  -5.7562  -5.5830  -4.2907  -4.2191
    -4.1782  -4.0739  -3.6819  -3.6274  -3.4186  -3.2768  -3.2733  -3.1997
    -2.8310  -2.7923  -2.7243  -2.6519  -0.9372  -0.1592   0.0660   0.4100
     0.5622   0.7298   0.8440   0.9879   1.0507   1.1109   1.1396   1.2872
     1.4079   1.4282   1.5887   1.6561

          k = 0.5000-0.2887 0.0000 (109602 PWs)   bands (ev):

   -77.9516 -77.9506 -74.8769 -74.8759 -49.3602 -49.3591 -49.3524 -49.3506
   -49.3492 -49.3478 -46.3356 -46.3344 -46.3037 -46.3029 -46.3002 -46.2992
   -18.1916 -18.1500 -17.9329 -17.8875 -17.5800 -17.5782 -17.5314 -17.5265
   -17.4529 -17.4159 -17.3862 -17.3401 -10.1907  -9.8967  -9.5531  -9.3602
    -9.3068  -9.1898  -9.0592  -8.9258  -8.8358  -8.7313  -8.6394  -8.5238
    -8.4677  -8.3274  -8.2277  -8.1279  -8.0601  -7.9063  -7.7798  -7.7416
    -7.6913  -7.5368  -7.4149  -7.3755  -7.2897  -7.0706  -7.0495  -6.8790
    -6.8024  -6.7604  -6.7053  -6.5896  -6.5683  -6.4695  -6.3592  -6.3414
    -6.0579  -6.0460  -5.9603  -5.8722  -5.7980  -5.6083  -4.2400  -4.2291
    -4.2076  -4.0839  -3.7297  -3.7201  -3.4424  -3.2534  -3.2502  -3.1618
    -2.8456  -2.7792  -2.6714  -2.6471  -1.1913  -0.3978   0.0757   0.1415
     0.4980   0.7666   0.8157   0.8829   0.9857   1.2596   1.3097   1.3468
     1.4356   1.4968   1.5619   1.5981

          k = 0.3333 0.0000 0.0000 (109615 PWs)   bands (ev):

   -77.9516 -77.9506 -74.8769 -74.8759 -49.3602 -49.3590 -49.3523 -49.3511
   -49.3486 -49.3480 -46.3356 -46.3343 -46.3038 -46.3030 -46.3001 -46.2991
   -18.4108 -18.3230 -17.7058 -17.7018 -17.6403 -17.5925 -17.5579 -17.5163
   -17.3989 -17.3692 -17.3333 -17.3224 -10.1931  -9.8762  -9.7425  -9.4173
    -9.2641  -9.2438  -9.1181  -9.0669  -8.9927  -8.8004  -8.7759  -8.5485
    -8.4918  -8.4223  -8.2260  -8.1272  -7.9444  -7.9252  -7.7799  -7.6854
    -7.5332  -7.5136  -7.3512  -7.2411  -7.1912  -7.1477  -7.0172  -7.0010
    -6.8982  -6.7923  -6.6521  -6.5525  -6.4813  -6.3978  -6.3288  -6.1820
    -6.1062  -6.1042  -5.9744  -5.9530  -5.7317  -5.5718  -4.3086  -4.2366
    -4.2087  -3.9617  -3.6236  -3.6120  -3.3985  -3.3543  -3.2505  -3.2343
    -2.8568  -2.7577  -2.7277  -2.6264  -0.7612  -0.2363   0.0319   0.3177
     0.4338   0.6614   0.7876   0.8713   1.0163   1.1205   1.1897   1.3966
     1.5297   1.5828   1.6186   1.7481

          k =-0.3333 0.3849 0.0000 (109606 PWs)   bands (ev):

   -77.9516 -77.9506 -74.8769 -74.8759 -49.3602 -49.3591 -49.3523 -49.3505
   -49.3494 -49.3477 -46.3356 -46.3344 -46.3039 -46.3026 -46.3004 -46.2991
   -18.2203 -18.1502 -17.8911 -17.8429 -17.6184 -17.6010 -17.5677 -17.5080
   -17.4535 -17.4079 -17.3748 -17.3393 -10.0668  -9.7767  -9.6324  -9.3695
    -9.3035  -9.1903  -9.1156  -8.9810  -8.9195  -8.8277  -8.6896  -8.5630
    -8.4799  -8.3692  -8.3286  -8.2222  -7.9155  -7.8511  -7.8082  -7.7256
    -7.5162  -7.4605  -7.3893  -7.3656  -7.1769  -7.1036  -6.9470  -6.9053
    -6.8608  -6.7894  -6.7216  -6.6507  -6.5210  -6.4796  -6.3611  -6.3276
    -6.1331  -6.0395  -5.9477  -5.8609  -5.7723  -5.6070  -4.2618  -4.2294
    -4.1654  -4.0107  -3.7085  -3.6578  -3.4295  -3.3816  -3.2091  -3.1810
    -2.7943  -2.7466  -2.6676  -2.6512  -1.0116  -0.4292  -0.2741   0.1668
     0.2546   0.5493   0.6633   0.7242   0.8913   0.9822   1.0311   1.2221
     1.2487   1.3605   1.4610   1.5771

          k = 0.5000 0.0962 0.0000 (109606 PWs)   bands (ev):

   -77.9516 -77.9506 -74.8769 -74.8759 -49.3602 -49.3591 -49.3522 -49.3510
   -49.3488 -49.3480 -46.3356 -46.3344 -46.3040 -46.3024 -46.3007 -46.2990
   -18.2193 -18.1504 -17.9007 -17.8325 -17.6209 -17.6055 -17.5609 -17.5054
   -17.4643 -17.3904 -17.3852 -17.3395 -10.0713  -9.7702  -9.6333  -9.3694
    -9.2976  -9.2022  -9.1107  -8.9564  -8.9235  -8.8293  -8.7207  -8.5636
    -8.4943  -8.3638  -8.2801  -8.2447  -7.9341  -7.8553  -7.7968  -7.7284
    -7.4866  -7.4501  -7.4233  -7.3584  -7.1739  -7.1344  -6.9496  -6.8960
    -6.8171  -6.7750  -6.7156  -6.6918  -6.5416  -6.4729  -6.3710  -6.2963
    -6.1380  -6.0446  -5.9401  -5.8610  -5.7864  -5.6059  -4.2576  -4.2295
    -4.1662  -4.0097  -3.7097  -3.6585  -3.4279  -3.3814  -3.2102  -3.1798
    -2.7940  -2.7477  -2.6675  -2.6496  -1.0190  -0.4243  -0.2738   0.1113
     0.2738   0.5694   0.6738   0.7834   0.8690   0.9449   1.0079   1.1641
     1.3472   1.4195   1.5048   1.5520

 ------ SPIN DOWN ----------


          k = 0.0000 0.0000 0.0000 (109591 PWs)   bands (ev):

   -77.9516 -77.9505 -74.8770 -74.8759 -49.3603 -49.3589 -49.3522 -49.3513
   -49.3486 -49.3477 -46.3358 -46.3342 -46.3038 -46.3034 -46.2997 -46.2993
   -18.5831 -18.4868 -17.8040 -17.6678 -17.4866 -17.4865 -17.4455 -17.4449
   -17.3453 -17.3450 -17.3037 -17.3034 -10.3105  -9.9949  -9.8536  -9.2965
    -9.1488  -9.1447  -9.0843  -9.0797  -8.9828  -8.9418  -8.7899  -8.7665
    -8.7473  -8.7362  -8.3331  -8.2963  -8.1975  -8.0054  -7.7840  -7.7478
    -7.7213  -7.7069  -7.4316  -7.3157  -7.2545  -7.1313  -6.9728  -6.7614
    -6.7256  -6.5981  -6.3612  -6.3505  -6.2999  -6.2685  -6.2658  -6.0781
    -6.0721  -6.0123  -5.8049  -5.8048  -5.6027  -5.5997  -4.3276  -4.3181
    -3.8785  -3.8767  -3.5715  -3.5702  -3.5675  -3.4785  -3.2359  -3.2325
    -2.8520  -2.8448  -2.5319  -2.5285  -0.7390  -0.4970  -0.1626  -0.0373
     0.0847   0.2176   0.7284   0.7346   0.9185   0.9742   1.3689   1.5380
     1.5985   1.6685   1.9063   2.1298

          k = 0.0000 0.1925 0.0000 (109722 PWs)   bands (ev):

   -77.9516 -77.9505 -74.8770 -74.8759 -49.3602 -49.3589 -49.3522 -49.3512
   -49.3489 -49.3476 -46.3358 -46.3343 -46.3039 -46.3031 -46.2999 -46.2992
   -18.5238 -18.4294 -17.7695 -17.6382 -17.5675 -17.5307 -17.5063 -17.4685
   -17.3594 -17.3550 -17.3122 -17.3096 -10.2717  -9.9734  -9.8082  -9.3331
    -9.2307  -9.1916  -9.1388  -9.0374  -8.9767  -8.9162  -8.8230  -8.7620
    -8.6115  -8.4069  -8.3345  -8.2964  -7.9483  -7.8702  -7.8206  -7.7700
    -7.7165  -7.5589  -7.4008  -7.3594  -7.1616  -7.1185  -7.0006  -6.8972
    -6.7351  -6.6493  -6.4713  -6.4595  -6.3753  -6.3234  -6.2603  -6.1866
    -6.0629  -6.0410  -5.9957  -5.9132  -5.6717  -5.5755  -4.3163  -4.2890
    -4.0589  -3.9253  -3.6343  -3.5008  -3.4923  -3.3772  -3.2632  -3.2593
    -2.8373  -2.8224  -2.6718  -2.5743  -0.6992  -0.1775  -0.0162   0.2763
     0.3989   0.4983   0.5915   0.6205   0.8997   1.0998   1.3034   1.3980
     1.6889   1.7299   1.8833   1.9146

          k = 0.0000 0.3849 0.0000 (109616 PWs)   bands (ev):

   -77.9516 -77.9505 -74.8770 -74.8759 -49.3602 -49.3590 -49.3522 -49.3508
   -49.3494 -49.3475 -46.3357 -46.3344 -46.3041 -46.3025 -46.3005 -46.2991
   -18.3622 -18.2729 -17.7701 -17.7204 -17.6779 -17.5654 -17.5478 -17.5095
   -17.4199 -17.3809 -17.3494 -17.3291 -10.2006  -9.9198  -9.6750  -9.3596
    -9.3053  -9.2317  -9.1271  -9.0115  -8.9306  -8.7528  -8.7046  -8.5873
    -8.4514  -8.3332  -8.2938  -8.1874  -7.9417  -7.8332  -7.7907  -7.6192
    -7.5033  -7.4882  -7.4430  -7.2773  -7.1991  -7.1107  -7.0600  -6.9694
    -6.9555  -6.9147  -6.7647  -6.5060  -6.4894  -6.3989  -6.3172  -6.2212
    -6.0890  -6.0766  -6.0357  -5.9159  -5.7269  -5.5797  -4.2888  -4.2249
    -4.1789  -4.0729  -3.6806  -3.6316  -3.4190  -3.2799  -3.2737  -3.1991
    -2.8291  -2.7926  -2.7259  -2.6510  -0.9079  -0.2052   0.0957   0.4716
     0.5386   0.6986   0.7921   0.9847   1.0383   1.1080   1.1687   1.2320
     1.4515   1.4932   1.5774   1.6846

          k = 0.0000-0.5774 0.0000 (109602 PWs)   bands (ev):

   -77.9516 -77.9505 -74.8769 -74.8759 -49.3601 -49.3591 -49.3522 -49.3503
   -49.3499 -49.3474 -46.3356 -46.3345 -46.3041 -46.3021 -46.3009 -46.2990
   -18.2110 -18.1238 -17.9412 -17.8856 -17.5919 -17.5782 -17.5308 -17.4908
   -17.4771 -17.4240 -17.3789 -17.3400 -10.1866  -9.8960  -9.5662  -9.3593
    -9.2942  -9.1936  -9.1221  -8.8597  -8.8208  -8.7166  -8.6193  -8.5385
    -8.5147  -8.3354  -8.2111  -8.1248  -8.0644  -7.9228  -7.7585  -7.7100
    -7.7071  -7.5338  -7.4729  -7.3824  -7.2119  -7.0655  -7.0512  -6.8931
    -6.8585  -6.7462  -6.6831  -6.5838  -6.5827  -6.4593  -6.3613  -6.3303
    -6.0671  -6.0545  -6.0511  -5.8737  -5.6900  -5.6140  -4.2381  -4.2322
    -4.2090  -4.0906  -3.7342  -3.7194  -3.4432  -3.2556  -3.2515  -3.1615
    -2.8447  -2.7811  -2.6693  -2.6476  -1.1625  -0.4106   0.1027   0.1337
     0.4864   0.7251   0.8254   0.8496   1.0569   1.2212   1.2635   1.3746
     1.4539   1.5194   1.5601   1.5903

          k = 0.1667 0.2887 0.0000 (109615 PWs)   bands (ev):

   -77.9516 -77.9505 -74.8770 -74.8759 -49.3602 -49.3590 -49.3522 -49.3508
   -49.3492 -49.3476 -46.3357 -46.3344 -46.3039 -46.3029 -46.3001 -46.2992
   -18.4117 -18.3222 -17.7071 -17.6925 -17.6544 -17.5823 -17.5593 -17.5193
   -17.3935 -17.3747 -17.3344 -17.3207 -10.1832  -9.8953  -9.7415  -9.3959
    -9.2761  -9.2509  -9.1193  -9.0594  -9.0096  -8.8173  -8.7321  -8.5402
    -8.4987  -8.4322  -8.2432  -8.1072  -7.9742  -7.8874  -7.7716  -7.6630
    -7.5760  -7.4900  -7.3938  -7.2538  -7.1739  -7.1398  -7.0197  -6.9882
    -6.8616  -6.8468  -6.6565  -6.5409  -6.4701  -6.4087  -6.3157  -6.1961
    -6.1232  -6.0886  -5.9837  -5.9378  -5.7287  -5.5697  -4.3048  -4.2355
    -4.2173  -3.9613  -3.6241  -3.6106  -3.4009  -3.3540  -3.2500  -3.2346
    -2.8539  -2.7578  -2.7336  -2.6250  -0.7245  -0.3062   0.0839   0.3304
     0.4652   0.6087   0.7451   0.8970   1.0689   1.1140   1.2130   1.3505
     1.4826   1.5694   1.6396   1.6662

          k = 0.1667 0.4811 0.0000 (109606 PWs)   bands (ev):

   -77.9516 -77.9505 -74.8769 -74.8759 -49.3601 -49.3591 -49.3522 -49.3504
   -49.3498 -49.3475 -46.3356 -46.3345 -46.3041 -46.3022 -46.3008 -46.2990
   -18.2265 -18.1424 -17.8899 -17.8462 -17.6159 -17.6062 -17.5684 -17.4949
   -17.4618 -17.4128 -17.3711 -17.3393 -10.0622  -9.7837  -9.6259  -9.3810
    -9.3099  -9.2084  -9.0987  -8.9723  -8.8964  -8.8332  -8.6725  -8.5840
    -8.4899  -8.3795  -8.3236  -8.2190  -7.9095  -7.8582  -7.7946  -7.7189
    -7.5548  -7.4524  -7.3977  -7.3102  -7.1962  -7.1124  -6.9567  -6.9055
    -6.8396  -6.7876  -6.7141  -6.6715  -6.5472  -6.4670  -6.3539  -6.2993
    -6.1741  -6.0446  -5.9670  -5.8598  -5.7276  -5.6077  -4.2615  -4.2311
    -4.1665  -4.0109  -3.7107  -3.6601  -3.4294  -3.3825  -3.2104  -3.1808
    -2.7936  -2.7481  -2.6657  -2.6515  -0.9885  -0.4475  -0.2750   0.1689
     0.2770   0.5293   0.6145   0.7304   0.9126   1.0132   1.0674   1.1804
     1.2290   1.3495   1.5244   1.6050

          k = 0.3333 0.5774 0.0000 (109542 PWs)   bands (ev):

   -77.9516 -77.9505 -74.8769 -74.8759 -49.3601 -49.3591 -49.3522 -49.3505
   -49.3494 -49.3476 -46.3356 -46.3345 -46.3041 -46.3020 -46.3011 -46.2990
   -18.0547 -18.0383 -17.9920 -17.9737 -17.6668 -17.6214 -17.5274 -17.5118
   -17.4563 -17.4264 -17.3897 -17.3530  -9.7687  -9.7598  -9.4961  -9.4960
    -9.2806  -9.1647  -9.1349  -8.9522  -8.9427  -8.9239  -8.7333  -8.6975
    -8.5743  -8.3548  -8.3368  -8.3338  -8.2681  -7.8486  -7.6853  -7.5595
    -7.3337  -7.3190  -7.2895  -7.2581  -7.2572  -7.1118  -7.0190  -7.0144
    -6.7752  -6.6894  -6.6665  -6.6249  -6.6009  -6.5815  -6.3854  -6.2853
    -6.2701  -6.0000  -5.8946  -5.8706  -5.6876  -5.6580  -4.2717  -4.1663
    -4.1638  -3.9237  -3.6646  -3.6646  -3.4937  -3.4343  -3.1921  -3.1912
    -2.7444  -2.6883  -2.6879  -2.5810  -0.8790  -0.8489  -0.2865  -0.2361
     0.1904   0.2955   0.3350   0.5350   0.6464   0.6961   0.9370   1.0137
     1.1069   1.2206   1.4024   1.4389

          k =-0.1667 0.0962 0.0000 (109722 PWs)   bands (ev):

   -77.9516 -77.9505 -74.8770 -74.8759 -49.3602 -49.3589 -49.3522 -49.3513
   -49.3486 -49.3478 -46.3358 -46.3343 -46.3039 -46.3032 -46.2999 -46.2992
   -18.5235 -18.4297 -17.7693 -17.6387 -17.5697 -17.5246 -17.5100 -17.4686
   -17.3602 -17.3543 -17.3119 -17.3095 -10.2767  -9.9641  -9.8086  -9.3460
    -9.2275  -9.1817  -9.1187  -9.0691  -8.9603  -8.9264  -8.8312  -8.7618
    -8.5968  -8.4011  -8.3530  -8.2826  -7.9598  -7.8908  -7.8335  -7.7510
    -7.6812  -7.5745  -7.4266  -7.3003  -7.2243  -7.1203  -6.9589  -6.9083
    -6.7279  -6.6341  -6.4690  -6.4445  -6.4264  -6.3267  -6.2486  -6.1841
    -6.0603  -6.0498  -5.9927  -5.9087  -5.6690  -5.5781  -4.3132  -4.2921
    -4.0591  -3.9257  -3.6356  -3.4988  -3.4910  -3.3778  -3.2623  -3.2605
    -2.8354  -2.8255  -2.6688  -2.5758  -0.7166  -0.1588   0.0152   0.2734
     0.3647   0.5002   0.5725   0.5993   0.9619   1.1331   1.2107   1.4189
     1.6468   1.7873   1.8986   1.9402

          k =-0.3333 0.1925 0.0000 (109616 PWs)   bands (ev):

   -77.9516 -77.9505 -74.8770 -74.8759 -49.3602 -49.3590 -49.3521 -49.3512
   -49.3485 -49.3480 -46.3357 -46.3344 -46.3040 -46.3027 -46.3004 -46.2991
   -18.3595 -18.2757 -17.7751 -17.7173 -17.6732 -17.5681 -17.5499 -17.5086
   -17.4205 -17.3774 -17.3505 -17.3296 -10.2086  -9.9067  -9.6809  -9.3503
    -9.3001  -9.2103  -9.1498  -9.0296  -8.9168  -8.7643  -8.7227  -8.5886
    -8.4333  -8.3228  -8.2768  -8.1972  -7.9536  -7.8450  -7.8032  -7.6195
    -7.5362  -7.4534  -7.4003  -7.2875  -7.1900  -7.1213  -7.0900  -6.9951
    -6.9672  -6.8562  -6.7515  -6.5161  -6.4933  -6.3869  -6.3411  -6.2223
    -6.0839  -6.0438  -6.0111  -5.9366  -5.7561  -5.5830  -4.2906  -4.2191
    -4.1781  -4.0739  -3.6820  -3.6275  -3.4187  -3.2769  -3.2733  -3.1997
    -2.8310  -2.7923  -2.7243  -2.6519  -0.9372  -0.1592   0.0660   0.4100
     0.5622   0.7299   0.8440   0.9879   1.0507   1.1109   1.1397   1.2873
     1.4079   1.4281   1.5888   1.6561

          k = 0.5000-0.2887 0.0000 (109602 PWs)   bands (ev):

   -77.9516 -77.9505 -74.8769 -74.8759 -49.3601 -49.3590 -49.3521 -49.3511
   -49.3486 -49.3481 -46.3356 -46.3345 -46.3040 -46.3024 -46.3007 -46.2990
   -18.1916 -18.1500 -17.9329 -17.8875 -17.5800 -17.5782 -17.5314 -17.5265
   -17.4529 -17.4159 -17.3862 -17.3401 -10.1907  -9.8967  -9.5531  -9.3602
    -9.3068  -9.1898  -9.0593  -8.9258  -8.8358  -8.7312  -8.6394  -8.5238
    -8.4677  -8.3274  -8.2276  -8.1279  -8.0601  -7.9063  -7.7798  -7.7415
    -7.6913  -7.5368  -7.4149  -7.3755  -7.2897  -7.0706  -7.0495  -6.8790
    -6.8024  -6.7604  -6.7053  -6.5895  -6.5684  -6.4695  -6.3592  -6.3414
    -6.0579  -6.0461  -5.9603  -5.8722  -5.7980  -5.6083  -4.2398  -4.2292
    -4.2078  -4.0838  -3.7297  -3.7201  -3.4424  -3.2534  -3.2502  -3.1618
    -2.8456  -2.7792  -2.6714  -2.6471  -1.1913  -0.3979   0.0757   0.1416
     0.4980   0.7666   0.8157   0.8829   0.9857   1.2596   1.3097   1.3468
     1.4356   1.4969   1.5619   1.5981

          k = 0.3333 0.0000 0.0000 (109615 PWs)   bands (ev):

   -77.9516 -77.9505 -74.8770 -74.8759 -49.3602 -49.3590 -49.3522 -49.3511
   -49.3486 -49.3479 -46.3357 -46.3344 -46.3038 -46.3031 -46.3001 -46.2992
   -18.4108 -18.3230 -17.7058 -17.7018 -17.6403 -17.5925 -17.5579 -17.5162
   -17.3990 -17.3692 -17.3332 -17.3224 -10.1930  -9.8762  -9.7425  -9.4173
    -9.2641  -9.2438  -9.1182  -9.0669  -8.9928  -8.8005  -8.7759  -8.5485
    -8.4918  -8.4223  -8.2260  -8.1272  -7.9444  -7.9251  -7.7799  -7.6854
    -7.5332  -7.5136  -7.3512  -7.2411  -7.1912  -7.1477  -7.0172  -7.0010
    -6.8982  -6.7923  -6.6521  -6.5525  -6.4813  -6.3978  -6.3287  -6.1820
    -6.1062  -6.1042  -5.9744  -5.9530  -5.7317  -5.5718  -4.3086  -4.2366
    -4.2087  -3.9617  -3.6237  -3.6120  -3.3986  -3.3543  -3.2505  -3.2343
    -2.8568  -2.7577  -2.7278  -2.6264  -0.7612  -0.2363   0.0319   0.3177
     0.4339   0.6614   0.7876   0.8712   1.0163   1.1205   1.1897   1.3966
     1.5297   1.5829   1.6186   1.7482

          k =-0.3333 0.3849 0.0000 (109606 PWs)   bands (ev):

   -77.9516 -77.9505 -74.8769 -74.8759 -49.3601 -49.3590 -49.3522 -49.3509
   -49.3490 -49.3478 -46.3356 -46.3345 -46.3041 -46.3022 -46.3009 -46.2990
   -18.2203 -18.1502 -17.8911 -17.8429 -17.6184 -17.6010 -17.5677 -17.5080
   -17.4535 -17.4079 -17.3749 -17.3393 -10.0668  -9.7768  -9.6324  -9.3695
    -9.3035  -9.1903  -9.1157  -8.9810  -8.9195  -8.8277  -8.6896  -8.5630
    -8.4799  -8.3692  -8.3285  -8.2222  -7.9155  -7.8511  -7.8082  -7.7257
    -7.5161  -7.4605  -7.3893  -7.3656  -7.1769  -7.1036  -6.9470  -6.9053
    -6.8608  -6.7894  -6.7216  -6.6507  -6.5210  -6.4796  -6.3611  -6.3275
    -6.1332  -6.0395  -5.9477  -5.8608  -5.7723  -5.6070  -4.2618  -4.2294
    -4.1653  -4.0107  -3.7085  -3.6578  -3.4295  -3.3816  -3.2092  -3.1811
    -2.7943  -2.7467  -2.6677  -2.6512  -1.0116  -0.4292  -0.2741   0.1668
     0.2546   0.5494   0.6633   0.7242   0.8913   0.9822   1.0310   1.2221
     1.2487   1.3605   1.4609   1.5771

          k = 0.5000 0.0962 0.0000 (109606 PWs)   bands (ev):

   -77.9516 -77.9505 -74.8769 -74.8759 -49.3601 -49.3590 -49.3523 -49.3507
   -49.3491 -49.3478 -46.3356 -46.3345 -46.3039 -46.3027 -46.3004 -46.2991
   -18.2193 -18.1504 -17.9008 -17.8325 -17.6209 -17.6056 -17.5608 -17.5054
   -17.4643 -17.3904 -17.3852 -17.3395 -10.0712  -9.7702  -9.6333  -9.3694
    -9.2976  -9.2022  -9.1107  -8.9565  -8.9235  -8.8293  -8.7206  -8.5636
[...]
    -2.7913  -2.7454  -2.6642  -2.6443  -1.0170  -0.4214  -0.2763   0.1106
     0.2748   0.5715   0.6733   0.7786   0.8646   0.9452   1.0066   1.1642
     1.3425   1.4177   1.5060   1.5535

 ------ SPIN DOWN ----------


          k = 0.0000 0.0000 0.0000 (109591 PWs)   bands (ev):

   -77.9503 -77.9492 -74.8791 -74.8780 -49.3586 -49.3572 -49.3513 -49.3507
   -49.3477 -49.3470 -46.3358 -46.3342 -46.3076 -46.3067 -46.3035 -46.3026
   -18.5931 -18.4996 -17.8026 -17.6675 -17.4952 -17.4910 -17.4545 -17.4508
   -17.3531 -17.3498 -17.3123 -17.3095 -10.3183 -10.0015  -9.8570  -9.3055
    -9.1602  -9.1527  -9.0987  -9.0921  -8.9921  -8.9526  -8.7972  -8.7778
    -8.7472  -8.7369  -8.3431  -8.3062  -8.2125  -8.0164  -7.7876  -7.7572
    -7.7295  -7.7149  -7.4347  -7.3178  -7.2535  -7.1342  -6.9714  -6.7646
    -6.7309  -6.6031  -6.3629  -6.3549  -6.2957  -6.2698  -6.2653  -6.0774
    -6.0707  -6.0129  -5.8093  -5.8088  -5.6048  -5.6048  -4.3235  -4.3126
    -3.8731  -3.8701  -3.5777  -3.5772  -3.5753  -3.4788  -3.2385  -3.2368
    -2.8503  -2.8426  -2.5272  -2.5233  -0.7192  -0.4937  -0.1726  -0.0192
     0.0750   0.2166   0.7410   0.7446   0.9174   0.9740   1.3809   1.5487
     1.6007   1.6738   1.8867   2.1344

          k = 0.0000 0.1925 0.0000 (109722 PWs)   bands (ev):

   -77.9503 -77.9492 -74.8791 -74.8780 -49.3585 -49.3572 -49.3514 -49.3505
   -49.3480 -49.3469 -46.3357 -46.3343 -46.3077 -46.3064 -46.3036 -46.3027
   -18.5338 -18.4422 -17.7684 -17.6380 -17.5727 -17.5371 -17.5150 -17.4784
   -17.3640 -17.3621 -17.3186 -17.3163 -10.2805  -9.9810  -9.8122  -9.3430
    -9.2390  -9.1992  -9.1496  -9.0469  -8.9840  -8.9296  -8.8344  -8.7720
    -8.6136  -8.4155  -8.3440  -8.3023  -7.9612  -7.8773  -7.8268  -7.7764
    -7.7250  -7.5718  -7.4034  -7.3627  -7.1583  -7.1225  -7.0028  -6.9023
    -6.7364  -6.6533  -6.4752  -6.4610  -6.3794  -6.3253  -6.2608  -6.1838
    -6.0608  -6.0404  -5.9954  -5.9174  -5.6723  -5.5793  -4.3119  -4.2826
    -4.0536  -3.9187  -3.6419  -3.5038  -3.4974  -3.3807  -3.2670  -3.2636
    -2.8359  -2.8190  -2.6685  -2.5696  -0.6814  -0.1707  -0.0046   0.2670
     0.4006   0.4933   0.5917   0.6271   0.9034   1.1065   1.3111   1.3993
     1.6900   1.7298   1.8743   1.9094

          k = 0.0000 0.3849 0.0000 (109616 PWs)   bands (ev):

   -77.9503 -77.9492 -74.8791 -74.8780 -49.3585 -49.3573 -49.3514 -49.3500
   -49.3486 -49.3468 -46.3356 -46.3344 -46.3078 -46.3059 -46.3039 -46.3028
   -18.3722 -18.2858 -17.7755 -17.7271 -17.6777 -17.5704 -17.5531 -17.5196
   -17.4228 -17.3874 -17.3534 -17.3368 -10.2119  -9.9299  -9.6806  -9.3672
    -9.3116  -9.2395  -9.1363  -9.0209  -8.9413  -8.7616  -8.7125  -8.5969
    -8.4592  -8.3451  -8.3021  -8.1985  -7.9505  -7.8396  -7.8000  -7.6247
    -7.5059  -7.4914  -7.4486  -7.2799  -7.2036  -7.1216  -7.0727  -6.9664
    -6.9623  -6.9159  -6.7634  -6.5087  -6.4917  -6.3969  -6.3185  -6.2149
    -6.0899  -6.0786  -6.0337  -5.9162  -5.7279  -5.5814  -4.2841  -4.2187
    -4.1718  -4.0669  -3.6865  -3.6334  -3.4242  -3.2866  -3.2774  -3.2017
    -2.8271  -2.7903  -2.7219  -2.6476  -0.8996  -0.1971   0.1009   0.4770
     0.5375   0.7059   0.7942   0.9891   1.0325   1.1008   1.1669   1.2297
     1.4479   1.4864   1.5625   1.6822

          k = 0.0000-0.5774 0.0000 (109602 PWs)   bands (ev):

   -77.9503 -77.9492 -74.8791 -74.8781 -49.3584 -49.3573 -49.3515 -49.3495
   -49.3491 -49.3467 -46.3356 -46.3344 -46.3079 -46.3055 -46.3042 -46.3028
   -18.2221 -18.1382 -17.9458 -17.8914 -17.5926 -17.5870 -17.5405 -17.4926
   -17.4800 -17.4266 -17.3850 -17.3476 -10.1992  -9.9080  -9.5727  -9.3654
    -9.2999  -9.1992  -9.1341  -8.8679  -8.8256  -8.7248  -8.6333  -8.5442
    -8.5247  -8.3477  -8.2179  -8.1366  -8.0760  -7.9330  -7.7618  -7.7235
    -7.7121  -7.5429  -7.4742  -7.3840  -7.2110  -7.0771  -7.0513  -6.8905
    -6.8655  -6.7520  -6.6849  -6.5865  -6.5834  -6.4530  -6.3628  -6.3257
    -6.0673  -6.0579  -6.0493  -5.8737  -5.6934  -5.6139  -4.2332  -4.2259
    -4.2049  -4.0811  -3.7370  -3.7246  -3.4480  -3.2631  -3.2548  -3.1639
    -2.8424  -2.7799  -2.6666  -2.6416  -1.1584  -0.4088   0.1048   0.1390
     0.4870   0.7197   0.8286   0.8537   1.0524   1.2179   1.2527   1.3758
     1.4586   1.5186   1.5640   1.5859

          k = 0.1667 0.2887 0.0000 (109615 PWs)   bands (ev):

   -77.9503 -77.9492 -74.8791 -74.8780 -49.3585 -49.3573 -49.3515 -49.3501
   -49.3484 -49.3468 -46.3357 -46.3343 -46.3076 -46.3063 -46.3037 -46.3027
   -18.4214 -18.3346 -17.7073 -17.6982 -17.6611 -17.5839 -17.5682 -17.5291
   -17.3977 -17.3804 -17.3392 -17.3274 -10.1925  -9.9041  -9.7477  -9.4062
    -9.2844  -9.2581  -9.1260  -9.0690  -9.0207  -8.8265  -8.7410  -8.5523
    -8.5077  -8.4391  -8.2523  -8.1186  -7.9802  -7.8926  -7.7795  -7.6697
    -7.5792  -7.4939  -7.4010  -7.2649  -7.1768  -7.1432  -7.0203  -6.9940
    -6.8648  -6.8507  -6.6616  -6.5426  -6.4732  -6.4059  -6.3177  -6.1908
    -6.1257  -6.0887  -5.9823  -5.9374  -5.7284  -5.5724  -4.3001  -4.2281
    -4.2121  -3.9545  -3.6263  -3.6171  -3.4044  -3.3590  -3.2537  -3.2395
    -2.8515  -2.7539  -2.7318  -2.6205  -0.7119  -0.3017   0.0897   0.3321
     0.4666   0.6094   0.7483   0.8918   1.0729   1.1125   1.2149   1.3503
     1.4832   1.5614   1.6352   1.6629

          k = 0.1667 0.4811 0.0000 (109606 PWs)   bands (ev):

   -77.9503 -77.9492 -74.8791 -74.8781 -49.3584 -49.3573 -49.3515 -49.3496
   -49.3489 -49.3468 -46.3356 -46.3344 -46.3078 -46.3056 -46.3042 -46.3027
   -18.2366 -18.1553 -17.8953 -17.8528 -17.6255 -17.6075 -17.5787 -17.4970
   -17.4638 -17.4171 -17.3757 -17.3461 -10.0738  -9.7945  -9.6337  -9.3883
    -9.3177  -9.2168  -9.1077  -8.9809  -8.9025  -8.8455  -8.6782  -8.5927
    -8.5019  -8.3888  -8.3320  -8.2274  -7.9164  -7.8658  -7.8015  -7.7298
    -7.5569  -7.4606  -7.4046  -7.3116  -7.1988  -7.1172  -6.9578  -6.9107
    -6.8420  -6.7929  -6.7175  -6.6753  -6.5449  -6.4633  -6.3553  -6.2982
    -6.1770  -6.0469  -5.9636  -5.8594  -5.7293  -5.6092  -4.2572  -4.2253
    -4.1581  -4.0033  -3.7136  -3.6638  -3.4349  -3.3876  -3.2150  -3.1840
    -2.7914  -2.7467  -2.6618  -2.6460  -0.9844  -0.4471  -0.2747   0.1671
     0.2800   0.5314   0.6058   0.7317   0.9099   1.0137   1.0636   1.1798
     1.2240   1.3520   1.5225   1.6036

          k = 0.3333 0.5774 0.0000 (109542 PWs)   bands (ev):

   -77.9503 -77.9492 -74.8791 -74.8781 -49.3584 -49.3573 -49.3515 -49.3497
   -49.3487 -49.3469 -46.3355 -46.3345 -46.3077 -46.3056 -46.3046 -46.3025
   -18.0652 -18.0443 -17.9990 -17.9875 -17.6764 -17.6314 -17.5295 -17.5130
   -17.4582 -17.4304 -17.3947 -17.3580  -9.7771  -9.7709  -9.5068  -9.5048
    -9.2933  -9.1719  -9.1412  -8.9631  -8.9501  -8.9354  -8.7398  -8.7029
    -8.5848  -8.3634  -8.3448  -8.3426  -8.2735  -7.8536  -7.6972  -7.5620
    -7.3465  -7.3255  -7.2911  -7.2619  -7.2612  -7.1232  -7.0178  -7.0154
    -6.7672  -6.6937  -6.6705  -6.6311  -6.6061  -6.5754  -6.3872  -6.2869
    -6.2725  -6.0016  -5.8942  -5.8704  -5.6889  -5.6583  -4.2679  -4.1582
    -4.1560  -3.9151  -3.6672  -3.6666  -3.4995  -3.4409  -3.1969  -3.1935
    -2.7437  -2.6845  -2.6840  -2.5748  -0.8818  -0.8480  -0.2892  -0.2408
     0.1859   0.2966   0.3328   0.5327   0.6499   0.6903   0.9387   1.0096
     1.1038   1.2234   1.4013   1.4400

          k =-0.1667 0.0962 0.0000 (109722 PWs)   bands (ev):

   -77.9503 -77.9492 -74.8791 -74.8780 -49.3585 -49.3572 -49.3513 -49.3506
   -49.3477 -49.3471 -46.3357 -46.3343 -46.3075 -46.3066 -46.3037 -46.3026
   -18.5333 -18.4423 -17.7682 -17.6384 -17.5779 -17.5328 -17.5173 -17.4757
   -17.3668 -17.3594 -17.3178 -17.3166 -10.2847  -9.9716  -9.8130  -9.3564
    -9.2361  -9.1889  -9.1283  -9.0765  -8.9711  -8.9378  -8.8419  -8.7740
    -8.6005  -8.4106  -8.3608  -8.2894  -7.9701  -7.8955  -7.8444  -7.7584
    -7.6864  -7.5882  -7.4301  -7.3024  -7.2231  -7.1244  -6.9612  -6.9119
    -6.7294  -6.6396  -6.4714  -6.4475  -6.4287  -6.3288  -6.2497  -6.1816
    -6.0591  -6.0479  -5.9929  -5.9126  -5.6707  -5.5803  -4.3082  -4.2866
    -4.0532  -3.9197  -3.6424  -3.5010  -3.4962  -3.3829  -3.2658  -3.2647
    -2.8334  -2.8228  -2.6651  -2.5713  -0.6987  -0.1535   0.0280   0.2658
     0.3687   0.4972   0.5723   0.6003   0.9639   1.1368   1.2164   1.4257
     1.6473   1.7819   1.8943   1.9368

          k =-0.3333 0.1925 0.0000 (109616 PWs)   bands (ev):

   -77.9503 -77.9492 -74.8791 -74.8780 -49.3585 -49.3573 -49.3513 -49.3505
   -49.3478 -49.3472 -46.3356 -46.3344 -46.3074 -46.3063 -46.3041 -46.3025
   -18.3685 -18.2872 -17.7842 -17.7278 -17.6735 -17.5708 -17.5544 -17.5166
   -17.4251 -17.3826 -17.3556 -17.3355 -10.2177  -9.9162  -9.6876  -9.3590
    -9.3053  -9.2194  -9.1557  -9.0389  -8.9278  -8.7736  -8.7327  -8.6004
    -8.4444  -8.3310  -8.2856  -8.2091  -7.9614  -7.8485  -7.8121  -7.6225
    -7.5414  -7.4582  -7.4047  -7.2870  -7.1958  -7.1342  -7.0984  -7.0019
    -6.9731  -6.8572  -6.7481  -6.5183  -6.4957  -6.3844  -6.3428  -6.2170
    -6.0853  -6.0420  -6.0130  -5.9368  -5.7566  -5.5834  -4.2856  -4.2121
    -4.1718  -4.0679  -3.6872  -3.6297  -3.4240  -3.2825  -3.2761  -3.2043
    -2.8282  -2.7894  -2.7206  -2.6486  -0.9304  -0.1549   0.0744   0.4153
     0.5626   0.7359   0.8435   0.9884   1.0517   1.1054   1.1364   1.2844
     1.4003   1.4242   1.5861   1.6567

          k = 0.5000-0.2887 0.0000 (109602 PWs)   bands (ev):

   -77.9503 -77.9492 -74.8791 -74.8781 -49.3584 -49.3573 -49.3513 -49.3504
   -49.3479 -49.3472 -46.3356 -46.3344 -46.3074 -46.3061 -46.3044 -46.3025
   -18.1992 -18.1587 -17.9446 -17.9007 -17.5864 -17.5785 -17.5351 -17.5324
   -17.4561 -17.4201 -17.3920 -17.3458 -10.2009  -9.9073  -9.5608  -9.3650
    -9.3137  -9.1958  -9.0706  -8.9324  -8.8438  -8.7430  -8.6503  -8.5362
    -8.4768  -8.3390  -8.2322  -8.1397  -8.0687  -7.9181  -7.7823  -7.7488
    -7.7014  -7.5436  -7.4166  -7.3785  -7.2878  -7.0741  -7.0604  -6.8860
    -6.8056  -6.7664  -6.7005  -6.5926  -6.5707  -6.4619  -6.3621  -6.3364
    -6.0578  -6.0473  -5.9626  -5.8730  -5.7999  -5.6071  -4.2347  -4.2226
    -4.2023  -4.0751  -3.7330  -3.7249  -3.4476  -3.2590  -3.2531  -3.1662
    -2.8424  -2.7763  -2.6687  -2.6422  -1.1896  -0.3992   0.0787   0.1498
     0.4970   0.7606   0.8200   0.8877   0.9786   1.2536   1.3058   1.3494
     1.4375   1.4942   1.5644   1.5975

          k = 0.3333 0.0000 0.0000 (109615 PWs)   bands (ev):

   -77.9503 -77.9492 -74.8791 -74.8780 -49.3585 -49.3573 -49.3514 -49.3504
   -49.3478 -49.3471 -46.3357 -46.3343 -46.3072 -46.3068 -46.3039 -46.3025
   -18.4199 -18.3347 -17.7112 -17.7053 -17.6522 -17.5927 -17.5638 -17.5235
   -17.4044 -17.3738 -17.3398 -17.3270 -10.2010  -9.8848  -9.7500  -9.4280
    -9.2695  -9.2516  -9.1231  -9.0765  -9.0031  -8.8092  -8.7866  -8.5610
    -8.5036  -8.4312  -8.2339  -8.1376  -7.9503  -7.9310  -7.7878  -7.6892
    -7.5408  -7.5173  -7.3578  -7.2538  -7.1922  -7.1493  -7.0235  -7.0062
    -6.8984  -6.7951  -6.6583  -6.5533  -6.4842  -6.3958  -6.3296  -6.1763
    -6.1102  -6.1056  -5.9719  -5.9520  -5.7320  -5.5731  -4.3032  -4.2297
    -4.2036  -3.9551  -3.6259  -3.6174  -3.4030  -3.3594  -3.2553  -3.2381
    -2.8540  -2.7552  -2.7258  -2.6211  -0.7490  -0.2313   0.0383   0.3190
     0.4338   0.6624   0.7926   0.8665   1.0128   1.1300   1.1856   1.3931
     1.5287   1.5729   1.6153   1.7486

          k =-0.3333 0.3849 0.0000 (109606 PWs)   bands (ev):

   -77.9503 -77.9492 -74.8791 -74.8781 -49.3584 -49.3573 -49.3514 -49.3502
   -49.3482 -49.3470 -46.3356 -46.3344 -46.3076 -46.3058 -46.3045 -46.3025
   -18.2291 -18.1608 -17.9003 -17.8532 -17.6262 -17.6023 -17.5766 -17.5092
   -17.4572 -17.4117 -17.3803 -17.3446 -10.0766  -9.7869  -9.6408  -9.3780
    -9.3099  -9.2005  -9.1226  -8.9875  -8.9301  -8.8407  -8.6965  -8.5729
    -8.4909  -8.3785  -8.3356  -8.2297  -7.9227  -7.8597  -7.8132  -7.7359
    -7.5196  -7.4682  -7.3929  -7.3685  -7.1792  -7.1111  -6.9487  -6.9099
    -6.8659  -6.7940  -6.7241  -6.6535  -6.5211  -6.4745  -6.3612  -6.3274
    -6.1360  -6.0415  -5.9455  -5.8604  -5.7738  -5.6075  -4.2572  -4.2230
    -4.1572  -4.0032  -3.7112  -3.6620  -3.4354  -3.3858  -3.2123  -3.1862
    -2.7914  -2.7446  -2.6639  -2.6463  -1.0098  -0.4270  -0.2761   0.1661
     0.2572   0.5502   0.6599   0.7228   0.8904   0.9817   1.0260   1.2227
     1.2437   1.3624   1.4621   1.5722

          k = 0.5000 0.0962 0.0000 (109606 PWs)   bands (ev):

   -77.9503 -77.9492 -74.8791 -74.8781 -49.3584 -49.3573 -49.3515 -49.3500
   -49.3483 -49.3470 -46.3356 -46.3344 -46.3073 -46.3064 -46.3042 -46.3025
   -18.2272 -18.1601 -17.9111 -17.8455 -17.6279 -17.6069 -17.5681 -17.5070
   -17.4680 -17.3951 -17.3904 -17.3442 -10.0805  -9.7803  -9.6428  -9.3779
    -9.3039  -9.2106  -9.1169  -8.9632  -8.9326  -8.8422  -8.7282  -8.5733
    -8.5062  -8.3730  -8.2896  -8.2534  -7.9417  -7.8630  -7.8013  -7.7391
    -7.4901  -7.4584  -7.4290  -7.3600  -7.1758  -7.1403  -6.9534  -6.9000
    -6.8220  -6.7788  -6.7169  -6.6954  -6.5404  -6.4688  -6.3707  -6.2959
    -6.1415  -6.0476  -5.9374  -5.8607  -5.7877  -5.6058  -4.2531  -4.2232
    -4.1578  -4.0024  -3.7130  -3.6620  -3.4335  -3.3859  -3.2147  -3.1835
    -2.7913  -2.7455  -2.6643  -2.6443  -1.0169  -0.4214  -0.2764   0.1106
     0.2748   0.5715   0.6733   0.7786   0.8646   0.9452   1.0066   1.1642
     1.3425   1.4177   1.5060   1.5535

     highest occupied, lowest unoccupied level (ev):    -5.5724   -4.3235

!    total energy              =   -5464.16064116 Ry
     total all-electron energy =     -5464.160641 Ry
     estimated scf accuracy    <          1.4E-12 Ry

     The total energy is the sum of the following terms:
     one-electron contribution =   -9565.76329732 Ry
     hartree contribution      =    4757.25980437 Ry
     xc contribution           =    -163.58501332 Ry
     ewald contribution        =    3977.84444147 Ry
     one-center paw contrib.   =   -4469.91657637 Ry

     total magnetization       =    -0.00 Bohr mag/cell
     absolute magnetization    =    14.52 Bohr mag/cell

     convergence has been achieved in  13 iterations

     negative rho (up, down):  3.284E-02 3.289E-02

     Forces acting on atoms (cartesian axes, Ry/au):

     atom    1 type  1   force =    -0.00000510   -0.00025901   -0.00045769
     atom    2 type  1   force =    -0.00000510    0.00025901   -0.00045769
     atom    3 type  2   force =     0.00043591    0.00000000    0.00002345
     atom    4 type  2   force =    -0.00062996   -0.00080122    0.00072960
     atom    5 type  2   force =    -0.00062996    0.00080122    0.00072960
     atom    6 type  2   force =    -0.00071285    0.00000000   -0.00082606
     atom    7 type  2   force =     0.00033800    0.00076893   -0.00077017
     atom    8 type  2   force =     0.00033800   -0.00076893   -0.00077017
     atom    9 type  3   force =     0.00000524   -0.00025874    0.00045658
     atom   10 type  3   force =     0.00000524    0.00025874    0.00045658
     atom   11 type  2   force =     0.00071413    0.00000000    0.00082685
     atom   12 type  2   force =    -0.00033881   -0.00076806    0.00077142
     atom   13 type  2   force =    -0.00033881    0.00076806    0.00077142
     atom   14 type  2   force =    -0.00043668    0.00000000   -0.00002212
     atom   15 type  2   force =     0.00063037    0.00080032   -0.00073079
     atom   16 type  2   force =     0.00063037   -0.00080032   -0.00073079

     Total force =     0.003918     Total SCF correction =     0.000003


     Computing stress (Cartesian axis) and pressure


     negative rho (up, down):  3.284E-02 3.289E-02
          total   stress  (Ry/bohr**3)                   (kbar)     P=        1.43
   0.00000475   0.00000000  -0.00000092            0.70        0.00       -0.14
   0.00000000   0.00000458   0.00000000            0.00        0.67        0.00
  -0.00000092   0.00000000   0.00001984           -0.14        0.00        2.92

     Energy error            =      9.0E-05 Ry
     Gradient error          =      8.3E-04 Ry/Bohr

     bfgs converged in   5 scf cycles and   4 bfgs steps
     (criteria: energy <  1.0E-04 Ry, force <  1.0E-03 Ry/Bohr)

     End of BFGS Geometry Optimization

     Final energy             =   -5464.1606411550 Ry

     File ./ht_afm_qe/ht_afm_qe.bfgs deleted, as requested
Begin final coordinates

ATOMIC_POSITIONS (angstrom)
Cr               5.7301230098        1.9861526731       15.6147519499
Cr               2.2916319998        3.9694884569       15.6147524099
I                6.7180429520       -0.0000131800       14.0639584676
I                3.5166150782        2.1233465681       14.0708970668
I                0.0781468882        3.8323077419       14.0708970668
I                4.7444550806       -0.0000114000       17.1572378480
I                4.5048960416        3.8320191812       17.1570743378
I                1.0664247816        2.1236333588       17.1570743378
Cr1              3.4391787815        1.9861327725        9.0312332976
Cr1              0.0006877715        3.9695083575        9.0312337576
I                4.4248627642       -0.0000131800        7.4887454540
I                1.2259008776        2.1236324061        7.4889084063
I               -2.2125673124        3.8320219039        7.4889084063
I                2.4512670931       -0.0000114000       10.5820250565
I                2.2141851164        3.8323019942       10.5750789036
I               -1.2242861436        2.1233505458       10.5750789036
End final coordinates



     Writing all to output data dir ./ht_afm_qe/ht_afm_qe.save/ :
     XML data file, charge density, pseudopotentials, collected wavefunctions

     init_run     :     25.06s CPU     25.61s WALL (       1 calls)
     electrons    :   3335.92s CPU   3449.09s WALL (       5 calls)
     update_pot   :      4.14s CPU      4.18s WALL (       4 calls)
     forces       :     27.52s CPU     28.33s WALL (       5 calls)
     stress       :    433.62s CPU    439.65s WALL (       5 calls)

     Called by init_run:
     wfcinit      :     22.18s CPU     22.52s WALL (       1 calls)
     potinit      :      1.04s CPU      1.10s WALL (       1 calls)
     hinit0       :      0.98s CPU      1.01s WALL (       1 calls)

     Called by electrons:
     c_bands      :   2667.51s CPU   2754.72s WALL (      69 calls)
     sum_band     :    561.89s CPU    579.06s WALL (      69 calls)
     v_of_rho     :     14.65s CPU     14.85s WALL (      70 calls)
     newd         :     35.93s CPU     42.34s WALL (      70 calls)
     PAW_pot      :     57.81s CPU     58.24s WALL (      74 calls)
     mix_rho      :      6.30s CPU      6.44s WALL (      69 calls)

     Called by c_bands:
     init_us_2    :     43.86s CPU     44.19s WALL (    3978 calls)
     init_us_2:cp :     43.82s CPU     44.17s WALL (    3978 calls)
     cegterg      :   2567.77s CPU   2653.75s WALL (    1794 calls)

     Called by *egterg:
     cdiaghg      :    209.94s CPU    210.91s WALL (    7029 calls)
     h_psi        :   1723.43s CPU   1762.31s WALL (    7263 calls)
     s_psi        :    101.97s CPU    102.76s WALL (    7263 calls)
     g_psi        :     16.09s CPU     16.23s WALL (    5443 calls)

     Called by h_psi:
     h_psi:calbec :    125.03s CPU    126.27s WALL (    7263 calls)
     vloc_psi     :   1470.33s CPU   1487.29s WALL (    7263 calls)
     add_vuspsi   :    100.52s CPU    101.33s WALL (    7263 calls)

     General routines
     calbec       :    191.89s CPU    194.07s WALL (    9811 calls)
     fft          :      9.44s CPU      9.65s WALL (    1952 calls)
     ffts         :      0.94s CPU      0.98s WALL (     278 calls)
     fftw         :   1370.83s CPU   1388.22s WALL ( 1076644 calls)
     interpolate  :      1.51s CPU      1.53s WALL (     140 calls)

     Parallel routines

     PWSCF        :      1h 4m CPU      1h 6m WALL


   This run was terminated on:  15:18:58  17Oct2024            

=------------------------------------------------------------------------------=
   JOB DONE.
=------------------------------------------------------------------------------=
