
     Program PWSCF v.7.3 starts on 17Oct2024 at 14:12:18 

     This program is part of the open-source Quantum ESPRESSO suite
     for quantum simulation of materials; please cite
         "P. Giannozzi et al., J. Phys.:Condens. Matter 21 395502 (2009);
         "P. Giannozzi et al., J. Phys.:Condens. Matter 29 465901 (2017);
         "P. Giannozzi et al., J. Chem. Phys. 152 154105 (2020);
          URL http://www.quantum-espresso.org", 
     in publications or presentations arising from this work. More details at
     http://www.quantum-espresso.org/quote

     Parallel version (MPI), running on    24 processors

     MPI processes distributed on     1 nodes
     55295 MiB available memory on the printing compute node when the environment starts

     Reading input from ht_fm_qe.opt.in
Warning: card &CELL ignored
Warning: card / ignored

     Current dimensions of program PWSCF are:
     Max number of different atomic species (ntypx) = 10
     Max number of k-points (npk) =  40000
     Max angular momentum in pseudopotentials (lmaxx) =  4
read_pp_mesh; mismatch in mesh size, discarding the one in header
read_pp_mesh; mismatch in mesh size, discarding the one in header
     file Cr.GGA-PBE-paw.UPF: wavefunction(s)  3S 4S 3P 4P 3D 4D renormalized
     file I.GGA-PBE-paw.UPF: wavefunction(s)  6S 6P renormalized

     IMPORTANT: XC functional enforced from input :
     Exchange-correlation= OPTB86B
                           (   1   4  24   1   0   0   0)
     Any further DFT definition will be discarded
     Please, verify this is what you really want

     Message from routine setup:
     using ibrav=0 with symmetry is DISCOURAGED, use correct ibrav instead

     R & G space division:  proc/nbgrp/npool/nimage =      24
     Subspace diagonalization in iterative solution of the eigenvalue problem:
     a serial algorithm will be used


     Parallelization info
     --------------------
     sticks:   dense  smooth     PW     G-vecs:    dense   smooth      PW
     Min         179     174     46                38065    36532    5046
     Max         180     175     47                38082    36557    5059
     Sum        4303    4189   1123               913669   876961  121297

     Using Slab Decomposition



     bravais-lattice index     =            0
     lattice parameter (alat)  =      12.9956  a.u.
     unit-cell volume          =    7602.9282 (a.u.)^3
     number of atoms/cell      =           16
     number of atomic types    =            2
     number of electrons       =       140.00 (up:  76.00, down:  64.00)
     number of Kohn-Sham states=          100
     kinetic-energy cutoff     =      90.0000  Ry
     charge density cutoff     =     370.0000  Ry
     scf convergence threshold =      1.0E-09
     mixing beta               =       0.5000
     number of iterations used =            8  plain     mixing
     energy convergence thresh.=      1.0E-04
     force convergence thresh. =      1.0E-03
     Exchange-correlation= OPTB86B
                           (   1   4  24   1   0   0   0)
     nstep                     =           50


     celldm(1)=  12.995613  celldm(2)=   0.000000  celldm(3)=   0.000000
     celldm(4)=   0.000000  celldm(5)=   0.000000  celldm(6)=   0.000000

     crystal axes: (cart. coord. in units of alat)
               a(1) = (   1.000000  -0.000000   0.000000 )  
               a(2) = (  -0.500000   0.866025   0.000000 )  
               a(3) = (  -0.000000   0.000000   4.000000 )  

     reciprocal axes: (cart. coord. in units 2 pi/alat)
               b(1) = (  1.000000  0.577350  0.000000 )  
               b(2) = (  0.000000  1.154701  0.000000 )  
               b(3) = ( -0.000000 -0.000000  0.250000 )  


     PseudoPot. # 1 for Cr read from file:
     ../Cr.GGA-PBE-paw.UPF
     MD5 check sum: 389087661106aa6caf57455f2e439c97
     Pseudo is Projector augmented-wave + core cor, Zval = 14.0
     Generated using ATOMPAW code
     Shape of augmentation charge: SINC**2
     Using radial grid of 2342 points,  6 beta functions with: 
                l(1) =   0
                l(2) =   0
                l(3) =   1
                l(4) =   1
                l(5) =   2
                l(6) =   2
     Q(r) pseudized with 0 coefficients 


     PseudoPot. # 2 for I  read from file:
     ../I.GGA-PBE-paw.UPF
     MD5 check sum: 736bb4145856fa7ed29d0984862794a4
     Pseudo is Projector augmented-wave + core cor, Zval =  7.0
     Generated using ATOMPAW code
     Shape of augmentation charge: SINC**2
     Using radial grid of 2342 points,  4 beta functions with: 
                l(1) =   0
                l(2) =   0
                l(3) =   1
                l(4) =   1
     Q(r) pseudized with 0 coefficients 


     atomic species   valence    mass     pseudopotential
     Cr               14.00    51.99610     Cr( 1.00)
     I                 7.00   126.90447     I ( 1.00)

     Starting magnetic structure 
     atomic species   magnetization
     Cr              0.214
     I               0.000

      2 Sym. Ops. (no inversion) found



   Cartesian axes

     site n.     atom                  positions (alat units)
         1        Cr     tau(   1) = (   0.8333333   0.2886751   2.2705038  )
         2        Cr     tau(   2) = (   0.3333333   0.5773503   2.2705039  )
         3        I      tau(   3) = (   0.9764357  -0.0000019   2.0449365  )
         4        I      tau(   4) = (   0.5117805   0.3090834   2.0449365  )
         5        I      tau(   5) = (   0.0117838   0.5569439   2.0449365  )
         6        I      tau(   6) = (   0.6902310  -0.0000017   2.4960710  )
         7        I      tau(   7) = (   0.6548831   0.5569438   2.4960710  )
         8        I      tau(   8) = (   0.1548859   0.3090833   2.4960710  )
         9        Cr     tau(   9) = (   0.5000000   0.2886751   1.3133332  )
        10        Cr     tau(  10) = (   0.0000000   0.5773503   1.3133333  )
        11        I      tau(  11) = (   0.6431024  -0.0000019   1.0877658  )
        12        I      tau(  12) = (   0.1784472   0.3090834   1.0877658  )
        13        I      tau(  13) = (  -0.3215495   0.5569439   1.0877658  )
        14        I      tau(  14) = (   0.3568977  -0.0000017   1.5389004  )
        15        I      tau(  15) = (   0.3215497   0.5569438   1.5389004  )
        16        I      tau(  16) = (  -0.1784474   0.3090833   1.5389004  )

     number of k points=    13
                       cart. coord. in units 2pi/alat
        k(    1) = (   0.0000000   0.0000000   0.0000000), wk =   0.0277778
        k(    2) = (   0.0000000   0.1924501   0.0000000), wk =   0.0555556
        k(    3) = (   0.0000000   0.3849002   0.0000000), wk =   0.0555556
        k(    4) = (   0.0000000  -0.5773503   0.0000000), wk =   0.0277778
        k(    5) = (   0.1666667   0.2886751   0.0000000), wk =   0.1111111
        k(    6) = (   0.1666667   0.4811252   0.0000000), wk =   0.1111111
        k(    7) = (   0.3333333   0.5773503   0.0000000), wk =   0.0555556
        k(    8) = (  -0.1666667   0.0962250   0.0000000), wk =   0.1111111
        k(    9) = (  -0.3333333   0.1924501   0.0000000), wk =   0.1111111
        k(   10) = (   0.5000000  -0.2886751   0.0000000), wk =   0.0555556
        k(   11) = (   0.3333333   0.0000000   0.0000000), wk =   0.0555556
        k(   12) = (  -0.3333333   0.3849002   0.0000000), wk =   0.1111111
        k(   13) = (   0.5000000   0.0962250   0.0000000), wk =   0.1111111

     Dense  grid:   913669 G-vectors     FFT dimensions: (  80,  80, 320)

     Smooth grid:   876961 G-vectors     FFT dimensions: (  80,  80, 320)

     Estimated max dynamical RAM per process >     437.92 MB

     Estimated total dynamical RAM >      10.26 GB
 ----2D----2D----2D----2D----2D----2D----2D----2D----2D----2D----2D----2D
  The code is running with the 2D cutoff
  Please refer to:
  Sohier, T., Calandra, M., & Mauri, F. (2017), 
  Density functional perturbation theory for gated two-dimensional heterostructures:
  Theoretical developments and application to flexural phonons in graphene.
  Physical Review B, 96(7), 75448. https://doi.org/10.1103/PhysRevB.96.075448
 ----2D----2D----2D----2D----2D----2D----2D----2D----2D----2D----2D----2D
     Generating pointlists ...
     new r_m :   0.1622 (alat units)  2.1084 (a.u.) for type    1
     new r_m :   0.1622 (alat units)  2.1084 (a.u.) for type    2
     Cannot read rho : file not found

     Initial potential from superposition of free atoms

     starting charge     139.9932, renormalised to     140.0000

     negative rho (up, down):  2.616E-02 2.661E-02
     Starting wfcs are  168 atomic wfcs
     Checking if some PAW data can be deallocated... 

     total cpu time spent up to now is       26.5 secs

     Self-consistent Calculation

     iteration #  1     ecut=    90.00 Ry     beta= 0.50
     Davidson diagonalization with overlap
     ethr =  1.00E-05,  avg # of iterations =  9.0

     negative rho (up, down):  3.217E-02 3.277E-02

     total cpu time spent up to now is      185.1 secs

     total energy              =   -5461.95378325 Ry
     estimated scf accuracy    <       3.49731039 Ry

     total magnetization       =    12.00 Bohr mag/cell
     absolute magnetization    =    12.62 Bohr mag/cell

     iteration #  2     ecut=    90.00 Ry     beta= 0.50
     Davidson diagonalization with overlap
     ethr =  2.50E-03,  avg # of iterations =  4.8

     negative rho (up, down):  3.074E-02 2.947E-02

     total cpu time spent up to now is      252.9 secs

     total energy              =   -5456.87363455 Ry
     estimated scf accuracy    <      79.29915933 Ry

     total magnetization       =    12.00 Bohr mag/cell
     absolute magnetization    =    12.08 Bohr mag/cell

     iteration #  3     ecut=    90.00 Ry     beta= 0.50
     Davidson diagonalization with overlap
     ethr =  2.50E-03,  avg # of iterations =  3.0

     negative rho (up, down):  3.227E-02 3.119E-02

     total cpu time spent up to now is      306.5 secs

     total energy              =   -5464.11085670 Ry
     estimated scf accuracy    <       0.86249661 Ry

     total magnetization       =    12.00 Bohr mag/cell
     absolute magnetization    =    13.17 Bohr mag/cell

     iteration #  4     ecut=    90.00 Ry     beta= 0.50
     Davidson diagonalization with overlap
     ethr =  6.16E-04,  avg # of iterations =  1.7

     negative rho (up, down):  3.279E-02 3.254E-02

     total cpu time spent up to now is      346.1 secs

     total energy              =   -5464.12963230 Ry
     estimated scf accuracy    <       0.19544507 Ry

     total magnetization       =    12.00 Bohr mag/cell
     absolute magnetization    =    13.47 Bohr mag/cell

     iteration #  5     ecut=    90.00 Ry     beta= 0.50
     Davidson diagonalization with overlap
     ethr =  1.40E-04,  avg # of iterations =  2.2

     negative rho (up, down):  3.170E-02 3.411E-02

     total cpu time spent up to now is      387.8 secs

     total energy              =   -5464.15344796 Ry
     estimated scf accuracy    <       0.01957288 Ry

     total magnetization       =    12.00 Bohr mag/cell
     absolute magnetization    =    13.78 Bohr mag/cell

     iteration #  6     ecut=    90.00 Ry     beta= 0.50
     Davidson diagonalization with overlap
     ethr =  1.40E-05,  avg # of iterations =  9.0

     negative rho (up, down):  3.149E-02 3.445E-02

     total cpu time spent up to now is      463.5 secs

     total energy              =   -5464.15967799 Ry
     estimated scf accuracy    <       0.00375115 Ry

     total magnetization       =    12.00 Bohr mag/cell
     absolute magnetization    =    14.31 Bohr mag/cell

     iteration #  7     ecut=    90.00 Ry     beta= 0.50
     Davidson diagonalization with overlap
     ethr =  2.68E-06,  avg # of iterations =  6.4

     negative rho (up, down):  3.138E-02 3.463E-02

     total cpu time spent up to now is      520.2 secs

     total energy              =   -5464.16011768 Ry
     estimated scf accuracy    <       0.00223829 Ry

     total magnetization       =    12.00 Bohr mag/cell
     absolute magnetization    =    14.40 Bohr mag/cell

     iteration #  8     ecut=    90.00 Ry     beta= 0.50
     Davidson diagonalization with overlap
     ethr =  1.60E-06,  avg # of iterations =  3.6

     negative rho (up, down):  3.109E-02 3.477E-02

     total cpu time spent up to now is      564.1 secs

     total energy              =   -5464.16022557 Ry
     estimated scf accuracy    <       0.00057181 Ry

     total magnetization       =    12.00 Bohr mag/cell
     absolute magnetization    =    14.44 Bohr mag/cell

     iteration #  9     ecut=    90.00 Ry     beta= 0.50
     Davidson diagonalization with overlap
     ethr =  4.08E-07,  avg # of iterations =  2.2

     negative rho (up, down):  3.105E-02 3.479E-02

     total cpu time spent up to now is      610.4 secs

     total energy              =   -5464.16032532 Ry
     estimated scf accuracy    <       0.00012817 Ry

     total magnetization       =    12.00 Bohr mag/cell
     absolute magnetization    =    14.49 Bohr mag/cell

     iteration # 10     ecut=    90.00 Ry     beta= 0.50
     Davidson diagonalization with overlap
     ethr =  9.15E-08,  avg # of iterations =  2.1

     negative rho (up, down):  3.094E-02 3.482E-02

     total cpu time spent up to now is      651.5 secs

     total energy              =   -5464.16032917 Ry
     estimated scf accuracy    <       0.00005992 Ry

     total magnetization       =    12.00 Bohr mag/cell
     absolute magnetization    =    14.50 Bohr mag/cell

     iteration # 11     ecut=    90.00 Ry     beta= 0.50
     Davidson diagonalization with overlap
     ethr =  4.28E-08,  avg # of iterations =  2.0

     negative rho (up, down):  3.081E-02 3.486E-02

     total cpu time spent up to now is      692.7 secs

     total energy              =   -5464.16033882 Ry
     estimated scf accuracy    <       0.00000990 Ry

     total magnetization       =    12.00 Bohr mag/cell
     absolute magnetization    =    14.52 Bohr mag/cell

     iteration # 12     ecut=    90.00 Ry     beta= 0.50
     Davidson diagonalization with overlap
     ethr =  7.07E-09,  avg # of iterations =  4.0

     negative rho (up, down):  3.078E-02 3.487E-02

     total cpu time spent up to now is      754.5 secs

     total energy              =   -5464.16034605 Ry
     estimated scf accuracy    <       0.00000386 Ry

     total magnetization       =    12.00 Bohr mag/cell
     absolute magnetization    =    14.55 Bohr mag/cell

     iteration # 13     ecut=    90.00 Ry     beta= 0.50
     Davidson diagonalization with overlap
     ethr =  2.76E-09,  avg # of iterations =  2.0

     negative rho (up, down):  3.075E-02 3.488E-02

     total cpu time spent up to now is      795.7 secs

     total energy              =   -5464.16034665 Ry
     estimated scf accuracy    <       0.00000067 Ry

     total magnetization       =    12.00 Bohr mag/cell
     absolute magnetization    =    14.55 Bohr mag/cell

     iteration # 14     ecut=    90.00 Ry     beta= 0.50
     Davidson diagonalization with overlap
     ethr =  4.78E-10,  avg # of iterations =  4.0

     negative rho (up, down):  3.072E-02 3.489E-02

     total cpu time spent up to now is      854.5 secs

     total energy              =   -5464.16034703 Ry
     estimated scf accuracy    <       0.00000066 Ry

     total magnetization       =    12.00 Bohr mag/cell
     absolute magnetization    =    14.55 Bohr mag/cell

     iteration # 15     ecut=    90.00 Ry     beta= 0.50
     Davidson diagonalization with overlap
     ethr =  4.73E-10,  avg # of iterations =  1.2

     negative rho (up, down):  3.072E-02 3.490E-02

     total cpu time spent up to now is      893.2 secs

     total energy              =   -5464.16034715 Ry
     estimated scf accuracy    <       0.00000004 Ry

     total magnetization       =    12.00 Bohr mag/cell
     absolute magnetization    =    14.55 Bohr mag/cell

     iteration # 16     ecut=    90.00 Ry     beta= 0.50
     Davidson diagonalization with overlap
     ethr =  2.74E-11,  avg # of iterations =  3.8

     negative rho (up, down):  3.072E-02 3.490E-02

     total cpu time spent up to now is      952.6 secs

     total energy              =   -5464.16034717 Ry
     estimated scf accuracy    <          2.3E-09 Ry

     total magnetization       =    12.00 Bohr mag/cell
     absolute magnetization    =    14.56 Bohr mag/cell

     iteration # 17     ecut=    90.00 Ry     beta= 0.50
     Davidson diagonalization with overlap
     ethr =  1.63E-12,  avg # of iterations =  3.2

     negative rho (up, down):  3.072E-02 3.490E-02

     Magnetic moment per site  (integrated on atomic sphere of radius R)
     atom   1 (R=0.162)  charge= 12.4165  magn=  2.9539
     atom   2 (R=0.162)  charge= 12.4165  magn=  2.9539
     atom   3 (R=0.162)  charge=  4.0418  magn= -0.0598
     atom   4 (R=0.162)  charge=  4.0410  magn= -0.0600
     atom   5 (R=0.162)  charge=  4.0410  magn= -0.0600
     atom   6 (R=0.162)  charge=  4.0454  magn= -0.0583
     atom   7 (R=0.162)  charge=  4.0451  magn= -0.0589
     atom   8 (R=0.162)  charge=  4.0451  magn= -0.0589
     atom   9 (R=0.162)  charge= 12.4164  magn=  2.9539
     atom  10 (R=0.162)  charge= 12.4164  magn=  2.9539
     atom  11 (R=0.162)  charge=  4.0453  magn= -0.0583
     atom  12 (R=0.162)  charge=  4.0451  magn= -0.0589
     atom  13 (R=0.162)  charge=  4.0451  magn= -0.0589
     atom  14 (R=0.162)  charge=  4.0418  magn= -0.0598
     atom  15 (R=0.162)  charge=  4.0411  magn= -0.0600
     atom  16 (R=0.162)  charge=  4.0411  magn= -0.0600

     total cpu time spent up to now is     1008.3 secs

     End of self-consistent calculation

 ------ SPIN UP ------------


          k = 0.0000 0.0000 0.0000 (109591 PWs)   bands (ev):

   -77.9536 -77.9536 -77.9526 -77.9526 -49.3622 -49.3622 -49.3609 -49.3608
   -49.3542 -49.3542 -49.3535 -49.3535 -49.3505 -49.3505 -49.3498 -49.3498
   -18.5831 -18.4874 -17.7786 -17.6494 -17.4459 -17.4437 -17.4428 -17.4422
   -17.3033 -17.3022 -17.3016 -17.3013 -10.3097 -10.3097  -9.9397  -9.4672
    -9.1886  -9.1857  -9.1245  -9.1097  -9.0947  -9.0862  -8.9948  -8.9940
    -8.8067  -8.8018  -8.3654  -8.3324  -8.3068  -8.2910  -8.1762  -8.1666
    -7.8091  -7.8057  -7.7904  -7.7877  -7.2936  -7.2208  -7.0244  -6.7748
    -6.7558  -6.7339  -6.7308  -6.5980  -6.5977  -6.3222  -6.2959  -6.2924
    -6.2786  -6.2621  -6.2023  -6.1420  -6.1287  -6.0297  -6.0228  -5.9235
    -5.6402  -5.6169  -5.5950  -5.5644  -4.3602  -4.3566  -4.2974  -4.2792
    -3.9148  -3.8840  -3.8695  -3.8325  -0.7582  -0.7580  -0.6286  -0.2127
    -0.0638   0.0025   0.5947   0.6022   0.8430   0.8757   1.2956   1.3209
     1.4428   1.5032   1.9019   1.9751

          k = 0.0000 0.1925 0.0000 (109722 PWs)   bands (ev):

   -77.9536 -77.9536 -77.9526 -77.9526 -49.3622 -49.3622 -49.3609 -49.3609
   -49.3542 -49.3542 -49.3533 -49.3533 -49.3508 -49.3508 -49.3497 -49.3497
   -18.5230 -18.4291 -17.7440 -17.6198 -17.5375 -17.5183 -17.4699 -17.4620
   -17.3260 -17.3195 -17.3030 -17.2999 -10.2744 -10.2675  -9.8927  -9.4960
    -9.2833  -9.2214  -9.2101  -9.1006  -9.0840  -9.0457  -8.9752  -8.9255
    -8.6443  -8.6087  -8.4134  -8.3486  -8.3400  -8.3184  -7.9581  -7.9112
    -7.8308  -7.7986  -7.6815  -7.6738  -7.2714  -7.2183  -7.1057  -6.9338
    -6.9194  -6.8431  -6.6670  -6.6355  -6.6212  -6.4794  -6.4545  -6.3399
    -6.3189  -6.2216  -6.1521  -6.1249  -6.0907  -6.0370  -6.0054  -5.9646
    -5.7308  -5.6175  -5.6035  -5.5349  -4.3846  -4.3370  -4.2908  -4.2142
    -4.0765  -4.0345  -3.9530  -3.8798  -0.7664  -0.6727  -0.2653   0.2160
     0.2285   0.2911   0.4171   0.4686   0.7985   1.0112   1.1616   1.3059
     1.5521   1.6345   1.6927   1.8719

          k = 0.0000 0.3849 0.0000 (109616 PWs)   bands (ev):

   -77.9536 -77.9536 -77.9526 -77.9526 -49.3621 -49.3621 -49.3610 -49.3609
   -49.3543 -49.3543 -49.3528 -49.3528 -49.3514 -49.3514 -49.3495 -49.3495
   -18.3590 -18.2699 -17.7509 -17.7092 -17.6521 -17.5427 -17.5170 -17.4987
   -17.3913 -17.3541 -17.3278 -17.3204 -10.2277 -10.1630  -9.7465  -9.5308
    -9.3407  -9.2942  -9.1835  -9.0844  -9.0673  -8.9325  -8.7640  -8.6720
    -8.6531  -8.5715  -8.3657  -8.3303  -8.3075  -8.2434  -7.9409  -7.8875
    -7.6464  -7.5955  -7.5486  -7.5087  -7.4629  -7.3441  -7.1471  -7.1094
    -7.0407  -6.9772  -6.9626  -6.8986  -6.5252  -6.4966  -6.4702  -6.3472
    -6.3286  -6.2462  -6.1431  -6.1187  -6.0712  -6.0673  -6.0100  -5.9101
    -5.8590  -5.6357  -5.6002  -5.5205  -4.3618  -4.3547  -4.2851  -4.2291
    -4.1056  -4.0910  -4.0514  -4.0157  -1.0457  -0.6367   0.0449   0.0768
     0.4179   0.4221   0.6990   0.9004   0.9318   0.9963   1.0475   1.0552
     1.3540   1.3552   1.4790   1.4873

          k = 0.0000-0.5774 0.0000 (109602 PWs)   bands (ev):

   -77.9536 -77.9536 -77.9526 -77.9526 -49.3621 -49.3621 -49.3610 -49.3610
   -49.3543 -49.3543 -49.3523 -49.3523 -49.3519 -49.3519 -49.3495 -49.3495
   -18.2056 -18.1184 -17.9272 -17.8761 -17.5652 -17.5446 -17.5173 -17.4651
   -17.4586 -17.4072 -17.3479 -17.3306 -10.2269 -10.1192  -9.6180  -9.4905
    -9.3892  -9.2551  -9.1823  -8.9832  -8.9097  -8.8075  -8.7598  -8.7175
    -8.7037  -8.5355  -8.3719  -8.2876  -8.1677  -8.1162  -8.0751  -8.0220
    -7.8600  -7.7488  -7.7237  -7.6489  -7.4592  -7.2653  -7.1005  -7.0133
    -6.8873  -6.8759  -6.8672  -6.7820  -6.5999  -6.5845  -6.4999  -6.4128
    -6.3952  -6.3397  -6.1763  -6.0690  -6.0653  -6.0635  -6.0027  -5.8801
    -5.8697  -5.6798  -5.5572  -5.5339  -4.3722  -4.3544  -4.2956  -4.1794
    -4.1140  -4.1071  -4.0698  -3.9812  -1.2986  -0.8361   0.0331   0.0915
     0.1658   0.3832   0.6267   0.6500   0.9073   1.0992   1.1449   1.1955
     1.3412   1.3759   1.4407   1.4502

          k = 0.1667 0.2887 0.0000 (109615 PWs)   bands (ev):

   -77.9536 -77.9536 -77.9526 -77.9526 -49.3621 -49.3621 -49.3609 -49.3609
   -49.3543 -49.3542 -49.3532 -49.3529 -49.3511 -49.3509 -49.3497 -49.3496
   -18.4094 -18.3201 -17.6819 -17.6689 -17.6437 -17.5636 -17.5233 -17.5108
   -17.3622 -17.3477 -17.3142 -17.3127 -10.2113 -10.1450  -9.8175  -9.5607
    -9.3296  -9.3034  -9.2006  -9.1364  -9.0994  -9.0018  -8.7965  -8.6990
    -8.6010  -8.5027  -8.4512  -8.4322  -8.2466  -8.2289  -7.9273  -7.8562
    -7.6979  -7.6666  -7.5779  -7.5280  -7.3678  -7.3390  -7.1170  -7.0285
    -6.9965  -6.9058  -6.8552  -6.8333  -6.6559  -6.6480  -6.5002  -6.3425
    -6.3243  -6.2429  -6.1347  -6.1087  -6.0764  -6.0186  -5.9696  -5.9158
    -5.8079  -5.6309  -5.6055  -5.5332  -4.3804  -4.3371  -4.3011  -4.2334
    -4.1422  -4.1175  -3.9790  -3.9163  -0.8483  -0.6348  -0.2081  -0.0271
     0.3392   0.4858   0.5877   0.7703   0.9880   1.0464   1.0787   1.2525
     1.3503   1.4422   1.5267   1.5704

          k = 0.1667 0.4811 0.0000 (109606 PWs)   bands (ev):

   -77.9536 -77.9536 -77.9526 -77.9526 -49.3621 -49.3621 -49.3610 -49.3610
   -49.3543 -49.3543 -49.3526 -49.3524 -49.3517 -49.3515 -49.3496 -49.3495
   -18.2211 -18.1371 -17.8756 -17.8369 -17.5834 -17.5793 -17.5557 -17.4768
   -17.4338 -17.3934 -17.3431 -17.3297 -10.0968 -10.0103  -9.6682  -9.5878
    -9.3543  -9.2721  -9.1683  -9.1054  -8.9952  -8.8644  -8.8167  -8.7544
    -8.7087  -8.5959  -8.3628  -8.3513  -8.2564  -8.2307  -7.8997  -7.8644
    -7.8132  -7.7498  -7.4760  -7.4215  -7.3798  -7.3133  -7.1644  -7.0996
    -6.9433  -6.8796  -6.8777  -6.8279  -6.7228  -6.6922  -6.5227  -6.4885
    -6.3718  -6.3420  -6.0994  -6.0567  -6.0407  -5.9897  -5.9499  -5.8586
    -5.8552  -5.6692  -5.5821  -5.5364  -4.3909  -4.3030  -4.2835  -4.1851
    -4.0975  -4.0568  -3.9957  -3.9652  -1.1178  -0.7513  -0.5112  -0.2778
     0.1819   0.4055   0.5127   0.6078   0.8124   0.8181   0.8626   1.0563
     1.1017   1.2106   1.3790   1.4544

          k = 0.3333 0.5774 0.0000 (109542 PWs)   bands (ev):

   -77.9536 -77.9536 -77.9526 -77.9526 -49.3621 -49.3620 -49.3610 -49.3610
   -49.3543 -49.3543 -49.3526 -49.3526 -49.3515 -49.3514 -49.3496 -49.3496
   -18.0454 -18.0300 -17.9852 -17.9651 -17.6339 -17.6088 -17.5004 -17.4838
   -17.4389 -17.4086 -17.3602 -17.3432  -9.8060  -9.7845  -9.7278  -9.7149
    -9.3359  -9.2632  -9.1970  -9.0838  -9.0398  -9.0298  -8.8457  -8.8098
    -8.6829  -8.5620  -8.5446  -8.5078  -8.3445  -8.3190  -7.9424  -7.7441
    -7.3919  -7.3513  -7.3512  -7.3112  -7.3017  -7.2604  -7.2589  -7.2469
    -7.2392  -7.2328  -6.8462  -6.7122  -6.6995  -6.6849  -6.6165  -6.6064
    -6.3929  -6.3770  -6.0648  -6.0260  -6.0095  -5.9117  -5.8724  -5.8482
    -5.7518  -5.7345  -5.6396  -5.5385  -4.3827  -4.2635  -4.2599  -4.0873
    -4.0827  -4.0619  -3.9527  -3.8766  -1.0088  -0.9446  -0.7395  -0.6666
     0.1034   0.1949   0.2150   0.3978   0.4550   0.5766   0.8126   0.8211
     0.9721   1.0476   1.2311   1.2657

          k =-0.1667 0.0962 0.0000 (109722 PWs)   bands (ev):

   -77.9536 -77.9536 -77.9526 -77.9526 -49.3622 -49.3622 -49.3609 -49.3609
   -49.3543 -49.3542 -49.3534 -49.3533 -49.3507 -49.3505 -49.3499 -49.3498
   -18.5227 -18.4294 -17.7439 -17.6204 -17.5406 -17.5109 -17.4755 -17.4604
   -17.3269 -17.3187 -17.3042 -17.2985 -10.3104 -10.2288  -9.8917  -9.5061
    -9.2772  -9.2147  -9.1831  -9.1266  -9.0814  -9.0672  -8.9921  -8.8994
    -8.6309  -8.6155  -8.4012  -8.3869  -8.3256  -8.2988  -7.9782  -7.9585
    -7.8190  -7.7523  -7.7071  -7.6339  -7.2893  -7.2493  -7.0583  -6.9614
    -6.8994  -6.8638  -6.6566  -6.6199  -6.6148  -6.4826  -6.4508  -6.3577
    -6.3168  -6.2290  -6.1569  -6.1171  -6.0971  -6.0398  -6.0093  -5.9598
    -5.7008  -5.6215  -5.5994  -5.5586  -4.3879  -4.3526  -4.2593  -4.2247
    -4.0747  -4.0272  -3.9495  -3.8911  -0.8545  -0.5546  -0.2714   0.1085
     0.2325   0.3573   0.4296   0.4763   0.7984   1.0480   1.0940   1.3151
     1.4965   1.6713   1.7560   1.8800

          k =-0.3333 0.1925 0.0000 (109616 PWs)   bands (ev):

   -77.9536 -77.9536 -77.9526 -77.9526 -49.3621 -49.3621 -49.3610 -49.3609
   -49.3544 -49.3542 -49.3533 -49.3529 -49.3510 -49.3506 -49.3500 -49.3497
   -18.3566 -18.2731 -17.7558 -17.7035 -17.6480 -17.5463 -17.5204 -17.4970
   -17.3919 -17.3476 -17.3334 -17.3196 -10.2527 -10.1356  -9.7511  -9.5220
    -9.3366  -9.2690  -9.2103  -9.1089  -9.0506  -8.9270  -8.8186  -8.6683
    -8.6087  -8.5701  -8.3371  -8.3219  -8.3049  -8.2638  -8.0101  -7.8701
    -7.6389  -7.6121  -7.5222  -7.4690  -7.4506  -7.3659  -7.1523  -7.1441
    -7.0477  -6.9860  -6.9420  -6.8766  -6.5173  -6.4983  -6.4480  -6.3862
    -6.3506  -6.2484  -6.1474  -6.1019  -6.0806  -6.0114  -5.9841  -5.9280
    -5.8299  -5.6910  -5.5972  -5.5506  -4.3909  -4.3344  -4.2043  -4.1864
    -4.1541  -4.1129  -4.0905  -3.9986  -1.1000  -0.5724  -0.0406   0.1477
     0.3342   0.5050   0.7521   0.8547   0.9448   0.9655   1.0566   1.1623
     1.2768   1.3014   1.4185   1.4896

          k = 0.5000-0.2887 0.0000 (109602 PWs)   bands (ev):

   -77.9536 -77.9536 -77.9526 -77.9526 -49.3621 -49.3621 -49.3610 -49.3610
   -49.3544 -49.3542 -49.3532 -49.3527 -49.3512 -49.3506 -49.3500 -49.3497
   -18.1871 -18.1457 -17.9170 -17.8763 -17.5497 -17.5480 -17.5135 -17.5113
   -17.4283 -17.4012 -17.3559 -17.3295 -10.2342 -10.1169  -9.5859  -9.5258
    -9.3796  -9.2367  -9.1364  -9.0529  -8.9104  -8.8781  -8.7517  -8.7228
    -8.5961  -8.5679  -8.3481  -8.3163  -8.1361  -8.1299  -8.0671  -8.0520
    -7.8573  -7.7355  -7.7302  -7.6697  -7.4173  -7.3212  -7.0842  -7.0116
    -6.9215  -6.8580  -6.8065  -6.7996  -6.5931  -6.5923  -6.5234  -6.4034
    -6.4014  -6.3674  -6.1623  -6.0905  -6.0439  -6.0191  -5.8925  -5.8743
    -5.8719  -5.7760  -5.6052  -5.5559  -4.3668  -4.3164  -4.2567  -4.1651
    -4.1539  -4.1022  -4.0605  -4.0142  -1.3448  -0.8038   0.0074   0.0949
     0.1801   0.3957   0.6468   0.6911   0.8114   1.1127   1.1968   1.2104
     1.3147   1.3743   1.4191   1.4958

          k = 0.3333 0.0000 0.0000 (109615 PWs)   bands (ev):

   -77.9536 -77.9536 -77.9526 -77.9526 -49.3621 -49.3621 -49.3609 -49.3609
   -49.3543 -49.3542 -49.3532 -49.3532 -49.3506 -49.3506 -49.3499 -49.3499
   -18.4085 -18.3211 -17.6806 -17.6800 -17.6262 -17.5726 -17.5266 -17.5054
   -17.3694 -17.3370 -17.3184 -17.3125 -10.2418 -10.1088  -9.8139  -9.5809
    -9.3033  -9.3031  -9.1915  -9.1529  -9.1086  -8.9866  -8.8452  -8.6540
    -8.5947  -8.5196  -8.4577  -8.4315  -8.2432  -8.2010  -8.0035  -7.8617
    -7.6870  -7.6157  -7.5985  -7.4496  -7.4084  -7.3578  -7.0956  -7.0542
    -6.9653  -6.9524  -6.8697  -6.8065  -6.6779  -6.6290  -6.4763  -6.3609
    -6.3104  -6.2484  -6.1324  -6.0916  -6.0809  -6.0688  -5.9373  -5.9131
    -5.7912  -5.6581  -5.5938  -5.5494  -4.4010  -4.3427  -4.2382  -4.2238
    -4.1472  -4.1353  -4.0004  -3.9071  -0.9342  -0.4355  -0.3573  -0.0231
     0.3358   0.4941   0.6448   0.7678   0.9108   1.0057   1.1128   1.3037
     1.3486   1.5040   1.5129   1.6536

          k =-0.3333 0.3849 0.0000 (109606 PWs)   bands (ev):

   -77.9536 -77.9536 -77.9526 -77.9526 -49.3621 -49.3621 -49.3610 -49.3610
   -49.3544 -49.3542 -49.3530 -49.3526 -49.3514 -49.3510 -49.3498 -49.3496
   -18.2152 -18.1456 -17.8761 -17.8325 -17.5878 -17.5726 -17.5552 -17.4892
   -17.4263 -17.3881 -17.3486 -17.3285 -10.1078 -10.0001  -9.6800  -9.5668
    -9.3455  -9.2625  -9.1871  -9.1026  -9.0239  -8.8471  -8.8396  -8.7606
    -8.6895  -8.5765  -8.3678  -8.3438  -8.2527  -8.2421  -7.8998  -7.8643
    -7.8310  -7.7407  -7.4963  -7.4138  -7.3700  -7.2974  -7.1517  -7.1215
    -6.9586  -6.9007  -6.8758  -6.8071  -6.7083  -6.6766  -6.5148  -6.5102
    -6.3709  -6.3534  -6.1133  -6.0606  -6.0372  -5.9480  -5.9034  -5.8669
    -5.8526  -5.6832  -5.6283  -5.5512  -4.3602  -4.3343  -4.2621  -4.1403
    -4.0964  -4.0711  -4.0416  -3.9522  -1.1581  -0.7165  -0.4947  -0.2890
     0.1503   0.4400   0.5404   0.6099   0.7328   0.8319   0.8783   1.0854
     1.1146   1.1914   1.3252   1.4308

          k = 0.5000 0.0962 0.0000 (109606 PWs)   bands (ev):

   -77.9536 -77.9536 -77.9526 -77.9526 -49.3621 -49.3621 -49.3610 -49.3610
   -49.3543 -49.3543 -49.3530 -49.3528 -49.3511 -49.3508 -49.3499 -49.3497
   -18.2145 -18.1460 -17.8861 -17.8207 -17.5902 -17.5808 -17.5459 -17.4864
   -17.4379 -17.3701 -17.3591 -17.3280 -10.1186  -9.9878  -9.6780  -9.5706
    -9.3446  -9.2630  -9.1798  -9.0856  -9.0356  -8.8635  -8.8287  -8.8001
    -8.6858  -8.5241  -8.3680  -8.3575  -8.3002  -8.2101  -7.9221  -7.8638
    -7.8103  -7.7253  -7.5001  -7.4035  -7.3792  -7.3115  -7.1813  -7.0913
    -6.9549  -6.8821  -6.8667  -6.8012  -6.7198  -6.6867  -6.5652  -6.4609
    -6.3845  -6.3464  -6.1092  -6.0753  -6.0056  -5.9906  -5.8685  -5.8516
    -5.8492  -5.7248  -5.6215  -5.5554  -4.3712  -4.3086  -4.2306  -4.1760
    -4.1265  -4.0390  -4.0380  -3.9595  -1.1702  -0.6970  -0.4994  -0.3144
     0.1452   0.4354   0.5630   0.6719   0.7253   0.7934   0.8478   1.0012
     1.2225   1.3149   1.3259   1.4026

 ------ SPIN DOWN ----------


          k = 0.0000 0.0000 0.0000 (109591 PWs)   bands (ev):

   -74.8765 -74.8765 -74.8755 -74.8754 -46.3356 -46.3356 -46.3341 -46.3340
   -46.3037 -46.3037 -46.3030 -46.3030 -46.2988 -46.2988 -46.2981 -46.2981
   -18.5808 -18.4825 -17.8234 -17.6951 -17.4890 -17.4871 -17.4860 -17.4857
   -17.3461 -17.3455 -17.3447 -17.3446  -9.9933  -9.9932  -9.7065  -9.1852
    -9.0180  -9.0065  -8.9642  -8.9310  -8.8590  -8.8352  -8.7113  -8.7040
    -8.7030  -8.6974  -8.0104  -7.9705  -7.7248  -7.7238  -7.6821  -7.6637
    -7.4201  -7.3961  -7.3124  -7.3102  -7.1988  -7.0677  -6.9280  -6.3801
    -6.3713  -6.3158  -6.3044  -6.1663  -5.8350  -5.8327  -5.7713  -5.7667
    -3.6015  -3.6000  -3.5735  -3.5712  -3.5511  -3.5498  -3.5049  -3.4530
    -3.2465  -3.2446  -3.2248  -3.2206  -2.9074  -2.8999  -2.7933  -2.7915
    -2.5638  -2.5381  -2.5225  -2.4885  -0.2877  -0.0211  -0.0198  -0.0165
     0.1424   0.3484   0.8819   0.8882   1.0538   1.0761   1.5812   1.5830
     1.7423   1.7681   1.9844   2.1624

          k = 0.0000 0.1925 0.0000 (109722 PWs)   bands (ev):

   -74.8765 -74.8765 -74.8755 -74.8754 -46.3356 -46.3356 -46.3341 -46.3341
   -46.3039 -46.3038 -46.3027 -46.3027 -46.2992 -46.2992 -46.2979 -46.2979
   -18.5224 -18.4260 -17.7887 -17.6654 -17.5767 -17.5575 -17.5133 -17.5053
   -17.3688 -17.3624 -17.3456 -17.3429  -9.9763  -9.9656  -9.6558  -9.2236
    -9.1213  -9.1058  -9.0152  -8.8917  -8.8852  -8.7906  -8.7696  -8.6983
    -8.3707  -8.2821  -7.9020  -7.8527  -7.7944  -7.7657  -7.6578  -7.5857
    -7.3932  -7.3581  -7.3255  -7.2798  -7.1020  -6.9921  -6.8794  -6.5174
    -6.4355  -6.4131  -6.3785  -6.2277  -6.2238  -6.0413  -5.9452  -5.8787
    -3.6393  -3.6362  -3.5467  -3.5105  -3.4851  -3.4582  -3.4016  -3.3523
    -3.2838  -3.2697  -3.2569  -3.2428  -2.9092  -2.8661  -2.8132  -2.7505
    -2.6972  -2.6434  -2.5882  -2.5407  -0.1009   0.0495   0.1027   0.4249
     0.5294   0.6515   0.6781   0.7587   1.0225   1.2008   1.4061   1.5251
     1.8261   1.9497   1.9588   2.1058

          k = 0.0000 0.3849 0.0000 (109616 PWs)   bands (ev):

   -74.8765 -74.8765 -74.8755 -74.8754 -46.3355 -46.3354 -46.3342 -46.3342
   -46.3041 -46.3040 -46.3019 -46.3019 -46.3000 -46.2999 -46.2977 -46.2977
   -18.3631 -18.2720 -17.7810 -17.7382 -17.6967 -17.5884 -17.5606 -17.5422
   -17.4343 -17.3965 -17.3702 -17.3615  -9.9592  -9.8812  -9.4992  -9.2835
    -9.2376  -9.1329  -9.0425  -8.8450  -8.8215  -8.6526  -8.5326  -8.3503
    -8.2598  -8.1167  -7.9150  -7.8725  -7.7901  -7.7425  -7.4764  -7.4517
    -7.3776  -7.2411  -7.2374  -7.1202  -7.0497  -7.0218  -6.9564  -6.8911
    -6.8512  -6.6437  -6.5080  -6.4507  -6.3188  -6.1572  -6.0815  -5.9124
    -3.7007  -3.6875  -3.6806  -3.5784  -3.4421  -3.3998  -3.3341  -3.2827
    -3.2728  -3.2335  -3.2230  -3.1746  -2.9182  -2.8708  -2.8061  -2.7892
    -2.7161  -2.6873  -2.6260  -2.6012  -0.5304   0.0398   0.5316   0.6610
     0.7245   0.7462   0.9077   1.0676   1.1352   1.3009   1.3209   1.4583
     1.5375   1.6510   1.6927   1.8412

          k = 0.0000-0.5774 0.0000 (109602 PWs)   bands (ev):

   -74.8765 -74.8765 -74.8755 -74.8755 -46.3354 -46.3354 -46.3343 -46.3343
   -46.3041 -46.3041 -46.3012 -46.3012 -46.3007 -46.3007 -46.2976 -46.2976
   -18.2134 -18.1246 -17.9514 -17.8986 -17.6103 -17.5890 -17.5603 -17.5082
   -17.5047 -17.4492 -17.3892 -17.3710  -9.9681  -9.8439  -9.3663  -9.3140
    -9.2285  -9.1450  -8.9414  -8.6583  -8.6553  -8.5720  -8.5138  -8.4084
    -8.3509  -8.0645  -7.9447  -7.8772  -7.7596  -7.6796  -7.5702  -7.5019
    -7.4787  -7.4022  -7.3459  -7.1575  -7.1275  -6.9629  -6.9141  -6.7523
    -6.7329  -6.5843  -6.5445  -6.5320  -6.3706  -6.2994  -6.0642  -5.8245
    -3.8104  -3.7272  -3.7264  -3.6768  -3.4902  -3.4123  -3.3336  -3.2650
    -3.2422  -3.1928  -3.1845  -3.1372  -2.9486  -2.8847  -2.7638  -2.7486
    -2.7172  -2.6654  -2.5979  -2.5832  -0.8113  -0.1868   0.1936   0.5643
     0.8525   0.8734   0.8952   1.1375   1.1431   1.3846   1.4497   1.4585
     1.5759   1.6297   1.6505   1.6968

          k = 0.1667 0.2887 0.0000 (109615 PWs)   bands (ev):

   -74.8765 -74.8765 -74.8755 -74.8754 -46.3355 -46.3355 -46.3342 -46.3342
   -46.3040 -46.3039 -46.3024 -46.3022 -46.2996 -46.2994 -46.2979 -46.2978
   -18.4120 -18.3206 -17.7258 -17.7019 -17.6766 -17.6088 -17.5661 -17.5538
   -17.4051 -17.3904 -17.3569 -17.3547  -9.9340  -9.8577  -9.5732  -9.2948
    -9.1852  -9.1558  -9.0435  -8.9550  -8.8996  -8.7141  -8.5467  -8.4308
    -8.1681  -8.0530  -7.9725  -7.9317  -7.8156  -7.7614  -7.5441  -7.4265
    -7.3344  -7.3015  -7.2194  -7.1530  -7.0832  -7.0190  -6.9759  -6.8146
    -6.5788  -6.5440  -6.4250  -6.4165  -6.3657  -6.1408  -6.0673  -6.0316
    -3.6579  -3.6212  -3.6171  -3.5964  -3.4304  -3.3877  -3.3589  -3.3471
    -3.2797  -3.2500  -3.2298  -3.2200  -2.9221  -2.8249  -2.8179  -2.7833
    -2.7189  -2.6669  -2.6091  -2.5987  -0.2379  -0.0607   0.3626   0.5321
     0.6052   0.7247   0.8601   0.9937   1.1553   1.2330   1.3005   1.4711
     1.6500   1.7151   1.7928   1.8466

          k = 0.1667 0.4811 0.0000 (109606 PWs)   bands (ev):

   -74.8765 -74.8765 -74.8755 -74.8755 -46.3354 -46.3354 -46.3343 -46.3343
   -46.3041 -46.3041 -46.3017 -46.3014 -46.3004 -46.3002 -46.2977 -46.2976
   -18.2293 -18.1437 -17.8990 -17.8592 -17.6272 -17.6230 -17.5986 -17.5219
   -17.4772 -17.4366 -17.3850 -17.3710  -9.8357  -9.7360  -9.4126  -9.3281
    -9.2387  -9.0706  -9.0339  -8.8563  -8.7676  -8.5871  -8.5212  -8.4561
    -8.3801  -8.2252  -7.9011  -7.8757  -7.7567  -7.7077  -7.5845  -7.4891
    -7.4081  -7.4039  -7.1616  -7.1076  -7.0092  -6.8676  -6.8128  -6.7821
    -6.7176  -6.6283  -6.5259  -6.5016  -6.2995  -6.2631  -6.2108  -5.9699
    -3.7520  -3.7234  -3.6728  -3.6298  -3.4424  -3.4253  -3.4226  -3.3524
    -3.2510  -3.2080  -3.1746  -3.1618  -2.8858  -2.8545  -2.7553  -2.7295
    -2.6610  -2.6474  -2.6039  -2.5948  -0.6135  -0.1224   0.0545   0.3077
     0.4012   0.6829   0.7370   0.8767   1.0633   1.1910   1.2437   1.3398
     1.3729   1.4537   1.6222   1.7833

          k = 0.3333 0.5774 0.0000 (109542 PWs)   bands (ev):

   -74.8765 -74.8765 -74.8755 -74.8755 -46.3354 -46.3353 -46.3343 -46.3343
   -46.3040 -46.3040 -46.3017 -46.3017 -46.3001 -46.3001 -46.2978 -46.2978
   -18.0603 -18.0445 -17.9990 -17.9789 -17.6768 -17.6512 -17.5448 -17.5280
   -17.4831 -17.4538 -17.4018 -17.3841  -9.5531  -9.5270  -9.4589  -9.4450
    -9.1009  -9.0620  -9.0371  -8.8572  -8.8493  -8.8281  -8.5242  -8.4655
    -8.3931  -8.3148  -8.2293  -8.1278  -7.7054  -7.6834  -7.6606  -7.4442
    -7.1529  -7.1117  -7.0715  -7.0324  -6.9322  -6.9198  -6.7010  -6.6802
    -6.6389  -6.6306  -6.5896  -6.5404  -6.3681  -6.2611  -6.2290  -6.1141
    -3.7088  -3.7005  -3.6705  -3.6403  -3.5221  -3.4659  -3.4382  -3.4301
    -3.2345  -3.2304  -3.1749  -3.1625  -2.8390  -2.7666  -2.7625  -2.6380
    -2.6321  -2.6249  -2.5935  -2.5437  -0.4506  -0.3896  -0.1810  -0.0848
     0.3196   0.4940   0.5410   0.5975   0.7725   0.7944   1.0852   1.2537
     1.3234   1.3661   1.5263   1.5425

          k =-0.1667 0.0962 0.0000 (109722 PWs)   bands (ev):

   -74.8765 -74.8765 -74.8755 -74.8754 -46.3356 -46.3356 -46.3341 -46.3341
   -46.3038 -46.3037 -46.3029 -46.3028 -46.2990 -46.2988 -46.2981 -46.2980
   -18.5221 -18.4263 -17.7886 -17.6659 -17.5800 -17.5502 -17.5189 -17.5036
   -17.3701 -17.3610 -17.3465 -17.3418 -10.0171  -9.9208  -9.6553  -9.2345
    -9.1232  -9.0860  -9.0221  -8.9085  -8.8704  -8.8021  -8.7779  -8.6838
    -8.3484  -8.2971  -7.9184  -7.8563  -7.7959  -7.7254  -7.6589  -7.6382
    -7.4080  -7.3189  -7.2759  -7.2722  -7.1850  -6.9912  -6.8185  -6.5581
    -6.4628  -6.3710  -6.3550  -6.2871  -6.2016  -6.0324  -5.9358  -5.8870
    -3.6546  -3.6234  -3.5250  -3.5044  -3.4966  -3.4786  -3.3903  -3.3650
    -3.2931  -3.2730  -3.2464  -3.2366  -2.9081  -2.8788  -2.7889  -2.7612
    -2.6846  -2.6429  -2.5929  -2.5471  -0.1594   0.0911   0.1576   0.4199
     0.5511   0.6072   0.6589   0.7106   1.1046   1.2286   1.3190   1.5431
     1.8036   1.9601   2.0087   2.0988

          k =-0.3333 0.1925 0.0000 (109616 PWs)   bands (ev):

   -74.8765 -74.8765 -74.8755 -74.8754 -46.3355 -46.3354 -46.3342 -46.3342
   -46.3039 -46.3037 -46.3027 -46.3023 -46.2995 -46.2990 -46.2981 -46.2979
   -18.3606 -18.2750 -17.7860 -17.7338 -17.6918 -17.5917 -17.5641 -17.5405
   -17.4350 -17.3892 -17.3765 -17.3606  -9.9866  -9.8507  -9.5049  -9.2629
    -9.2400  -9.1241  -9.0538  -8.8500  -8.8359  -8.6393  -8.5655  -8.3172
    -8.2593  -8.1338  -7.8728  -7.8614  -7.8112  -7.7682  -7.5506  -7.4154
    -7.3139  -7.2840  -7.1807  -7.1502  -7.0594  -7.0369  -6.9867  -6.8949
    -6.7443  -6.6979  -6.5379  -6.3949  -6.3442  -6.1537  -6.0349  -5.9641
    -3.6942  -3.6864  -3.6546  -3.6179  -3.4389  -3.4130  -3.3200  -3.2904
    -3.2625  -3.2449  -3.2194  -3.1879  -2.8987  -2.8522  -2.7927  -2.7643
    -2.7421  -2.6900  -2.6626  -2.5878  -0.5576   0.0710   0.4832   0.6047
     0.6987   0.8692   0.9456   1.1011   1.1406   1.2474   1.3691   1.4365
     1.4998   1.6243   1.7080   1.7663

          k = 0.5000-0.2887 0.0000 (109602 PWs)   bands (ev):

   -74.8765 -74.8765 -74.8755 -74.8755 -46.3354 -46.3354 -46.3343 -46.3342
   -46.3040 -46.3037 -46.3026 -46.3020 -46.2998 -46.2992 -46.2981 -46.2979
   -18.1945 -18.1525 -17.9405 -17.8998 -17.5943 -17.5921 -17.5570 -17.5560
   -17.4718 -17.4447 -17.3967 -17.3698  -9.9777  -9.8402  -9.3319  -9.3130
    -9.2552  -9.1522  -8.8574  -8.7583  -8.6469  -8.6099  -8.4950  -8.4524
    -8.2450  -8.1189  -7.9052  -7.8967  -7.7138  -7.7111  -7.5532  -7.5281
    -7.5179  -7.3470  -7.3002  -7.2721  -7.0959  -7.0301  -6.8093  -6.7368
    -6.7081  -6.6786  -6.5793  -6.4567  -6.3740  -6.2923  -5.9691  -5.9296
    -3.7700  -3.7481  -3.7188  -3.7109  -3.4783  -3.4401  -3.2885  -3.2662
    -3.2373  -3.2331  -3.1760  -3.1584  -2.9002  -2.8619  -2.7951  -2.7393
    -2.7221  -2.6567  -2.6068  -2.5908  -0.8374  -0.1750   0.1623   0.5799
     0.8454   0.9111   0.9547   1.0692   1.1517   1.4118   1.4501   1.4634
     1.5486   1.5865   1.6782   1.6870

          k = 0.3333 0.0000 0.0000 (109615 PWs)   bands (ev):

   -74.8765 -74.8765 -74.8755 -74.8754 -46.3355 -46.3355 -46.3342 -46.3342
   -46.3038 -46.3037 -46.3027 -46.3027 -46.2991 -46.2990 -46.2981 -46.2981
   -18.4112 -18.3215 -17.7247 -17.7131 -17.6585 -17.6178 -17.5701 -17.5484
   -17.4126 -17.3787 -17.3620 -17.3541  -9.9686  -9.8150  -9.5704  -9.3183
    -9.1840  -9.1273  -9.0738  -8.9335  -8.8788  -8.7244  -8.6070  -8.3804
    -8.1765  -8.0558  -7.9981  -7.9218  -7.8025  -7.7149  -7.6372  -7.4516
    -7.2640  -7.2222  -7.2116  -7.1496  -7.1337  -7.0803  -6.9669  -6.7838
    -6.5816  -6.5444  -6.4670  -6.3793  -6.3590  -6.1298  -6.0724  -6.0483
    -3.6604  -3.6360  -3.6048  -3.5880  -3.4319  -3.3855  -3.3821  -3.3407
    -3.2702  -3.2597  -3.2346  -3.2064  -2.9102  -2.8312  -2.8200  -2.7384
    -2.7271  -2.6892  -2.6562  -2.5617  -0.3081   0.0879   0.2270   0.5189
     0.6216   0.7382   0.9605   0.9683   1.0986   1.2187   1.2803   1.5278
     1.6631   1.7263   1.7914   1.9220

          k =-0.3333 0.3849 0.0000 (109606 PWs)   bands (ev):

   -74.8765 -74.8765 -74.8755 -74.8755 -46.3354 -46.3354 -46.3343 -46.3342
   -46.3040 -46.3039 -46.3022 -46.3018 -46.3000 -46.2995 -46.2979 -46.2978
   -18.2235 -18.1521 -17.8995 -17.8551 -17.6310 -17.6168 -17.5980 -17.5342
   -17.4695 -17.4318 -17.3903 -17.3697  -9.8492  -9.7233  -9.4252  -9.3030
    -9.2290  -9.0780  -9.0379  -8.8351  -8.8158  -8.5740  -8.5318  -8.4475
    -8.3814  -8.2158  -7.9006  -7.8798  -7.7513  -7.7089  -7.5910  -7.4666
    -7.4453  -7.3683  -7.2161  -7.1302  -6.9347  -6.8898  -6.7941  -6.7695
    -6.7089  -6.6886  -6.5112  -6.4650  -6.3800  -6.2173  -6.1244  -6.0462
    -3.7365  -3.7123  -3.6952  -3.6375  -3.4542  -3.4295  -3.4029  -3.3550
    -3.2404  -3.2108  -3.1931  -3.1639  -2.8707  -2.8107  -2.7698  -2.7194
    -2.6994  -2.6459  -2.6113  -2.5857  -0.6360  -0.0987   0.0427   0.3215
     0.3642   0.7320   0.7790   0.8853   0.9877   1.1127   1.2948   1.3887
     1.4097   1.4232   1.5557   1.7381

          k = 0.5000 0.0962 0.0000 (109606 PWs)   bands (ev):

   -74.8765 -74.8765 -74.8755 -74.8755 -46.3354 -46.3354 -46.3343 -46.3342
   -46.3039 -46.3038 -46.3024 -46.3021 -46.2996 -46.2994 -46.2980 -46.2979
   -18.2226 -18.1524 -17.9096 -17.8435 -17.6337 -17.6243 -17.5889 -17.5318
   -17.4814 -17.4140 -17.4003 -17.3691  -9.8610  -9.7096  -9.4247  -9.3092
    -9.2248  -9.0719  -9.0360  -8.8332  -8.8027  -8.5896  -8.5354  -8.4944
    -8.3836  -8.1409  -7.9395  -7.8771  -7.7641  -7.7031  -7.5853  -7.4859
    -7.4093  -7.3684  -7.2177  -7.1216  -6.9968  -6.8437  -6.8011  -6.7532
    -6.7208  -6.6623  -6.5683  -6.4587  -6.3012  -6.2550  -6.1219  -6.0637
    -3.7602  -3.6892  -3.6777  -3.6506  -3.4539  -3.4395  -3.3992  -3.3555
    -3.2361  -3.2201  -3.1809  -3.1659  -2.8541  -2.8306  -2.7630  -2.7182
    -2.6967  -2.6611  -2.6085  -2.5792  -0.6445  -0.0779   0.0271   0.2451
     0.4016   0.7368   0.8560   0.9048   0.9847   1.0372   1.2649   1.3124
     1.4848   1.5461   1.6044   1.6645

     highest occupied, lowest unoccupied level (ev):    -5.5205   -4.4010

!    total energy              =   -5464.16034717 Ry
     total all-electron energy =     -5464.160347 Ry
     estimated scf accuracy    <          9.6E-10 Ry

     The total energy is the sum of the following terms:
     one-electron contribution =   -9555.81790360 Ry
     hartree contribution      =    4752.27119634 Ry
     xc contribution           =    -163.56606589 Ry
     ewald contribution        =    3972.84397750 Ry
     one-center paw contrib.   =   -4469.89155152 Ry

     total magnetization       =    12.00 Bohr mag/cell
     absolute magnetization    =    14.56 Bohr mag/cell

     convergence has been achieved in  17 iterations

     negative rho (up, down):  3.072E-02 3.490E-02

     Forces acting on atoms (cartesian axes, Ry/au):

     atom    1 type  1   force =    -0.00034639    0.00048946    0.00045194
     atom    2 type  1   force =    -0.00034639   -0.00048946    0.00045194
     atom    3 type  2   force =     0.00094019    0.00000000    0.00028230
     atom    4 type  2   force =    -0.00087507   -0.00048028    0.00233202
     atom    5 type  2   force =    -0.00087507    0.00048028    0.00233202
     atom    6 type  2   force =    -0.00052807    0.00000000   -0.00244446
     atom    7 type  2   force =     0.00037088    0.00031025   -0.00258028
     atom    8 type  2   force =     0.00037088   -0.00031025   -0.00258028
     atom    9 type  1   force =     0.00034099    0.00048267   -0.00045348
     atom   10 type  1   force =     0.00034099   -0.00048267   -0.00045348
     atom   11 type  2   force =     0.00053020    0.00000000    0.00244465
     atom   12 type  2   force =    -0.00036939   -0.00031051    0.00258179
     atom   13 type  2   force =    -0.00036939    0.00031051    0.00258179
     atom   14 type  2   force =    -0.00093889    0.00000000   -0.00028110
     atom   15 type  2   force =     0.00087727    0.00047988   -0.00233269
     atom   16 type  2   force =     0.00087727   -0.00047988   -0.00233269

     Total force =     0.008367     Total SCF correction =     0.000086


     Computing stress (Cartesian axis) and pressure


     negative rho (up, down):  3.072E-02 3.490E-02
          total   stress  (Ry/bohr**3)                   (kbar)     P=        0.97
   0.00000312   0.00000000  -0.00000142            0.46        0.00       -0.21
   0.00000000   0.00000252   0.00000000            0.00        0.37        0.00
  -0.00000142   0.00000000   0.00001420           -0.21        0.00        2.09


     BFGS Geometry Optimization
     Energy error            =      0.0E+00 Ry
     Gradient error          =      2.6E-03 Ry/Bohr

     number of scf cycles    =   1
     number of bfgs steps    =   0

     energy             new  =   -5464.1603471697 Ry

     new trust radius        =       0.0026264973 bohr
     new conv_thr            =       0.0000000010 Ry


ATOMIC_POSITIONS (angstrom)
Cr               5.7306350490        1.9854727218       15.6144530483
Cr               2.2921440390        3.9701684082       15.6144535083
I                6.7154282680       -0.0000131800       14.0631406958
I                3.5190421704        2.1253066678       14.0642253635
I                0.0805739804        3.8303476422       14.0642253635
I                4.7464266267       -0.0000114000       17.1641418888
I                4.5038153720        3.8302566798       17.1640700134
I                1.0653441120        2.1253958602       17.1640700134
Cr               3.4386714548        1.9854691261        9.0315287608
Cr               0.0001804448        3.9701720039        9.0315292208
I                4.4228839678       -0.0000131800        7.4818398020
I                1.2269824253        2.1253965070        7.4819123727
I               -2.2114857647        3.8302578030        7.4819123727
I                2.4538818924       -0.0000114000       10.5828415188
I                2.2117560011        3.8303464410       10.5817558637
I               -1.2267152589        2.1253060990       10.5817558637



     Writing config-only to output data dir ./ht_fm_qe/ht_fm_qe.save/ :
     XML data file
     NEW-OLD atomic charge density approx. for the potential

     negative rho (up, down):  3.044E-02 3.522E-02
     Generating pointlists ...

     total cpu time spent up to now is     1104.5 secs

     Self-consistent Calculation

     iteration #  1     ecut=    90.00 Ry     beta= 0.50
     Davidson diagonalization with overlap
     ethr =  1.00E-06,  avg # of iterations =  2.0

     Threshold (ethr) on eigenvalues was too large:
     Diagonalizing with lowered threshold

     Davidson diagonalization with overlap
     ethr =  1.74E-09,  avg # of iterations =  4.0

     negative rho (up, down):  3.064E-02 3.505E-02

     total cpu time spent up to now is     1214.6 secs

     total energy              =   -5464.16040998 Ry
     estimated scf accuracy    <       0.00000283 Ry

     total magnetization       =    12.00 Bohr mag/cell
     absolute magnetization    =    14.55 Bohr mag/cell

     iteration #  2     ecut=    90.00 Ry     beta= 0.50
     Davidson diagonalization with overlap
     ethr =  2.02E-09,  avg # of iterations =  3.0

     negative rho (up, down):  3.066E-02 3.502E-02

     total cpu time spent up to now is     1265.9 secs

     total energy              =   -5464.16040977 Ry
     estimated scf accuracy    <       0.00001760 Ry

     total magnetization       =    12.00 Bohr mag/cell
     absolute magnetization    =    14.55 Bohr mag/cell

     iteration #  3     ecut=    90.00 Ry     beta= 0.50
     Davidson diagonalization with overlap
     ethr =  2.02E-09,  avg # of iterations =  2.5

     negative rho (up, down):  3.069E-02 3.496E-02

     total cpu time spent up to now is     1311.5 secs

     total energy              =   -5464.16041261 Ry
     estimated scf accuracy    <       0.00000048 Ry

     total magnetization       =    12.00 Bohr mag/cell
     absolute magnetization    =    14.55 Bohr mag/cell

     iteration #  4     ecut=    90.00 Ry     beta= 0.50
     Davidson diagonalization with overlap
     ethr =  3.43E-10,  avg # of iterations =  3.5

     negative rho (up, down):  3.070E-02 3.494E-02

     total cpu time spent up to now is     1360.2 secs

     total energy              =   -5464.16041287 Ry
     estimated scf accuracy    <       0.00000020 Ry

     total magnetization       =    12.00 Bohr mag/cell
     absolute magnetization    =    14.55 Bohr mag/cell

     iteration #  5     ecut=    90.00 Ry     beta= 0.50
     Davidson diagonalization with overlap
     ethr =  1.39E-10,  avg # of iterations =  2.0

     negative rho (up, down):  3.071E-02 3.492E-02

     total cpu time spent up to now is     1400.8 secs

     total energy              =   -5464.16041311 Ry
     estimated scf accuracy    <       0.00000012 Ry

     total magnetization       =    12.00 Bohr mag/cell
     absolute magnetization    =    14.55 Bohr mag/cell

     iteration #  6     ecut=    90.00 Ry     beta= 0.50
     Davidson diagonalization with overlap
     ethr =  8.32E-11,  avg # of iterations =  2.1

     negative rho (up, down):  3.072E-02 3.491E-02

     total cpu time spent up to now is     1443.2 secs

     total energy              =   -5464.16041321 Ry
     estimated scf accuracy    <       0.00000002 Ry

     total magnetization       =    12.00 Bohr mag/cell
     absolute magnetization    =    14.55 Bohr mag/cell

     iteration #  7     ecut=    90.00 Ry     beta= 0.50
     Davidson diagonalization with overlap
     ethr =  1.54E-11,  avg # of iterations =  3.3

     negative rho (up, down):  3.072E-02 3.491E-02

     total cpu time spent up to now is     1489.9 secs

     total energy              =   -5464.16041322 Ry
     estimated scf accuracy    <       0.00000001 Ry

     total magnetization       =    12.00 Bohr mag/cell
     absolute magnetization    =    14.55 Bohr mag/cell

     iteration #  8     ecut=    90.00 Ry     beta= 0.50
     Davidson diagonalization with overlap
     ethr =  8.17E-12,  avg # of iterations =  1.5

     negative rho (up, down):  3.073E-02 3.490E-02

     total cpu time spent up to now is     1529.9 secs

     total energy              =   -5464.16041322 Ry
     estimated scf accuracy    <          2.5E-09 Ry

     total magnetization       =    12.00 Bohr mag/cell
     absolute magnetization    =    14.55 Bohr mag/cell

     iteration #  9     ecut=    90.00 Ry     beta= 0.50
     Davidson diagonalization with overlap
     ethr =  1.75E-12,  avg # of iterations =  3.3

     negative rho (up, down):  3.073E-02 3.490E-02

     Magnetic moment per site  (integrated on atomic sphere of radius R)
     atom   1 (R=0.162)  charge= 12.4173  magn=  2.9533
     atom   2 (R=0.162)  charge= 12.4173  magn=  2.9533
     atom   3 (R=0.162)  charge=  4.0417  magn= -0.0598
     atom   4 (R=0.162)  charge=  4.0412  magn= -0.0598
     atom   5 (R=0.162)  charge=  4.0412  magn= -0.0598
     atom   6 (R=0.162)  charge=  4.0455  magn= -0.0581
     atom   7 (R=0.162)  charge=  4.0454  magn= -0.0587
     atom   8 (R=0.162)  charge=  4.0454  magn= -0.0587
     atom   9 (R=0.162)  charge= 12.4172  magn=  2.9533
     atom  10 (R=0.162)  charge= 12.4172  magn=  2.9533
     atom  11 (R=0.162)  charge=  4.0455  magn= -0.0581
     atom  12 (R=0.162)  charge=  4.0453  magn= -0.0587
     atom  13 (R=0.162)  charge=  4.0453  magn= -0.0587
     atom  14 (R=0.162)  charge=  4.0417  magn= -0.0598
     atom  15 (R=0.162)  charge=  4.0413  magn= -0.0598
     atom  16 (R=0.162)  charge=  4.0413  magn= -0.0598

     total cpu time spent up to now is     1577.9 secs

     End of self-consistent calculation

 ------ SPIN UP ------------


          k = 0.0000 0.0000 0.0000 (109591 PWs)   bands (ev):

   -77.9531 -77.9531 -77.9521 -77.9521 -49.3616 -49.3616 -49.3603 -49.3603
   -49.3538 -49.3538 -49.3531 -49.3531 -49.3501 -49.3501 -49.3494 -49.3494
   -18.5849 -18.4899 -17.7784 -17.6492 -17.4464 -17.4455 -17.4440 -17.4435
   -17.3041 -17.3038 -17.3030 -17.3024 -10.3113 -10.3112  -9.9401  -9.4688
    -9.1902  -9.1864  -9.1274  -9.1118  -9.0977  -9.0887  -8.9966  -8.9966
    -8.8064  -8.8008  -8.3670  -8.3342  -8.3083  -8.2931  -8.1790  -8.1688
    -7.8094  -7.8064  -7.7910  -7.7882  -7.2936  -7.2214  -7.0234  -6.7753
    -6.7562  -6.7344  -6.7317  -6.5987  -6.5984  -6.3206  -6.2955  -6.2925
    -6.2788  -6.2619  -6.2016  -6.1416  -6.1279  -6.0293  -6.0227  -5.9238
    -5.6409  -5.6168  -5.5949  -5.5653  -4.3587  -4.3556  -4.2960  -4.2778
    -3.9131  -3.8825  -3.8680  -3.8311  -0.7544  -0.7539  -0.6274  -0.2142
    -0.0655   0.0028   0.5978   0.6046   0.8436   0.8756   1.2978   1.3234
     1.4435   1.5048   1.8988   1.9766

          k = 0.0000 0.1925 0.0000 (109722 PWs)   bands (ev):

   -77.9531 -77.9531 -77.9521 -77.9521 -49.3616 -49.3616 -49.3603 -49.3603
   -49.3538 -49.3538 -49.3529 -49.3529 -49.3504 -49.3504 -49.3493 -49.3493
   -18.5248 -18.4315 -17.7438 -17.6196 -17.5381 -17.5192 -17.4718 -17.4638
   -17.3269 -17.3210 -17.3043 -17.3008 -10.2762 -10.2691  -9.8932  -9.4979
    -9.2846  -9.2230  -9.2115  -9.1033  -9.0863  -9.0478  -8.9768  -8.9273
    -8.6447  -8.6090  -8.4151  -8.3503  -8.3421  -8.3204  -7.9603  -7.9128
    -7.8315  -7.7994  -7.6816  -7.6746  -7.2717  -7.2187  -7.1051  -6.9351
    -6.9200  -6.8434  -6.6674  -6.6362  -6.6211  -6.4797  -6.4550  -6.3399
    -6.3189  -6.2201  -6.1518  -6.1240  -6.0901  -6.0366  -6.0052  -5.9645
    -5.7303  -5.6179  -5.6036  -5.5356  -4.3832  -4.3355  -4.2895  -4.2127
    -4.0749  -4.0331  -3.9513  -3.8784  -0.7630  -0.6688  -0.2640   0.2163
     0.2278   0.2910   0.4166   0.4705   0.7989   1.0129   1.1641   1.3064
     1.5526   1.6338   1.6935   1.8684

          k = 0.0000 0.3849 0.0000 (109616 PWs)   bands (ev):

   -77.9531 -77.9531 -77.9521 -77.9521 -49.3615 -49.3615 -49.3604 -49.3604
   -49.3539 -49.3539 -49.3524 -49.3524 -49.3509 -49.3509 -49.3491 -49.3491
   -18.3609 -18.2725 -17.7516 -17.7101 -17.6521 -17.5428 -17.5187 -17.5006
   -17.3918 -17.3551 -17.3287 -17.3217 -10.2297 -10.1651  -9.7474  -9.5323
    -9.3419  -9.2953  -9.1853  -9.0860  -9.0698  -8.9344  -8.7649  -8.6732
    -8.6549  -8.5730  -8.3671  -8.3324  -8.3101  -8.2450  -7.9422  -7.8888
    -7.6476  -7.5964  -7.5480  -7.5091  -7.4635  -7.3441  -7.1491  -7.1116
    -7.0398  -6.9778  -6.9634  -6.8989  -6.5253  -6.4970  -6.4693  -6.3472
    -6.3287  -6.2448  -6.1418  -6.1185  -6.0713  -6.0673  -6.0092  -5.9098
    -5.8584  -5.6356  -5.6004  -5.5208  -4.3602  -4.3531  -4.2843  -4.2267
    -4.1039  -4.0896  -4.0500  -4.0145  -1.0436  -0.6344   0.0464   0.0782
     0.4193   0.4226   0.7000   0.9016   0.9311   0.9960   1.0472   1.0542
     1.3531   1.3551   1.4764   1.4866

          k = 0.0000-0.5774 0.0000 (109602 PWs)   bands (ev):

   -77.9531 -77.9531 -77.9521 -77.9521 -49.3615 -49.3615 -49.3604 -49.3604
   -49.3539 -49.3539 -49.3519 -49.3519 -49.3515 -49.3515 -49.3491 -49.3491
   -18.2079 -18.1214 -17.9275 -17.8767 -17.5656 -17.5461 -17.5193 -17.4651
   -17.4593 -17.4073 -17.3493 -17.3319 -10.2291 -10.1216  -9.6192  -9.4916
    -9.3903  -9.2559  -9.1845  -8.9861  -8.9092  -8.8087  -8.7620  -8.7197
    -8.7042  -8.5363  -8.3742  -8.2900  -8.1696  -8.1192  -8.0779  -8.0241
    -7.8603  -7.7485  -7.7239  -7.6496  -7.4589  -7.2644  -7.1025  -7.0159
    -6.8860  -6.8772  -6.8680  -6.7818  -6.6000  -6.5847  -6.4986  -6.4126
    -6.3942  -6.3397  -6.1747  -6.0690  -6.0656  -6.0638  -6.0016  -5.8798
    -5.8695  -5.6793  -5.5576  -5.5338  -4.3708  -4.3528  -4.2943  -4.1768
    -4.1128  -4.1059  -4.0686  -3.9792  -1.2972  -0.8351   0.0340   0.0930
     0.1666   0.3838   0.6259   0.6505   0.9069   1.0991   1.1451   1.1942
     1.3425   1.3761   1.4409   1.4502

          k = 0.1667 0.2887 0.0000 (109615 PWs)   bands (ev):

   -77.9531 -77.9531 -77.9521 -77.9521 -49.3615 -49.3615 -49.3603 -49.3603
   -49.3539 -49.3538 -49.3528 -49.3525 -49.3507 -49.3505 -49.3493 -49.3492
   -18.4111 -18.3225 -17.6820 -17.6698 -17.6447 -17.5637 -17.5251 -17.5125
   -17.3631 -17.3486 -17.3155 -17.3135 -10.2129 -10.1469  -9.8184  -9.5627
    -9.3313  -9.3044  -9.2019  -9.1391  -9.1009  -9.0036  -8.7977  -8.7009
    -8.6032  -8.5048  -8.4524  -8.4334  -8.2484  -8.2305  -7.9284  -7.8570
    -7.6989  -7.6672  -7.5784  -7.5284  -7.3693  -7.3402  -7.1160  -7.0298
    -6.9976  -6.9055  -6.8562  -6.8343  -6.6567  -6.6487  -6.4993  -6.3425
    -6.3244  -6.2413  -6.1341  -6.1082  -6.0760  -6.0179  -5.9691  -5.9155
    -5.8073  -5.6311  -5.6056  -5.5336  -4.3790  -4.3355  -4.2997  -4.2316
    -4.1407  -4.1162  -3.9773  -3.9148  -0.8454  -0.6326  -0.2073  -0.0261
     0.3401   0.4861   0.5887   0.7694   0.9895   1.0460   1.0798   1.2526
     1.3506   1.4417   1.5255   1.5694

          k = 0.1667 0.4811 0.0000 (109606 PWs)   bands (ev):

   -77.9531 -77.9531 -77.9521 -77.9521 -49.3615 -49.3615 -49.3604 -49.3604
   -49.3539 -49.3539 -49.3522 -49.3520 -49.3513 -49.3511 -49.3491 -49.3491
   -18.2231 -18.1398 -17.8763 -17.8378 -17.5846 -17.5803 -17.5575 -17.4771
   -17.4340 -17.3939 -17.3442 -17.3309 -10.0989 -10.0125  -9.6695  -9.5891
    -9.3557  -9.2733  -9.1703  -9.1076  -8.9956  -8.8664  -8.8192  -8.7549
    -8.7104  -8.5972  -8.3646  -8.3535  -8.2583  -8.2327  -7.9003  -7.8658
    -7.8145  -7.7505  -7.4760  -7.4225  -7.3806  -7.3128  -7.1657  -7.1010
    -6.9437  -6.8800  -6.8780  -6.8282  -6.7235  -6.6930  -6.5216  -6.4874
    -6.3717  -6.3419  -6.0991  -6.0567  -6.0400  -5.9893  -5.9490  -5.8582
    -5.8549  -5.6691  -5.5823  -5.5366  -4.3897  -4.3010  -4.2819  -4.1830
    -4.0965  -4.0553  -3.9938  -3.9635  -1.1164  -0.7500  -0.5112  -0.2777
     0.1829   0.4061   0.5116   0.6086   0.8124   0.8179   0.8616   1.0560
     1.1022   1.2110   1.3779   1.4544

          k = 0.3333 0.5774 0.0000 (109542 PWs)   bands (ev):

   -77.9531 -77.9531 -77.9521 -77.9521 -49.3615 -49.3615 -49.3604 -49.3604
   -49.3539 -49.3539 -49.3522 -49.3522 -49.3510 -49.3510 -49.3492 -49.3492
   -18.0476 -18.0309 -17.9863 -17.9680 -17.6355 -17.6106 -17.5010 -17.4839
   -17.4389 -17.4094 -17.3614 -17.3438  -9.8071  -9.7863  -9.7299  -9.7168
    -9.3378  -9.2650  -9.1975  -9.0859  -9.0422  -9.0316  -8.8472  -8.8105
    -8.6840  -8.5635  -8.5461  -8.5097  -8.3464  -8.3211  -7.9430  -7.7444
    -7.3926  -7.3537  -7.3506  -7.3131  -7.3019  -7.2618  -7.2595  -7.2481
    -7.2394  -7.2334  -6.8446  -6.7121  -6.6997  -6.6840  -6.6168  -6.6069
    -6.3931  -6.3773  -6.0645  -6.0252  -6.0096  -5.9113  -5.8722  -5.8479
    -5.7514  -5.7344  -5.6397  -5.5384  -4.3817  -4.2615  -4.2581  -4.0859
    -4.0814  -4.0600  -3.9507  -3.8747  -1.0088  -0.9436  -0.7391  -0.6672
     0.1027   0.1953   0.2153   0.3979   0.4555   0.5748   0.8119   0.8215
     0.9713   1.0490   1.2304   1.2662

          k =-0.1667 0.0962 0.0000 (109722 PWs)   bands (ev):

   -77.9531 -77.9531 -77.9521 -77.9521 -49.3616 -49.3616 -49.3603 -49.3603
   -49.3538 -49.3537 -49.3530 -49.3529 -49.3502 -49.3501 -49.3495 -49.3494
   -18.5245 -18.4318 -17.7437 -17.6201 -17.5422 -17.5126 -17.4766 -17.4615
   -17.3283 -17.3196 -17.3048 -17.2999 -10.3118 -10.2306  -9.8923  -9.5080
    -9.2787  -9.2157  -9.1844  -9.1285  -9.0833  -9.0698  -8.9940  -8.9022
    -8.6316  -8.6160  -8.4030  -8.3888  -8.3273  -8.3008  -7.9791  -7.9601
    -7.8204  -7.7534  -7.7078  -7.6342  -7.2894  -7.2500  -7.0578  -6.9623
    -6.9000  -6.8642  -6.6573  -6.6207  -6.6151  -6.4828  -6.4510  -6.3578
    -6.3171  -6.2275  -6.1561  -6.1162  -6.0966  -6.0395  -6.0091  -5.9596
    -5.7009  -5.6218  -5.5993  -5.5587  -4.3865  -4.3511  -4.2579  -4.2235
    -4.0733  -4.0257  -3.9479  -3.8896  -0.8507  -0.5514  -0.2699   0.1099
     0.2316   0.3562   0.4307   0.4768   0.7986   1.0492   1.0956   1.3168
     1.4967   1.6712   1.7555   1.8779

          k =-0.3333 0.1925 0.0000 (109616 PWs)   bands (ev):

   -77.9531 -77.9531 -77.9521 -77.9521 -49.3615 -49.3615 -49.3604 -49.3603
   -49.3539 -49.3537 -49.3529 -49.3525 -49.3506 -49.3502 -49.3496 -49.3493
   -18.3582 -18.2753 -17.7575 -17.7056 -17.6480 -17.5461 -17.5215 -17.4984
   -17.3929 -17.3484 -17.3344 -17.3204 -10.2541 -10.1376  -9.7520  -9.5238
    -9.3373  -9.2703  -9.2114  -9.1109  -9.0524  -8.9290  -8.8203  -8.6706
    -8.6111  -8.5725  -8.3382  -8.3238  -8.3065  -8.2651  -8.0111  -7.8710
    -7.6392  -7.6123  -7.5227  -7.4696  -7.4515  -7.3657  -7.1540  -7.1469
    -7.0477  -6.9869  -6.9430  -6.8756  -6.5174  -6.4985  -6.4474  -6.3861
    -6.3511  -6.2470  -6.1464  -6.1015  -6.0805  -6.0112  -5.9835  -5.9277
    -5.8298  -5.6910  -5.5970  -5.5504  -4.3895  -4.3325  -4.2028  -4.1848
    -4.1526  -4.1115  -4.0892  -3.9969  -1.0981  -0.5712  -0.0382   0.1494
     0.3355   0.5055   0.7523   0.8551   0.9448   0.9661   1.0554   1.1615
     1.2757   1.3018   1.4175   1.4904

          k = 0.5000-0.2887 0.0000 (109602 PWs)   bands (ev):

   -77.9531 -77.9531 -77.9521 -77.9521 -49.3615 -49.3615 -49.3604 -49.3604
   -49.3539 -49.3537 -49.3528 -49.3523 -49.3508 -49.3502 -49.3496 -49.3493
   -18.1884 -18.1472 -17.9194 -17.8790 -17.5498 -17.5489 -17.5148 -17.5116
   -17.4290 -17.4019 -17.3571 -17.3303 -10.2358 -10.1190  -9.5872  -9.5270
    -9.3802  -9.2378  -9.1382  -9.0546  -8.9119  -8.8798  -8.7546  -8.7253
    -8.5977  -8.5690  -8.3499  -8.3186  -8.1383  -8.1318  -8.0687  -8.0536
    -7.8575  -7.7352  -7.7308  -7.6707  -7.4178  -7.3205  -7.0862  -7.0138
    -6.9229  -6.8571  -6.8072  -6.7984  -6.5934  -6.5926  -6.5217  -6.4027
    -6.4016  -6.3676  -6.1614  -6.0907  -6.0432  -6.0195  -5.8924  -5.8741
    -5.8718  -5.7757  -5.6049  -5.5555  -4.3654  -4.3147  -4.2549  -4.1633
    -4.1525  -4.1009  -4.0586  -4.0127  -1.3439  -0.8038   0.0085   0.0972
     0.1817   0.3958   0.6475   0.6900   0.8108   1.1131   1.1973   1.2097
     1.3148   1.3737   1.4192   1.4968

          k = 0.3333 0.0000 0.0000 (109615 PWs)   bands (ev):

   -77.9531 -77.9531 -77.9521 -77.9521 -49.3615 -49.3615 -49.3603 -49.3603
   -49.3538 -49.3538 -49.3528 -49.3528 -49.3502 -49.3502 -49.3495 -49.3495
   -18.4102 -18.3233 -17.6825 -17.6799 -17.6287 -17.5723 -17.5276 -17.5065
   -17.3707 -17.3379 -17.3196 -17.3129 -10.2431 -10.1106  -9.8150  -9.5831
    -9.3042  -9.3040  -9.1928  -9.1541  -9.1105  -8.9885  -8.8474  -8.6569
    -8.5969  -8.5220  -8.4590  -8.4332  -8.2449  -8.2021  -8.0041  -7.8622
    -7.6876  -7.6165  -7.5991  -7.4500  -7.4102  -7.3589  -7.0958  -7.0547
    -6.9662  -6.9519  -6.8700  -6.8075  -6.6789  -6.6299  -6.4760  -6.3609
    -6.3105  -6.2468  -6.1325  -6.0916  -6.0798  -6.0678  -5.9367  -5.9128
    -5.7911  -5.6582  -5.5935  -5.5493  -4.3996  -4.3408  -4.2370  -4.2225
    -4.1458  -4.1340  -3.9987  -3.9054  -0.9313  -0.4336  -0.3557  -0.0221
     0.3362   0.4942   0.6458   0.7672   0.9103   1.0080   1.1127   1.3030
     1.3492   1.5016   1.5124   1.6541

          k =-0.3333 0.3849 0.0000 (109606 PWs)   bands (ev):

   -77.9531 -77.9531 -77.9521 -77.9521 -49.3615 -49.3615 -49.3604 -49.3604
   -49.3539 -49.3538 -49.3526 -49.3522 -49.3510 -49.3506 -49.3494 -49.3492
   -18.2168 -18.1476 -17.8778 -17.8344 -17.5889 -17.5732 -17.5566 -17.4893
   -17.4271 -17.3886 -17.3498 -17.3292 -10.1094 -10.0022  -9.6812  -9.5685
    -9.3463  -9.2643  -9.1886  -9.1049  -9.0252  -8.8492  -8.8420  -8.7618
    -8.6915  -8.5781  -8.3696  -8.3457  -8.2538  -8.2435  -7.9002  -7.8658
    -7.8328  -7.7410  -7.4967  -7.4143  -7.3704  -7.2975  -7.1529  -7.1231
    -6.9592  -6.9012  -6.8765  -6.8068  -6.7089  -6.6774  -6.5135  -6.5088
    -6.3709  -6.3537  -6.1128  -6.0603  -6.0370  -5.9476  -5.9030  -5.8665
    -5.8524  -5.6834  -5.6281  -5.5511  -4.3588  -4.3326  -4.2601  -4.1387
    -4.0949  -4.0696  -4.0398  -3.9506  -1.1572  -0.7160  -0.4943  -0.2882
     0.1512   0.4410   0.5398   0.6095   0.7335   0.8316   0.8771   1.0855
     1.1146   1.1918   1.3255   1.4296

          k = 0.5000 0.0962 0.0000 (109606 PWs)   bands (ev):

   -77.9531 -77.9531 -77.9521 -77.9521 -49.3615 -49.3615 -49.3604 -49.3604
   -49.3539 -49.3538 -49.3526 -49.3524 -49.3507 -49.3504 -49.3495 -49.3493
   -18.2158 -18.1477 -17.8882 -17.8234 -17.5911 -17.5812 -17.5470 -17.4866
   -17.4388 -17.3709 -17.3602 -17.3286 -10.1200  -9.9899  -9.6795  -9.5724
    -9.3454  -9.2641  -9.1811  -9.0877  -9.0362  -8.8656  -8.8312  -8.8021
    -8.6878  -8.5259  -8.3697  -8.3593  -8.3018  -8.2121  -7.9226  -7.8650
    -7.8119  -7.7254  -7.5010  -7.4035  -7.3806  -7.3114  -7.1824  -7.0924
    -6.9554  -6.8823  -6.8672  -6.8010  -6.7204  -6.6874  -6.5639  -6.4598
    -6.3847  -6.3467  -6.1094  -6.0742  -6.0058  -5.9901  -5.8680  -5.8516
    -5.8489  -5.7247  -5.6212  -5.5551  -4.3699  -4.3066  -4.2288  -4.1747
    -4.1251  -4.0371  -4.0364  -3.9576  -1.1692  -0.6967  -0.4984  -0.3139
     0.1458   0.4360   0.5630   0.6721   0.7246   0.7937   0.8470   1.0015
     1.2224   1.3143   1.3260   1.4031

 ------ SPIN DOWN ----------


          k = 0.0000 0.0000 0.0000 (109591 PWs)   bands (ev):

   -74.8766 -74.8766 -74.8756 -74.8756 -46.3354 -46.3354 -46.3338 -46.3338
   -46.3041 -46.3041 -46.3034 -46.3034 -46.2992 -46.2992 -46.2985 -46.2985
   -18.5824 -18.4847 -17.8231 -17.6947 -17.4894 -17.4887 -17.4873 -17.4865
   -17.3469 -17.3468 -17.3461 -17.3452  -9.9947  -9.9945  -9.7068  -9.1869
    -9.0196  -9.0073  -8.9665  -8.9328  -8.8608  -8.8371  -8.7117  -8.7058
    -8.7033  -8.6991  -8.0125  -7.9724  -7.7265  -7.7249  -7.6840  -7.6656
    -7.4202  -7.3965  -7.3127  -7.3104  -7.1978  -7.0681  -6.9277  -6.3806
    -6.3717  -6.3161  -6.3049  -6.1658  -5.8357  -5.8335  -5.7719  -5.7675
    -3.6023  -3.6008  -3.5751  -3.5729  -3.5520  -3.5507  -3.5046  -3.4530
    -3.2466  -3.2451  -3.2253  -3.2213  -2.9067  -2.8996  -2.7926  -2.7908
    -2.5624  -2.5368  -2.5212  -2.4873  -0.2870  -0.0178  -0.0178  -0.0161
     0.1409   0.3484   0.8846   0.8903   1.0544   1.0759   1.5833   1.5850
     1.7429   1.7692   1.9806   2.1599

          k = 0.0000 0.1925 0.0000 (109722 PWs)   bands (ev):

   -74.8766 -74.8766 -74.8756 -74.8756 -46.3353 -46.3353 -46.3338 -46.3338
   -46.3042 -46.3042 -46.3030 -46.3030 -46.2995 -46.2995 -46.2983 -46.2983
   -18.5240 -18.4282 -17.7884 -17.6651 -17.5772 -17.5582 -17.5150 -17.5069
   -17.3695 -17.3636 -17.3467 -17.3436  -9.9779  -9.9670  -9.6563  -9.2254
    -9.1221  -9.1069  -9.0163  -8.8935  -8.8880  -8.7920  -8.7715  -8.7005
    -8.3710  -8.2825  -7.9035  -7.8535  -7.7965  -7.7673  -7.6603  -7.5879
    -7.3932  -7.3586  -7.3258  -7.2804  -7.1011  -6.9924  -6.8796  -6.5180
    -6.4356  -6.4138  -6.3790  -6.2280  -6.2241  -6.0406  -5.9459  -5.8794
    -3.6405  -3.6374  -3.5469  -3.5110  -3.4857  -3.4591  -3.4022  -3.3525
    -3.2842  -3.2701  -3.2574  -3.2435  -2.9087  -2.8651  -2.8123  -2.7498
    -2.6961  -2.6425  -2.5870  -2.5396  -0.0981   0.0529   0.1034   0.4238
     0.5286   0.6514   0.6784   0.7604   1.0236   1.2023   1.4076   1.5263
     1.8264   1.9461   1.9587   2.1068

          k = 0.0000 0.3849 0.0000 (109616 PWs)   bands (ev):

   -74.8766 -74.8766 -74.8756 -74.8756 -46.3352 -46.3352 -46.3340 -46.3339
   -46.3044 -46.3044 -46.3023 -46.3023 -46.3003 -46.3003 -46.2981 -46.2981
   -18.3648 -18.2743 -17.7816 -17.7390 -17.6966 -17.5884 -17.5621 -17.5439
   -17.4346 -17.3973 -17.3710 -17.3626  -9.9611  -9.8830  -9.5000  -9.2847
    -9.2389  -9.1334  -9.0445  -8.8472  -8.8227  -8.6543  -8.5337  -8.3518
    -8.2618  -8.1188  -7.9151  -7.8747  -7.7917  -7.7443  -7.4773  -7.4523
    -7.3777  -7.2423  -7.2376  -7.1208  -7.0513  -7.0243  -6.9562  -6.8913
    -6.8507  -6.6434  -6.5078  -6.4516  -6.3181  -6.1561  -6.0821  -5.9128
    -3.7008  -3.6884  -3.6813  -3.5785  -3.4430  -3.4005  -3.3344  -3.2838
    -3.2737  -3.2341  -3.2233  -3.1749  -2.9176  -2.8698  -2.8047  -2.7884
    -2.7155  -2.6865  -2.6249  -2.6004  -0.5289   0.0415   0.5333   0.6605
     0.7255   0.7478   0.9080   1.0687   1.1343   1.2997   1.3208   1.4581
     1.5370   1.6497   1.6909   1.8406

          k = 0.0000-0.5774 0.0000 (109602 PWs)   bands (ev):

   -74.8766 -74.8766 -74.8756 -74.8756 -46.3351 -46.3351 -46.3340 -46.3340
   -46.3045 -46.3045 -46.3015 -46.3015 -46.3011 -46.3011 -46.2981 -46.2981
   -18.2154 -18.1274 -17.9516 -17.8991 -17.6105 -17.5903 -17.5621 -17.5081
   -17.5051 -17.4492 -17.3905 -17.3720  -9.9701  -9.8462  -9.3674  -9.3150
    -9.2295  -9.1462  -8.9423  -8.6606  -8.6554  -8.5740  -8.5158  -8.4100
    -8.3522  -8.0651  -7.9465  -7.8793  -7.7614  -7.6830  -7.5725  -7.5018
    -7.4803  -7.4026  -7.3459  -7.1574  -7.1269  -6.9627  -6.9139  -6.7541
    -6.7334  -6.5845  -6.5443  -6.5326  -6.3689  -6.2984  -6.0647  -5.8251
    -3.8104  -3.7280  -3.7273  -3.6769  -3.4910  -3.4129  -3.3339  -3.2662
    -3.2432  -3.1935  -3.1846  -3.1375  -2.9479  -2.8843  -2.7633  -2.7480
    -2.7155  -2.6647  -2.5972  -2.5817  -0.8101  -0.1860   0.1944   0.5648
     0.8540   0.8739   0.8938   1.1387   1.1421   1.3842   1.4477   1.4578
     1.5766   1.6295   1.6511   1.6973

          k = 0.1667 0.2887 0.0000 (109615 PWs)   bands (ev):

   -74.8766 -74.8766 -74.8756 -74.8756 -46.3352 -46.3352 -46.3339 -46.3339
   -46.3044 -46.3043 -46.3028 -46.3026 -46.3000 -46.2998 -46.2983 -46.2982
   -18.4136 -18.3228 -17.7257 -17.7027 -17.6774 -17.6088 -17.5678 -17.5553
   -17.4058 -17.3911 -17.3579 -17.3554  -9.9354  -9.8594  -9.5740  -9.2967
    -9.1861  -9.1568  -9.0447  -8.9576  -8.9011  -8.7158  -8.5478  -8.4327
    -8.1701  -8.0549  -7.9731  -7.9330  -7.8170  -7.7629  -7.5449  -7.4270
    -7.3357  -7.3020  -7.2198  -7.1548  -7.0839  -7.0197  -6.9754  -6.8149
    -6.5791  -6.5442  -6.4252  -6.4172  -6.3648  -6.1416  -6.0673  -6.0313
    -3.6581  -3.6221  -3.6175  -3.5971  -3.4307  -3.3881  -3.3596  -3.3478
    -3.2803  -3.2506  -3.2303  -3.2206  -2.9215  -2.8239  -2.8168  -2.7822
    -2.7182  -2.6663  -2.6080  -2.5977  -0.2359  -0.0593   0.3633   0.5326
     0.6062   0.7251   0.8607   0.9929   1.1564   1.2327   1.3012   1.4715
     1.6483   1.7155   1.7923   1.8463

          k = 0.1667 0.4811 0.0000 (109606 PWs)   bands (ev):

   -74.8766 -74.8766 -74.8756 -74.8756 -46.3351 -46.3351 -46.3340 -46.3340
   -46.3045 -46.3044 -46.3020 -46.3018 -46.3008 -46.3006 -46.2981 -46.2981
   -18.2310 -18.1461 -17.8996 -17.8600 -17.6281 -17.6239 -17.6003 -17.5221
   -17.4772 -17.4370 -17.3858 -17.3720  -9.8376  -9.7380  -9.4138  -9.3294
    -9.2398  -9.0711  -9.0360  -8.8586  -8.7681  -8.5887  -8.5236  -8.4566
    -8.3823  -8.2263  -7.9022  -7.8775  -7.7582  -7.7100  -7.5850  -7.4909
    -7.4090  -7.4049  -7.1613  -7.1075  -7.0091  -6.8682  -6.8139  -6.7827
    -6.7187  -6.6279  -6.5256  -6.5017  -6.2993  -6.2627  -6.2114  -5.9704
    -3.7522  -3.7237  -3.6734  -3.6300  -3.4432  -3.4259  -3.4234  -3.3532
    -3.2516  -3.2083  -3.1754  -3.1621  -2.8854  -2.8538  -2.7542  -2.7281
    -2.6605  -2.6465  -2.6028  -2.5937  -0.6126  -0.1216   0.0540   0.3075
     0.4023   0.6836   0.7359   0.8773   1.0624   1.1909   1.2446   1.3398
     1.3726   1.4541   1.6216   1.7829

          k = 0.3333 0.5774 0.0000 (109542 PWs)   bands (ev):

   -74.8766 -74.8766 -74.8756 -74.8756 -46.3351 -46.3351 -46.3341 -46.3340
   -46.3044 -46.3044 -46.3021 -46.3021 -46.3005 -46.3005 -46.2982 -46.2982
   -18.0623 -18.0452 -17.9999 -17.9815 -17.6783 -17.6528 -17.5452 -17.5280
   -17.4830 -17.4544 -17.4028 -17.3845  -9.5541  -9.5286  -9.4610  -9.4468
    -9.1024  -9.0631  -9.0378  -8.8592  -8.8508  -8.8309  -8.5249  -8.4658
    -8.3947  -8.3168  -8.2302  -8.1290  -7.7073  -7.6839  -7.6630  -7.4445
    -7.1550  -7.1123  -7.0725  -7.0317  -6.9320  -6.9204  -6.7015  -6.6784
    -6.6397  -6.6323  -6.5907  -6.5392  -6.3686  -6.2615  -6.2291  -6.1145
    -3.7091  -3.7008  -3.6704  -3.6405  -3.5228  -3.4666  -3.4393  -3.4312
    -3.2346  -3.2310  -3.1757  -3.1626  -2.8386  -2.7656  -2.7615  -2.6364
    -2.6314  -2.6242  -2.5924  -2.5423  -0.4512  -0.3894  -0.1811  -0.0855
     0.3190   0.4948   0.5416   0.5977   0.7736   0.7935   1.0863   1.2525
     1.3239   1.3658   1.5267   1.5426

          k =-0.1667 0.0962 0.0000 (109722 PWs)   bands (ev):

   -74.8766 -74.8766 -74.8756 -74.8756 -46.3353 -46.3353 -46.3338 -46.3338
   -46.3041 -46.3040 -46.3034 -46.3032 -46.2994 -46.2992 -46.2985 -46.2984
   -18.5236 -18.4285 -17.7883 -17.6656 -17.5814 -17.5516 -17.5198 -17.5045
   -17.3713 -17.3618 -17.3471 -17.3430 -10.0183  -9.9223  -9.6557  -9.2364
    -9.1241  -9.0870  -9.0228  -8.9107  -8.8720  -8.8039  -8.7801  -8.6865
    -8.3488  -8.2981  -7.9195  -7.8578  -7.7970  -7.7273  -7.6606  -7.6405
    -7.4087  -7.3196  -7.2762  -7.2727  -7.1843  -6.9915  -6.8183  -6.5582
    -6.4634  -6.3716  -6.3556  -6.2870  -6.2020  -6.0320  -5.9364  -5.8876
    -3.6556  -3.6243  -3.5250  -3.5052  -3.4975  -3.4790  -3.3911  -3.3657
    -3.2934  -3.2736  -3.2472  -3.2370  -2.9073  -2.8782  -2.7880  -2.7605
    -2.6837  -2.6418  -2.5918  -2.5459  -0.1563   0.0919   0.1601   0.4191
     0.5504   0.6083   0.6587   0.7115   1.1052   1.2294   1.3205   1.5450
     1.8036   1.9569   2.0084   2.0996

          k =-0.3333 0.1925 0.0000 (109616 PWs)   bands (ev):

   -74.8766 -74.8766 -74.8756 -74.8756 -46.3352 -46.3352 -46.3340 -46.3339
   -46.3043 -46.3040 -46.3031 -46.3027 -46.2999 -46.2995 -46.2985 -46.2983
   -18.3620 -18.2770 -17.7875 -17.7356 -17.6917 -17.5914 -17.5650 -17.5416
   -17.4358 -17.3898 -17.3774 -17.3612  -9.9878  -9.8525  -9.5057  -9.2642
    -9.2409  -9.1250  -9.0550  -8.8518  -8.8377  -8.6410  -8.5671  -8.3197
    -8.2615  -8.1359  -7.8730  -7.8636  -7.8119  -7.7701  -7.5514  -7.4163
    -7.3141  -7.2841  -7.1814  -7.1503  -7.0619  -7.0381  -6.9879  -6.8956
    -6.7437  -6.6970  -6.5386  -6.3953  -6.3434  -6.1529  -6.0352  -5.9641
    -3.6950  -3.6869  -3.6550  -3.6183  -3.4397  -3.4138  -3.3202  -3.2911
    -3.2633  -3.2452  -3.2201  -3.1886  -2.8977  -2.8514  -2.7918  -2.7632
    -2.7410  -2.6892  -2.6619  -2.5868  -0.5564   0.0718   0.4850   0.6064
     0.6987   0.8702   0.9454   1.1017   1.1407   1.2465   1.3688   1.4365
     1.4983   1.6248   1.7071   1.7664

          k = 0.5000-0.2887 0.0000 (109602 PWs)   bands (ev):

   -74.8766 -74.8766 -74.8756 -74.8756 -46.3351 -46.3351 -46.3340 -46.3340
   -46.3043 -46.3041 -46.3030 -46.3024 -46.3002 -46.2996 -46.2985 -46.2982
   -18.1956 -18.1539 -17.9426 -17.9022 -17.5942 -17.5928 -17.5582 -17.5562
   -17.4723 -17.4453 -17.3977 -17.3704  -9.9791  -9.8423  -9.3329  -9.3138
    -9.2562  -9.1532  -8.8583  -8.7595  -8.6487  -8.6120  -8.4978  -8.4546
    -8.2459  -8.1200  -7.9073  -7.8989  -7.7157  -7.7135  -7.5545  -7.5293
    -7.5181  -7.3473  -7.3003  -7.2715  -7.0961  -7.0306  -6.8114  -6.7387
    -6.7072  -6.6787  -6.5790  -6.4570  -6.3725  -6.2914  -5.9696  -5.9298
    -3.7705  -3.7486  -3.7194  -3.7116  -3.4792  -3.4409  -3.2886  -3.2669
    -3.2382  -3.2333  -3.1765  -3.1590  -2.8989  -2.8610  -2.7945  -2.7383
    -2.7212  -2.6555  -2.6058  -2.5901  -0.8367  -0.1749   0.1633   0.5800
     0.8473   0.9121   0.9533   1.0681   1.1530   1.4109   1.4498   1.4628
     1.5490   1.5863   1.6791   1.6872

          k = 0.3333 0.0000 0.0000 (109615 PWs)   bands (ev):

   -74.8766 -74.8766 -74.8756 -74.8756 -46.3352 -46.3352 -46.3339 -46.3339
   -46.3041 -46.3041 -46.3031 -46.3031 -46.2995 -46.2995 -46.2985 -46.2985
   -18.4126 -18.3235 -17.7244 -17.7147 -17.6607 -17.6173 -17.5710 -17.5493
   -17.4136 -17.3794 -17.3630 -17.3545  -9.9696  -9.8168  -9.5714  -9.3203
    -9.1845  -9.1282  -9.0747  -8.9352  -8.8802  -8.7260  -8.6089  -8.3834
    -8.1783  -8.0579  -7.9987  -7.9236  -7.8037  -7.7168  -7.6378  -7.4522
    -7.2650  -7.2237  -7.2121  -7.1497  -7.1343  -7.0819  -6.9676  -6.7829
    -6.5819  -6.5446  -6.4669  -6.3803  -6.3583  -6.1302  -6.0732  -6.0473
    -3.6605  -3.6368  -3.6049  -3.5889  -3.4323  -3.3861  -3.3827  -3.3415
    -3.2709  -3.2600  -3.2352  -3.2069  -2.9093  -2.8305  -2.8194  -2.7370
    -2.7265  -2.6884  -2.6553  -2.5602  -0.3060   0.0890   0.2283   0.5187
     0.6225   0.7384   0.9613   0.9675   1.0983   1.2209   1.2799   1.5274
     1.6610   1.7269   1.7910   1.9228

          k =-0.3333 0.3849 0.0000 (109606 PWs)   bands (ev):

   -74.8766 -74.8766 -74.8756 -74.8756 -46.3351 -46.3351 -46.3340 -46.3340
   -46.3044 -46.3042 -46.3026 -46.3022 -46.3004 -46.3000 -46.2983 -46.2982
   -18.2248 -18.1539 -17.9011 -17.8568 -17.6319 -17.6172 -17.5993 -17.5342
   -17.4702 -17.4322 -17.3913 -17.3702  -9.8506  -9.7253  -9.4263  -9.3046
    -9.2297  -9.0790  -9.0395  -8.8365  -8.8178  -8.5760  -8.5340  -8.4481
    -8.3832  -8.2171  -7.9022  -7.8809  -7.7529  -7.7109  -7.5912  -7.4681
    -7.4469  -7.3685  -7.2162  -7.1300  -6.9346  -6.8905  -6.7960  -6.7706
    -6.7095  -6.6881  -6.5114  -6.4648  -6.3794  -6.2173  -6.1247  -6.0463
    -3.7368  -3.7126  -3.6958  -3.6381  -3.4550  -3.4302  -3.4035  -3.3555
    -3.2405  -3.2115  -3.1934  -3.1647  -2.8698  -2.8099  -2.7691  -2.7184
    -2.6980  -2.6449  -2.6103  -2.5849  -0.6355  -0.0986   0.0425   0.3219
     0.3650   0.7325   0.7790   0.8852   0.9879   1.1120   1.2947   1.3885
     1.4098   1.4239   1.5558   1.7373

          k = 0.5000 0.0962 0.0000 (109606 PWs)   bands (ev):

   -74.8766 -74.8766 -74.8756 -74.8756 -46.3351 -46.3351 -46.3340 -46.3340
   -46.3043 -46.3042 -46.3028 -46.3025 -46.3001 -46.2998 -46.2984 -46.2983
   -18.2238 -18.1539 -17.9114 -17.8459 -17.6345 -17.6244 -17.5899 -17.5318
   -17.4820 -17.4147 -17.4011 -17.3695  -9.8622  -9.7116  -9.4261  -9.3108
    -9.2254  -9.0731  -9.0369  -8.8349  -8.8038  -8.5912  -8.5376  -8.4962
    -8.3855  -8.1428  -7.9409  -7.8785  -7.7656  -7.7052  -7.5856  -7.4876
    -7.4107  -7.3686  -7.2179  -7.1215  -6.9970  -6.8453  -6.8015  -6.7541
    -6.7203  -6.6625  -6.5687  -6.4582  -6.3008  -6.2552  -6.1223  -6.0637
    -3.7606  -3.6896  -3.6781  -3.6511  -3.4547  -3.4403  -3.3997  -3.3560
    -3.2367  -3.2205  -3.1815  -3.1663  -2.8533  -2.8297  -2.7620  -2.7175
    -2.6956  -2.6600  -2.6075  -2.5781  -0.6439  -0.0779   0.0275   0.2451
     0.4021   0.7374   0.8566   0.9047   0.9838   1.0368   1.2659   1.3125
     1.4849   1.5457   1.6041   1.6650

     highest occupied, lowest unoccupied level (ev):    -5.5208   -4.3996

!    total energy              =   -5464.16041322 Ry
     total all-electron energy =     -5464.160413 Ry
     estimated scf accuracy    <          6.0E-10 Ry

[...]
    -4.1205  -4.0309  -4.0297  -3.9509  -1.1663  -0.6979  -0.4956  -0.3143
     0.1477   0.4376   0.5620   0.6703   0.7193   0.7939   0.8420   1.0026
     1.2209   1.3088   1.3257   1.4045

 ------ SPIN DOWN ----------


          k = 0.0000 0.0000 0.0000 (109591 PWs)   bands (ev):

   -74.8788 -74.8788 -74.8777 -74.8777 -46.3354 -46.3354 -46.3338 -46.3338
   -46.3076 -46.3076 -46.3068 -46.3068 -46.3029 -46.3029 -46.3020 -46.3020
   -18.5911 -18.4964 -17.8213 -17.6938 -17.4964 -17.4955 -17.4931 -17.4909
   -17.3542 -17.3538 -17.3513 -17.3501 -10.0005 -10.0000  -9.7092  -9.1959
    -9.0289  -9.0143  -8.9771  -8.9429  -8.8698  -8.8478  -8.7207  -8.7169
    -8.7026  -8.7000  -8.0258  -7.9850  -7.7356  -7.7305  -7.6935  -7.6758
    -7.4230  -7.4006  -7.3150  -7.3123  -7.1936  -7.0729  -6.9281  -6.3844
    -6.3743  -6.3181  -6.3084  -6.1640  -5.8395  -5.8377  -5.7756  -5.7719
    -3.6076  -3.6061  -3.5845  -3.5823  -3.5577  -3.5563  -3.5044  -3.4536
    -3.2484  -3.2482  -3.2285  -3.2261  -2.9043  -2.8999  -2.7906  -2.7887
    -2.5575  -2.5326  -2.5166  -2.4833  -0.2851  -0.0265  -0.0013   0.0023
     0.1312   0.3467   0.8956   0.8992   1.0544   1.0729   1.5933   1.5947
     1.7454   1.7733   1.9609   2.1466

          k = 0.0000 0.1925 0.0000 (109722 PWs)   bands (ev):

   -74.8788 -74.8788 -74.8777 -74.8777 -46.3353 -46.3353 -46.3339 -46.3339
   -46.3078 -46.3078 -46.3064 -46.3064 -46.3031 -46.3031 -46.3020 -46.3019
   -18.5327 -18.4398 -17.7870 -17.6642 -17.5816 -17.5634 -17.5235 -17.5150
   -17.3741 -17.3702 -17.3527 -17.3484  -9.9850  -9.9734  -9.6591  -9.2351
    -9.1271  -9.1126  -9.0230  -8.9034  -8.9012  -8.8004  -8.7814  -8.7122
    -8.3721  -8.2852  -7.9113  -7.8582  -7.8070  -7.7767  -7.6755  -7.6008
    -7.3954  -7.3619  -7.3290  -7.2845  -7.0968  -6.9969  -6.8811  -6.5207
    -6.4372  -6.4181  -6.3819  -6.2304  -6.2268  -6.0378  -5.9496  -5.8839
    -3.6475  -3.6448  -3.5491  -3.5150  -3.4900  -3.4641  -3.4063  -3.3551
    -3.2877  -3.2734  -3.2609  -3.2483  -2.9081  -2.8618  -2.8094  -2.7485
    -2.6923  -2.6400  -2.5833  -2.5359  -0.0853   0.0693   0.1048   0.4161
     0.5226   0.6492   0.6788   0.7675   1.0279   1.2077   1.4123   1.5309
     1.8282   1.9277   1.9575   2.1119

          k = 0.0000 0.3849 0.0000 (109616 PWs)   bands (ev):

   -74.8788 -74.8788 -74.8777 -74.8777 -46.3352 -46.3352 -46.3340 -46.3340
   -46.3080 -46.3080 -46.3056 -46.3056 -46.3038 -46.3038 -46.3019 -46.3018
   -18.3735 -18.2859 -17.7863 -17.7448 -17.6959 -17.5896 -17.5696 -17.5525
   -17.4372 -17.4021 -17.3759 -17.3687  -9.9708  -9.8923  -9.5038  -9.2914
    -9.2460  -9.1363  -9.0556  -8.8585  -8.8301  -8.6629  -8.5395  -8.3599
    -8.2722  -8.1300  -7.9174  -7.8844  -7.7988  -7.7544  -7.4831  -7.4565
    -7.3803  -7.2485  -7.2403  -7.1249  -7.0620  -7.0382  -6.9561  -6.8945
    -6.8470  -6.6425  -6.5077  -6.4565  -6.3157  -6.1513  -6.0854  -5.9158
    -3.7035  -3.6941  -3.6854  -3.5808  -3.4483  -3.4051  -3.3378  -3.2905
    -3.2795  -3.2384  -3.2256  -3.1776  -2.9168  -2.8665  -2.7993  -2.7857
    -2.7142  -2.6848  -2.6210  -2.5986  -0.5233   0.0483   0.5398   0.6567
     0.7296   0.7548   0.9087   1.0734   1.1295   1.2914   1.3175   1.4559
     1.5342   1.6407   1.6810   1.8364

          k = 0.0000-0.5774 0.0000 (109602 PWs)   bands (ev):

   -74.8788 -74.8788 -74.8777 -74.8777 -46.3352 -46.3352 -46.3340 -46.3340
   -46.3081 -46.3081 -46.3049 -46.3049 -46.3045 -46.3045 -46.3018 -46.3018
   -18.2251 -18.1404 -17.9555 -17.9039 -17.6107 -17.5982 -17.5710 -17.5092
   -17.5072 -17.4506 -17.3971 -17.3781  -9.9808  -9.8577  -9.3726  -9.3203
    -9.2356  -9.1525  -8.9480  -8.6729  -8.6591  -8.5846  -8.5261  -8.4184
    -8.3577  -8.0685  -7.9561  -7.8903  -7.7725  -7.6997  -7.5823  -7.5028
    -7.4894  -7.4060  -7.3468  -7.1578  -7.1252  -6.9639  -6.9150  -6.7654
    -6.7353  -6.5866  -6.5442  -6.5364  -6.3612  -6.2943  -6.0686  -5.8288
    -3.8130  -3.7330  -3.7322  -3.6798  -3.4961  -3.4170  -3.3371  -3.2733
    -3.2494  -3.1979  -3.1865  -3.1404  -2.9460  -2.8829  -2.7615  -2.7464
    -2.7087  -2.6623  -2.5960  -2.5769  -0.8068  -0.1848   0.1960   0.5650
     0.8601   0.8754   0.8860   1.1369   1.1437   1.3798   1.4370   1.4525
     1.5795   1.6267   1.6537   1.6996

          k = 0.1667 0.2887 0.0000 (109615 PWs)   bands (ev):

   -74.8788 -74.8788 -74.8777 -74.8777 -46.3353 -46.3353 -46.3339 -46.3339
   -46.3079 -46.3078 -46.3062 -46.3060 -46.3036 -46.3033 -46.3019 -46.3018
   -18.4220 -18.3339 -17.7251 -17.7081 -17.6827 -17.6093 -17.5765 -17.5636
   -17.4099 -17.3954 -17.3637 -17.3598  -9.9425  -9.8681  -9.5784  -9.3070
    -9.1909  -9.1625  -9.0510  -8.9705  -8.9092  -8.7247  -8.5540  -8.4423
    -8.1802  -8.0651  -7.9764  -7.9389  -7.8243  -7.7709  -7.5506  -7.4309
    -7.3443  -7.3072  -7.2231  -7.1645  -7.0884  -7.0254  -6.9742  -6.8177
    -6.5817  -6.5455  -6.4272  -6.4212  -6.3614  -6.1458  -6.0685  -6.0298
    -3.6599  -3.6282  -3.6212  -3.6017  -3.4342  -3.3920  -3.3643  -3.3521
    -3.2843  -3.2546  -3.2346  -3.2248  -2.9205  -2.8205  -2.8134  -2.7785
    -2.7166  -2.6645  -2.6044  -2.5944  -0.2271  -0.0542   0.3656   0.5337
     0.6094   0.7249   0.8625   0.9874   1.1596   1.2300   1.3039   1.4724
     1.6385   1.7166   1.7895   1.8431

          k = 0.1667 0.4811 0.0000 (109606 PWs)   bands (ev):

   -74.8788 -74.8788 -74.8777 -74.8777 -46.3352 -46.3352 -46.3340 -46.3340
   -46.3080 -46.3080 -46.3054 -46.3052 -46.3043 -46.3041 -46.3018 -46.3018
   -18.2399 -18.1577 -17.9042 -17.8656 -17.6359 -17.6264 -17.6088 -17.5234
   -17.4788 -17.4398 -17.3910 -17.3773  -9.8474  -9.7486  -9.4197  -9.3369
    -9.2459  -9.0747  -9.0468  -8.8702  -8.7726  -8.5968  -8.5355  -8.4590
    -8.3937  -8.2314  -7.9079  -7.8863  -7.7667  -7.7219  -7.5890  -7.4994
    -7.4162  -7.4092  -7.1615  -7.1087  -7.0101  -6.8724  -6.8221  -6.7851
    -6.7246  -6.6262  -6.5252  -6.5020  -6.2993  -6.2613  -6.2145  -5.9735
    -3.7546  -3.7269  -3.6775  -3.6333  -3.4485  -3.4307  -3.4284  -3.3583
    -3.2557  -3.2112  -3.1802  -3.1651  -2.8845  -2.8518  -2.7503  -2.7227
    -2.6593  -2.6440  -2.5998  -2.5898  -0.6105  -0.1200   0.0502   0.3060
     0.4054   0.6849   0.7285   0.8782   1.0563   1.1891   1.2480   1.3384
     1.3708   1.4547   1.6179   1.7801

          k = 0.3333 0.5774 0.0000 (109542 PWs)   bands (ev):

   -74.8788 -74.8788 -74.8777 -74.8777 -46.3351 -46.3351 -46.3341 -46.3341
   -46.3079 -46.3078 -46.3056 -46.3056 -46.3041 -46.3041 -46.3018 -46.3018
   -18.0716 -18.0503 -18.0057 -17.9939 -17.6872 -17.6619 -17.5468 -17.5287
   -17.4839 -17.4575 -17.4082 -17.3879  -9.5607  -9.5376  -9.4719  -9.4560
    -9.1113  -9.0697  -9.0429  -8.8692  -8.8586  -8.8451  -8.5268  -8.4676
    -8.4033  -8.3280  -8.2342  -8.1346  -7.7177  -7.6886  -7.6752  -7.4474
    -7.1660  -7.1176  -7.0772  -7.0307  -6.9329  -6.9245  -6.7061  -6.6693
    -6.6457  -6.6405  -6.5970  -6.5336  -6.3707  -6.2648  -6.2300  -6.1168
    -3.7117  -3.7042  -3.6726  -3.6424  -3.5284  -3.4724  -3.4455  -3.4374
    -3.2362  -3.2347  -3.1806  -3.1649  -2.8384  -2.7623  -2.7580  -2.6301
    -2.6298  -2.6223  -2.5889  -2.5372  -0.4556  -0.3908  -0.1844  -0.0903
     0.3136   0.4972   0.5413   0.5970   0.7772   0.7881   1.0906   1.2460
     1.3256   1.3633   1.5280   1.5418

          k =-0.1667 0.0962 0.0000 (109722 PWs)   bands (ev):

   -74.8788 -74.8788 -74.8777 -74.8777 -46.3353 -46.3353 -46.3339 -46.3339
   -46.3076 -46.3075 -46.3068 -46.3066 -46.3031 -46.3030 -46.3020 -46.3019
   -18.5322 -18.4399 -17.7868 -17.6646 -17.5887 -17.5593 -17.5257 -17.5104
   -17.3775 -17.3669 -17.3512 -17.3493 -10.0238  -9.9295  -9.6590  -9.2466
    -9.1285  -9.0931  -9.0271  -8.9221  -8.8812  -8.8136  -8.7917  -8.6996
    -8.3504  -8.3023  -7.9257  -7.8662  -7.8034  -7.7375  -7.6713  -7.6549
    -7.4143  -7.3250  -7.2782  -7.2761  -7.1821  -6.9955  -6.8188  -6.5590
    -6.4674  -6.3752  -6.3585  -6.2879  -6.2055  -6.0298  -5.9403  -5.8918
    -3.6623  -3.6304  -3.5263  -3.5099  -3.5025  -3.4821  -3.3964  -3.3700
    -3.2959  -3.2775  -3.2521  -3.2401  -2.9055  -2.8766  -2.7850  -2.7587
    -2.6813  -2.6382  -2.5880  -2.5419  -0.1412   0.0941   0.1724   0.4133
     0.5452   0.6112   0.6571   0.7146   1.1072   1.2316   1.3258   1.5522
     1.8039   1.9404   2.0060   2.1038

          k =-0.3333 0.1925 0.0000 (109616 PWs)   bands (ev):

   -74.8788 -74.8788 -74.8777 -74.8777 -46.3352 -46.3352 -46.3340 -46.3340
   -46.3077 -46.3074 -46.3067 -46.3062 -46.3035 -46.3032 -46.3020 -46.3018
   -18.3699 -18.2872 -17.7956 -17.7448 -17.6916 -17.5915 -17.5707 -17.5486
   -17.4400 -17.3941 -17.3823 -17.3657  -9.9948  -9.8622  -9.5106  -9.2716
    -9.2464  -9.1293  -9.0631  -8.8618  -8.8466  -8.6496  -8.5744  -8.3313
    -8.2724  -8.1472  -7.8755  -7.8731  -7.8164  -7.7792  -7.5568  -7.4226
    -7.3163  -7.2850  -7.1852  -7.1528  -7.0777  -7.0466  -6.9943  -6.8994
    -6.7423  -6.6934  -6.5427  -6.3975  -6.3402  -6.1498  -6.0383  -5.9653
    -3.7000  -3.6905  -3.6577  -3.6210  -3.4447  -3.4188  -3.3229  -3.2961
    -3.2687  -3.2483  -3.2243  -3.1928  -2.8954  -2.8490  -2.7887  -2.7601
    -2.7380  -2.6863  -2.6597  -2.5840  -0.5518   0.0745   0.4922   0.6139
     0.6974   0.8737   0.9436   1.1038   1.1397   1.2399   1.3669   1.4353
     1.4890   1.6254   1.7012   1.7658

          k = 0.5000-0.2887 0.0000 (109602 PWs)   bands (ev):

   -74.8788 -74.8788 -74.8777 -74.8777 -46.3352 -46.3352 -46.3340 -46.3340
   -46.3077 -46.3074 -46.3066 -46.3060 -46.3038 -46.3033 -46.3020 -46.3017
   -18.2021 -18.1613 -17.9532 -17.9140 -17.5984 -17.5941 -17.5652 -17.5570
   -17.4751 -17.4485 -17.4033 -17.3747  -9.9873  -9.8531  -9.3389  -9.3182
    -9.2627  -9.1583  -8.8643  -8.7670  -8.6577  -8.6231  -8.5110  -8.4649
    -8.2502  -8.1245  -7.9179  -7.9104  -7.7273  -7.7267  -7.5609  -7.5355
    -7.5211  -7.3505  -7.3024  -7.2693  -7.0971  -7.0331  -6.8239  -6.7516
    -6.7032  -6.6799  -6.5785  -6.4583  -6.3649  -6.2876  -5.9737  -5.9322
    -3.7741  -3.7518  -3.7234  -3.7163  -3.4840  -3.4457  -3.2911  -3.2720
    -3.2443  -3.2361  -3.1804  -3.1632  -2.8956  -2.8586  -2.7933  -2.7347
    -2.7181  -2.6510  -2.6020  -2.5886  -0.8353  -0.1768   0.1658   0.5785
     0.8552   0.9150   0.9449   1.0624   1.1587   1.4044   1.4469   1.4580
     1.5495   1.5854   1.6829   1.6874

          k = 0.3333 0.0000 0.0000 (109615 PWs)   bands (ev):

   -74.8788 -74.8788 -74.8777 -74.8777 -46.3353 -46.3353 -46.3339 -46.3339
   -46.3074 -46.3074 -46.3067 -46.3067 -46.3032 -46.3032 -46.3019 -46.3019
   -18.4205 -18.3340 -17.7235 -17.7230 -17.6714 -17.6164 -17.5768 -17.5555
   -17.4186 -17.3841 -17.3686 -17.3578  -9.9753  -9.8256  -9.5770  -9.3316
    -9.1877  -9.1349  -9.0789  -8.9451  -8.8883  -8.7341  -8.6174  -8.3970
    -8.1878  -8.0690  -8.0014  -7.9307  -7.8102  -7.7261  -7.6428  -7.4572
    -7.2730  -7.2329  -7.2152  -7.1510  -7.1393  -7.0893  -6.9727  -6.7807
    -6.5843  -6.5466  -6.4679  -6.3854  -6.3555  -6.1330  -6.0779  -6.0423
    -3.6622  -3.6419  -3.6070  -3.5944  -3.4364  -3.3904  -3.3870  -3.3464
    -3.2761  -3.2636  -3.2393  -3.2109  -2.9068  -2.8288  -2.8173  -2.7322
    -2.7251  -2.6865  -2.6529  -2.5554  -0.2969   0.0927   0.2337   0.5171
     0.6249   0.7388   0.9625   0.9650   1.0951   1.2302   1.2757   1.5245
     1.6484   1.7295   1.7895   1.9231

          k =-0.3333 0.3849 0.0000 (109606 PWs)   bands (ev):

   -74.8788 -74.8788 -74.8777 -74.8777 -46.3352 -46.3352 -46.3340 -46.3340
   -46.3078 -46.3077 -46.3061 -46.3057 -46.3040 -46.3036 -46.3019 -46.3017
   -18.2324 -18.1632 -17.9093 -17.8657 -17.6383 -17.6190 -17.6069 -17.5347
   -17.4735 -17.4348 -17.3969 -17.3741  -9.8584  -9.7357  -9.4328  -9.3132
    -9.2343  -9.0843  -9.0487  -8.8458  -8.8266  -8.5858  -8.5450  -8.4513
    -8.3931  -8.2230  -7.9105  -7.8867  -7.7621  -7.7217  -7.5947  -7.4751
    -7.4553  -7.3713  -7.2182  -7.1298  -6.9362  -6.8954  -6.8079  -6.7757
    -6.7131  -6.6851  -6.5136  -6.4644  -6.3760  -6.2181  -6.1278  -6.0473
    -3.7392  -3.7154  -3.6998  -3.6423  -3.4604  -3.4348  -3.4082  -3.3599
    -3.2431  -3.2158  -3.1969  -3.1693  -2.8673  -2.8077  -2.7666  -2.7159
    -2.6931  -2.6417  -2.6068  -2.5825  -0.6350  -0.0999   0.0402   0.3213
     0.3677   0.7330   0.7776   0.8825   0.9871   1.1076   1.2928   1.3858
     1.4096   1.4267   1.5552   1.7322

          k = 0.5000 0.0962 0.0000 (109606 PWs)   bands (ev):

   -74.8788 -74.8788 -74.8777 -74.8777 -46.3352 -46.3352 -46.3340 -46.3340
   -46.3077 -46.3075 -46.3064 -46.3061 -46.3038 -46.3035 -46.3019 -46.3018
   -18.2305 -18.1624 -17.9207 -17.8576 -17.6405 -17.6263 -17.5955 -17.5325
   -17.4852 -17.4185 -17.4062 -17.3729  -9.8694  -9.7221  -9.4339  -9.3196
    -9.2300  -9.0794  -9.0430  -8.8445  -8.8095  -8.5991  -8.5482  -8.5039
    -8.3952  -8.1514  -7.9480  -7.8860  -7.7744  -7.7162  -7.5895  -7.4959
    -7.4189  -7.3706  -7.2199  -7.1220  -7.0000  -6.8548  -6.8060  -6.7595
    -6.7179  -6.6646  -6.5711  -6.4554  -6.2991  -6.2569  -6.1250  -6.0642
    -3.7638  -3.6929  -3.6816  -3.6544  -3.4599  -3.4455  -3.4038  -3.3609
    -3.2409  -3.2239  -3.1857  -3.1697  -2.8514  -2.8269  -2.7585  -2.7156
    -2.6921  -2.6569  -2.6040  -2.5745  -0.6430  -0.0800   0.0276   0.2431
     0.4033   0.7388   0.8579   0.9015   0.9771   1.0340   1.2696   1.3118
     1.4846   1.5422   1.6012   1.6662

     highest occupied, lowest unoccupied level (ev):    -5.5234   -4.3946

!    total energy              =   -5464.16064772 Ry
     total all-electron energy =     -5464.160648 Ry
     estimated scf accuracy    <          1.8E-12 Ry

     The total energy is the sum of the following terms:
     one-electron contribution =   -9565.46367529 Ry
     hartree contribution      =    4757.10607215 Ry
     xc contribution           =    -163.58482456 Ry
     ewald contribution        =    3977.69674696 Ry
     one-center paw contrib.   =   -4469.91496699 Ry

     total magnetization       =    12.00 Bohr mag/cell
     absolute magnetization    =    14.53 Bohr mag/cell

     convergence has been achieved in  13 iterations

     negative rho (up, down):  3.075E-02 3.492E-02

     Forces acting on atoms (cartesian axes, Ry/au):

     atom    1 type  1   force =    -0.00004892   -0.00025938   -0.00046084
     atom    2 type  1   force =    -0.00004892    0.00025938   -0.00046084
     atom    3 type  2   force =     0.00043161    0.00000000    0.00005371
     atom    4 type  2   force =    -0.00071759   -0.00082065    0.00073065
     atom    5 type  2   force =    -0.00071759    0.00082065    0.00073065
     atom    6 type  2   force =    -0.00074398    0.00000000   -0.00082629
     atom    7 type  2   force =     0.00032584    0.00076568   -0.00080103
     atom    8 type  2   force =     0.00032584   -0.00076568   -0.00080103
     atom    9 type  1   force =     0.00004999   -0.00025888    0.00045995
     atom   10 type  1   force =     0.00004999    0.00025888    0.00045995
     atom   11 type  2   force =     0.00074542    0.00000000    0.00082705
     atom   12 type  2   force =    -0.00032721   -0.00076533    0.00080218
     atom   13 type  2   force =    -0.00032721    0.00076533    0.00080218
     atom   14 type  2   force =    -0.00043226    0.00000000   -0.00005147
     atom   15 type  2   force =     0.00071751    0.00082013   -0.00073241
     atom   16 type  2   force =     0.00071751   -0.00082013   -0.00073241

     Total force =     0.004027     Total SCF correction =     0.000003


     Computing stress (Cartesian axis) and pressure


     negative rho (up, down):  3.075E-02 3.492E-02
          total   stress  (Ry/bohr**3)                   (kbar)     P=        1.44
   0.00000499   0.00000000  -0.00000136            0.73        0.00       -0.20
   0.00000000   0.00000458   0.00000000            0.00        0.67        0.00
  -0.00000136   0.00000000   0.00001973           -0.20        0.00        2.90

     Energy error            =      9.0E-05 Ry
     Gradient error          =      8.3E-04 Ry/Bohr

     bfgs converged in   5 scf cycles and   4 bfgs steps
     (criteria: energy <  1.0E-04 Ry, force <  1.0E-03 Ry/Bohr)

     End of BFGS Geometry Optimization

     Final energy             =   -5464.1606477248 Ry

     File ./ht_fm_qe/ht_fm_qe.bfgs deleted, as requested
Begin final coordinates

ATOMIC_POSITIONS (angstrom)
Cr               5.7298362341        1.9861243063       15.6147138319
Cr               2.2913452241        3.9695168237       15.6147142919
I                6.7180624651       -0.0000131800       14.0639793829
I                3.5161675636        2.1231880235       14.0705153987
I                0.0776993736        3.8324662865       14.0705153987
I                4.7442849647       -0.0000114000       17.1575608004
I                4.5050705271        3.8319848537       17.1572881094
I                1.0665992671        2.1236676863       17.1572881094
Cr               3.4394612337        1.9861055972        9.0312649177
Cr               0.0009702237        3.9695355328        9.0312653777
I                4.4250327580       -0.0000131800        7.4884249651
I                1.2257276715        2.1236674184        7.4887011739
I               -2.2127405185        3.8319868916        7.4887011739
I                2.4512497783       -0.0000114000       10.5820042943
I                2.2146346368        3.8324628449       10.5754592220
I               -1.2238366232        2.1231896951       10.5754592220
End final coordinates



     Writing all to output data dir ./ht_fm_qe/ht_fm_qe.save/ :
     XML data file, charge density, pseudopotentials, collected wavefunctions

     init_run     :     25.12s CPU     25.66s WALL (       1 calls)
     electrons    :   3266.58s CPU   3395.50s WALL (       5 calls)
     update_pot   :      4.10s CPU      4.15s WALL (       4 calls)
     forces       :     25.82s CPU     26.82s WALL (       5 calls)
     stress       :    427.08s CPU    433.05s WALL (       5 calls)

     Called by init_run:
     wfcinit      :     22.53s CPU     22.91s WALL (       1 calls)
     potinit      :      1.05s CPU      1.10s WALL (       1 calls)
     hinit0       :      0.89s CPU      0.93s WALL (       1 calls)

     Called by electrons:
     c_bands      :   2661.43s CPU   2768.23s WALL (      68 calls)
     sum_band     :    510.46s CPU    525.90s WALL (      68 calls)
     v_of_rho     :     14.58s CPU     14.94s WALL (      69 calls)
     newd         :     22.16s CPU     25.57s WALL (      69 calls)
     PAW_pot      :     58.85s CPU     59.51s WALL (      73 calls)
     mix_rho      :      6.15s CPU      6.38s WALL (      68 calls)

     Called by c_bands:
     init_us_2    :     43.06s CPU     43.76s WALL (    3926 calls)
     init_us_2:cp :     43.02s CPU     43.74s WALL (    3926 calls)
     cegterg      :   2566.61s CPU   2671.45s WALL (    1768 calls)

     Called by *egterg:
     cdiaghg      :    204.53s CPU    206.13s WALL (    6701 calls)
     h_psi        :   1727.56s CPU   1781.52s WALL (    6935 calls)
     s_psi        :    106.37s CPU    107.75s WALL (    6935 calls)
     g_psi        :     15.34s CPU     15.61s WALL (    5141 calls)

     Called by h_psi:
     h_psi:calbec :    124.72s CPU    127.79s WALL (    6935 calls)
     vloc_psi     :   1474.21s CPU   1502.54s WALL (    6935 calls)
     add_vuspsi   :    104.00s CPU    105.44s WALL (    6935 calls)

     General routines
     calbec       :    191.20s CPU    195.48s WALL (    9457 calls)
     fft          :      9.49s CPU     10.02s WALL (    1927 calls)
     ffts         :      0.93s CPU      0.99s WALL (     274 calls)
     fftw         :   1309.37s CPU   1335.13s WALL ( 1070454 calls)
     interpolate  :      1.47s CPU      1.68s WALL (     138 calls)

     Parallel routines

     PWSCF        :      1h 2m CPU      1h 5m WALL


   This run was terminated on:  15:18: 0  17Oct2024            

=------------------------------------------------------------------------------=
   JOB DONE.
=------------------------------------------------------------------------------=
