
     Program PWSCF v.7.3 starts on 17Oct2024 at 15:18: 1 

     This program is part of the open-source Quantum ESPRESSO suite
     for quantum simulation of materials; please cite
         "P. Giannozzi et al., J. Phys.:Condens. Matter 21 395502 (2009);
         "P. Giannozzi et al., J. Phys.:Condens. Matter 29 465901 (2017);
         "P. Giannozzi et al., J. Chem. Phys. 152 154105 (2020);
          URL http://www.quantum-espresso.org", 
     in publications or presentations arising from this work. More details at
     http://www.quantum-espresso.org/quote

     Parallel version (MPI), running on    24 processors

     MPI processes distributed on     1 nodes
     50878 MiB available memory on the printing compute node when the environment starts

     Reading input from lt_afm_qe.opt.in
Warning: card &CELL ignored
Warning: card / ignored

     Current dimensions of program PWSCF are:
     Max number of different atomic species (ntypx) = 10
     Max number of k-points (npk) =  40000
     Max angular momentum in pseudopotentials (lmaxx) =  4
read_pp_mesh; mismatch in mesh size, discarding the one in header
read_pp_mesh; mismatch in mesh size, discarding the one in header
read_pp_mesh; mismatch in mesh size, discarding the one in header
     file Cr.GGA-PBE-paw.UPF: wavefunction(s)  3S 4S 3P 4P 3D 4D renormalized
     file I.GGA-PBE-paw.UPF: wavefunction(s)  6S 6P renormalized
     file Cr.GGA-PBE-paw.UPF: wavefunction(s)  3S 4S 3P 4P 3D 4D renormalized

     IMPORTANT: XC functional enforced from input :
     Exchange-correlation= OPTB86B
                           (   1   4  24   1   0   0   0)
     Any further DFT definition will be discarded
     Please, verify this is what you really want


     R & G space division:  proc/nbgrp/npool/nimage =      24
     Subspace diagonalization in iterative solution of the eigenvalue problem:
     a serial algorithm will be used


     Parallelization info
     --------------------
     sticks:   dense  smooth     PW     G-vecs:    dense   smooth      PW
     Min         179     174     46                38065    36532    5046
     Max         180     175     47                38082    36557    5059
     Sum        4303    4189   1123               913669   876961  121297

     Using Slab Decomposition



     bravais-lattice index     =            0
     lattice parameter (alat)  =      12.9956  a.u.
     unit-cell volume          =    7602.9282 (a.u.)^3
     number of atoms/cell      =           16
     number of atomic types    =            3
     number of electrons       =       140.00 (up:  70.00, down:  70.00)
     number of Kohn-Sham states=          100
     kinetic-energy cutoff     =      90.0000  Ry
     charge density cutoff     =     370.0000  Ry
     scf convergence threshold =      1.0E-09
     mixing beta               =       0.5000
     number of iterations used =            8  plain     mixing
     energy convergence thresh.=      1.0E-04
     force convergence thresh. =      1.0E-03
     Exchange-correlation= OPTB86B
                           (   1   4  24   1   0   0   0)
     nstep                     =           50


     celldm(1)=  12.995613  celldm(2)=   0.000000  celldm(3)=   0.000000
     celldm(4)=   0.000000  celldm(5)=   0.000000  celldm(6)=   0.000000

     crystal axes: (cart. coord. in units of alat)
               a(1) = (   1.000000  -0.000000   0.000000 )  
               a(2) = (  -0.500000   0.866025   0.000000 )  
               a(3) = (  -0.000000   0.000000   4.000000 )  

     reciprocal axes: (cart. coord. in units 2 pi/alat)
               b(1) = (  1.000000  0.577350  0.000000 )  
               b(2) = (  0.000000  1.154701  0.000000 )  
               b(3) = ( -0.000000 -0.000000  0.250000 )  


     PseudoPot. # 1 for Cr read from file:
     ../Cr.GGA-PBE-paw.UPF
     MD5 check sum: 389087661106aa6caf57455f2e439c97
     Pseudo is Projector augmented-wave + core cor, Zval = 14.0
     Generated using ATOMPAW code
     Shape of augmentation charge: SINC**2
     Using radial grid of 2342 points,  6 beta functions with: 
                l(1) =   0
                l(2) =   0
                l(3) =   1
                l(4) =   1
                l(5) =   2
                l(6) =   2
     Q(r) pseudized with 0 coefficients 


     PseudoPot. # 2 for I  read from file:
     ../I.GGA-PBE-paw.UPF
     MD5 check sum: 736bb4145856fa7ed29d0984862794a4
     Pseudo is Projector augmented-wave + core cor, Zval =  7.0
     Generated using ATOMPAW code
     Shape of augmentation charge: SINC**2
     Using radial grid of 2342 points,  4 beta functions with: 
                l(1) =   0
                l(2) =   0
                l(3) =   1
                l(4) =   1
     Q(r) pseudized with 0 coefficients 


     PseudoPot. # 3 for Cr read from file:
     ../Cr.GGA-PBE-paw.UPF
     MD5 check sum: 389087661106aa6caf57455f2e439c97
     Pseudo is Projector augmented-wave + core cor, Zval = 14.0
     Generated using ATOMPAW code
     Shape of augmentation charge: SINC**2
     Using radial grid of 2342 points,  6 beta functions with: 
                l(1) =   0
                l(2) =   0
                l(3) =   1
                l(4) =   1
                l(5) =   2
                l(6) =   2
     Q(r) pseudized with 0 coefficients 


     atomic species   valence    mass     pseudopotential
     Cr               14.00    51.99610     Cr( 1.00)
     I                 7.00   126.90447     I ( 1.00)
     Cr1              14.00    51.99610     Cr( 1.00)

     Starting magnetic structure 
     atomic species   magnetization
     Cr              0.214
     I               0.000
     Cr1            -0.214

     No symmetry found



   Cartesian axes

     site n.     atom                  positions (alat units)
         1        Cr     tau(   1) = (   0.3333318   0.5773512   2.4785854  )
         2        Cr     tau(   2) = (  -0.1666682   0.8660264   2.4785855  )
         3        I      tau(   3) = (   0.4764342   0.2886742   2.2530180  )
         4        I      tau(   4) = (   0.0117790   0.5977595   2.2530180  )
         5        I      tau(   5) = (  -0.4882177   0.8456200   2.2530180  )
         6        I      tau(   6) = (   0.1902295   0.2886744   2.7041526  )
         7        I      tau(   7) = (   0.1548816   0.8456199   2.7041526  )
         8        I      tau(   8) = (  -0.3451156   0.5977594   2.7041526  )
         9        Cr1    tau(   9) = (   0.8333318   0.2886761   1.5214148  )
        10        Cr1    tau(  10) = (   0.3333318   0.5773512   1.5214148  )
        11        I      tau(  11) = (   0.9764342  -0.0000010   1.2958474  )
        12        I      tau(  12) = (   0.5117790   0.3090843   1.2958474  )
        13        I      tau(  13) = (   0.0117823   0.5569449   1.2958474  )
        14        I      tau(  14) = (   0.6902295  -0.0000007   1.7469820  )
        15        I      tau(  15) = (   0.6548816   0.5569448   1.7469820  )
        16        I      tau(  16) = (   0.1548844   0.3090842   1.7469820  )

     number of k points=    20
                       cart. coord. in units 2pi/alat
        k(    1) = (   0.0000000   0.0000000   0.0000000), wk =   0.0277778
        k(    2) = (   0.0000000   0.1924501   0.0000000), wk =   0.0555556
        k(    3) = (   0.0000000   0.3849002   0.0000000), wk =   0.0555556
        k(    4) = (   0.0000000  -0.5773503   0.0000000), wk =   0.0277778
        k(    5) = (   0.1666667   0.2886751   0.0000000), wk =   0.0555556
        k(    6) = (   0.1666667   0.4811252   0.0000000), wk =   0.0555556
        k(    7) = (   0.3333333   0.5773503   0.0000000), wk =   0.0555556
        k(    8) = (  -0.1666667   0.0962250   0.0000000), wk =   0.0555556
        k(    9) = (   0.1666667   0.0962250   0.0000000), wk =   0.0555556
        k(   10) = (  -0.3333333   0.1924501   0.0000000), wk =   0.0555556
        k(   11) = (   0.3333333   0.1924501   0.0000000), wk =   0.0555556
        k(   12) = (   0.5000000  -0.2886751   0.0000000), wk =   0.0277778
        k(   13) = (  -0.5000000  -0.2886751   0.0000000), wk =   0.0277778
        k(   14) = (  -0.1666667   0.2886751   0.0000000), wk =   0.0555556
        k(   15) = (   0.3333333   0.0000000   0.0000000), wk =   0.0555556
        k(   16) = (  -0.1666667   0.4811252   0.0000000), wk =   0.0555556
        k(   17) = (  -0.3333333   0.3849002   0.0000000), wk =   0.0555556
        k(   18) = (   0.5000000   0.0962250   0.0000000), wk =   0.0555556
        k(   19) = (  -0.3333333  -0.3849002   0.0000000), wk =   0.0555556
        k(   20) = (   0.5000000  -0.0962250   0.0000000), wk =   0.0555556

     Dense  grid:   913669 G-vectors     FFT dimensions: (  80,  80, 320)

     Smooth grid:   876961 G-vectors     FFT dimensions: (  80,  80, 320)

     Estimated max dynamical RAM per process >     538.19 MB

     Estimated total dynamical RAM >      12.61 GB
 ----2D----2D----2D----2D----2D----2D----2D----2D----2D----2D----2D----2D
  The code is running with the 2D cutoff
  Please refer to:
  Sohier, T., Calandra, M., & Mauri, F. (2017), 
  Density functional perturbation theory for gated two-dimensional heterostructures:
  Theoretical developments and application to flexural phonons in graphene.
  Physical Review B, 96(7), 75448. https://doi.org/10.1103/PhysRevB.96.075448
 ----2D----2D----2D----2D----2D----2D----2D----2D----2D----2D----2D----2D
     Generating pointlists ...
     new r_m :   0.1622 (alat units)  2.1084 (a.u.) for type    1
     new r_m :   0.1622 (alat units)  2.1084 (a.u.) for type    2
     new r_m :   0.1622 (alat units)  2.1084 (a.u.) for type    3
     Cannot read rho : file not found

     Initial potential from superposition of free atoms

     starting charge     139.9932, renormalised to     140.0000

     negative rho (up, down):  2.626E-02 2.626E-02
     Starting wfcs are  168 atomic wfcs
     Checking if some PAW data can be deallocated... 

     total cpu time spent up to now is       38.1 secs

     Self-consistent Calculation

     iteration #  1     ecut=    90.00 Ry     beta= 0.50
     Davidson diagonalization with overlap
     ethr =  1.00E-05,  avg # of iterations =  8.8

     negative rho (up, down):  3.237E-02 3.237E-02

     total cpu time spent up to now is      280.2 secs

     total energy              =   -5461.95563748 Ry
     estimated scf accuracy    <       3.49442880 Ry

     total magnetization       =     0.00 Bohr mag/cell
     absolute magnetization    =    12.58 Bohr mag/cell

     iteration #  2     ecut=    90.00 Ry     beta= 0.50
     Davidson diagonalization with overlap
     ethr =  2.50E-03,  avg # of iterations =  5.0

     negative rho (up, down):  2.990E-02 2.990E-02

     total cpu time spent up to now is      383.7 secs

     total energy              =   -5456.97843301 Ry
     estimated scf accuracy    <      80.33901331 Ry

     total magnetization       =    -0.00 Bohr mag/cell
     absolute magnetization    =     2.34 Bohr mag/cell

     iteration #  3     ecut=    90.00 Ry     beta= 0.50
     Davidson diagonalization with overlap
     ethr =  2.50E-03,  avg # of iterations =  4.0

     negative rho (up, down):  3.155E-02 3.155E-02

     total cpu time spent up to now is      468.9 secs

     total energy              =   -5464.11222786 Ry
     estimated scf accuracy    <       0.86637836 Ry

     total magnetization       =    -0.00 Bohr mag/cell
     absolute magnetization    =    13.17 Bohr mag/cell

     iteration #  4     ecut=    90.00 Ry     beta= 0.50
     Davidson diagonalization with overlap
     ethr =  6.19E-04,  avg # of iterations =  2.0

     negative rho (up, down):  3.248E-02 3.248E-02

     total cpu time spent up to now is      529.6 secs

     total energy              =   -5464.13156886 Ry
     estimated scf accuracy    <       0.20095139 Ry

     total magnetization       =     0.00 Bohr mag/cell
     absolute magnetization    =    13.48 Bohr mag/cell

     iteration #  5     ecut=    90.00 Ry     beta= 0.50
     Davidson diagonalization with overlap
     ethr =  1.44E-04,  avg # of iterations =  2.1

     negative rho (up, down):  3.263E-02 3.263E-02

     total cpu time spent up to now is      592.2 secs

     total energy              =   -5464.14715615 Ry
     estimated scf accuracy    <       0.02927092 Ry

     total magnetization       =    -0.00 Bohr mag/cell
     absolute magnetization    =    13.78 Bohr mag/cell

     iteration #  6     ecut=    90.00 Ry     beta= 0.50
     Davidson diagonalization with overlap
     ethr =  2.09E-05,  avg # of iterations =  7.0

     negative rho (up, down):  3.267E-02 3.267E-02

     total cpu time spent up to now is      685.7 secs

     total energy              =   -5464.15709745 Ry
     estimated scf accuracy    <       0.01478930 Ry

     total magnetization       =     0.00 Bohr mag/cell
     absolute magnetization    =    13.92 Bohr mag/cell

     iteration #  7     ecut=    90.00 Ry     beta= 0.50
     Davidson diagonalization with overlap
     ethr =  1.06E-05,  avg # of iterations =  3.0

     negative rho (up, down):  3.285E-02 3.285E-02

     total cpu time spent up to now is      754.0 secs

     total energy              =   -5464.15992748 Ry
     estimated scf accuracy    <       0.00259950 Ry

     total magnetization       =    -0.00 Bohr mag/cell
     absolute magnetization    =    14.37 Bohr mag/cell

     iteration #  8     ecut=    90.00 Ry     beta= 0.50
     Davidson diagonalization with overlap
     ethr =  1.86E-06,  avg # of iterations =  4.3

     negative rho (up, down):  3.287E-02 3.286E-02

     total cpu time spent up to now is      837.8 secs

     total energy              =   -5464.16017807 Ry
     estimated scf accuracy    <       0.00096062 Ry

     total magnetization       =    -0.00 Bohr mag/cell
     absolute magnetization    =    14.43 Bohr mag/cell

     iteration #  9     ecut=    90.00 Ry     beta= 0.50
     Davidson diagonalization with overlap
     ethr =  6.86E-07,  avg # of iterations =  1.9

     negative rho (up, down):  3.284E-02 3.283E-02

     total cpu time spent up to now is      898.7 secs

     total energy              =   -5464.16029029 Ry
     estimated scf accuracy    <       0.00021021 Ry

     total magnetization       =    -0.00 Bohr mag/cell
     absolute magnetization    =    14.44 Bohr mag/cell

     iteration # 10     ecut=    90.00 Ry     beta= 0.50
     Davidson diagonalization with overlap
     ethr =  1.50E-07,  avg # of iterations =  3.9

     negative rho (up, down):  3.281E-02 3.281E-02

     total cpu time spent up to now is      981.6 secs

     total energy              =   -5464.16030713 Ry
     estimated scf accuracy    <       0.00021586 Ry

     total magnetization       =     0.00 Bohr mag/cell
     absolute magnetization    =    14.48 Bohr mag/cell

     iteration # 11     ecut=    90.00 Ry     beta= 0.50
     Davidson diagonalization with overlap
     ethr =  1.50E-07,  avg # of iterations =  1.1

     negative rho (up, down):  3.280E-02 3.279E-02

     total cpu time spent up to now is     1039.5 secs

     total energy              =   -5464.16032365 Ry
     estimated scf accuracy    <       0.00002270 Ry

     total magnetization       =     0.00 Bohr mag/cell
     absolute magnetization    =    14.49 Bohr mag/cell

     iteration # 12     ecut=    90.00 Ry     beta= 0.50
     Davidson diagonalization with overlap
     ethr =  1.62E-08,  avg # of iterations =  4.0

     negative rho (up, down):  3.277E-02 3.276E-02

     total cpu time spent up to now is     1116.8 secs

     total energy              =   -5464.16033247 Ry
     estimated scf accuracy    <       0.00001394 Ry

     total magnetization       =    -0.00 Bohr mag/cell
     absolute magnetization    =    14.51 Bohr mag/cell

     iteration # 13     ecut=    90.00 Ry     beta= 0.50
     Davidson diagonalization with overlap
     ethr =  9.96E-09,  avg # of iterations =  1.0

     negative rho (up, down):  3.276E-02 3.276E-02

     total cpu time spent up to now is     1175.1 secs

     total energy              =   -5464.16033479 Ry
     estimated scf accuracy    <       0.00000058 Ry

     total magnetization       =    -0.00 Bohr mag/cell
     absolute magnetization    =    14.52 Bohr mag/cell

     iteration # 14     ecut=    90.00 Ry     beta= 0.50
     Davidson diagonalization with overlap
     ethr =  4.17E-10,  avg # of iterations =  4.0

     negative rho (up, down):  3.275E-02 3.275E-02

     total cpu time spent up to now is     1274.5 secs

     total energy              =   -5464.16033515 Ry
     estimated scf accuracy    <       0.00000180 Ry

     total magnetization       =    -0.00 Bohr mag/cell
     absolute magnetization    =    14.52 Bohr mag/cell

     iteration # 15     ecut=    90.00 Ry     beta= 0.50
     Davidson diagonalization with overlap
     ethr =  4.17E-10,  avg # of iterations =  2.0

     negative rho (up, down):  3.275E-02 3.275E-02

     total cpu time spent up to now is     1341.2 secs

     total energy              =   -5464.16033547 Ry
     estimated scf accuracy    <       0.00000020 Ry

     total magnetization       =     0.00 Bohr mag/cell
     absolute magnetization    =    14.53 Bohr mag/cell

     iteration # 16     ecut=    90.00 Ry     beta= 0.50
     Davidson diagonalization with overlap
     ethr =  1.43E-10,  avg # of iterations =  2.0

     negative rho (up, down):  3.275E-02 3.274E-02

     total cpu time spent up to now is     1402.9 secs

     total energy              =   -5464.16033548 Ry
     estimated scf accuracy    <       0.00000022 Ry

     total magnetization       =     0.00 Bohr mag/cell
     absolute magnetization    =    14.53 Bohr mag/cell

     iteration # 17     ecut=    90.00 Ry     beta= 0.50
     Davidson diagonalization with overlap
     ethr =  1.43E-10,  avg # of iterations =  1.1

     negative rho (up, down):  3.275E-02 3.274E-02

     total cpu time spent up to now is     1461.1 secs

     total energy              =   -5464.16033551 Ry
     estimated scf accuracy    <       0.00000003 Ry

     total magnetization       =    -0.00 Bohr mag/cell
     absolute magnetization    =    14.53 Bohr mag/cell

     iteration # 18     ecut=    90.00 Ry     beta= 0.50
     Davidson diagonalization with overlap
     ethr =  2.17E-11,  avg # of iterations =  3.0

     negative rho (up, down):  3.275E-02 3.274E-02

     total cpu time spent up to now is     1530.3 secs

     total energy              =   -5464.16033551 Ry
     estimated scf accuracy    <       0.00000005 Ry

     total magnetization       =    -0.00 Bohr mag/cell
     absolute magnetization    =    14.53 Bohr mag/cell

     iteration # 19     ecut=    90.00 Ry     beta= 0.50
     Davidson diagonalization with overlap
     ethr =  2.17E-11,  avg # of iterations =  2.0

     negative rho (up, down):  3.275E-02 3.274E-02

     Magnetic moment per site  (integrated on atomic sphere of radius R)
     atom   1 (R=0.162)  charge= 12.4160  magn=  2.9497
     atom   2 (R=0.162)  charge= 12.4171  magn=  2.9502
     atom   3 (R=0.162)  charge=  4.0414  magn= -0.0565
     atom   4 (R=0.162)  charge=  4.0414  magn= -0.0565
     atom   5 (R=0.162)  charge=  4.0414  magn= -0.0565
     atom   6 (R=0.162)  charge=  4.0452  magn= -0.0583
     atom   7 (R=0.162)  charge=  4.0452  magn= -0.0583
     atom   8 (R=0.162)  charge=  4.0452  magn= -0.0583
     atom   9 (R=0.162)  charge= 12.4171  magn= -2.9503
     atom  10 (R=0.162)  charge= 12.4161  magn= -2.9497
     atom  11 (R=0.162)  charge=  4.0451  magn=  0.0583
     atom  12 (R=0.162)  charge=  4.0451  magn=  0.0583
     atom  13 (R=0.162)  charge=  4.0451  magn=  0.0583
     atom  14 (R=0.162)  charge=  4.0414  magn=  0.0565
     atom  15 (R=0.162)  charge=  4.0414  magn=  0.0565
     atom  16 (R=0.162)  charge=  4.0414  magn=  0.0565

     total cpu time spent up to now is     1591.9 secs

     End of self-consistent calculation

 ------ SPIN UP ------------


          k = 0.0000 0.0000 0.0000 (109591 PWs)   bands (ev):

   -77.9609 -77.9447 -74.8882 -74.8717 -49.3690 -49.3599 -49.3599 -49.3539
   -49.3432 -49.3432 -46.3479 -46.3304 -46.3127 -46.3127 -46.2965 -46.2965
   -18.5834 -18.4876 -17.8055 -17.6713 -17.4901 -17.4901 -17.4465 -17.4465
   -17.3465 -17.3465 -17.3043 -17.3043 -10.3035  -9.9788  -9.8534  -9.2979
    -9.1741  -9.1741  -9.1062  -9.1062  -8.9184  -8.9184  -8.8234  -8.7823
    -8.7823  -8.7122  -8.3051  -8.3051  -8.1588  -7.9125  -7.8389  -7.8389
    -7.6764  -7.6764  -7.3475  -7.3475  -7.2751  -7.2459  -6.9555  -6.7639
    -6.7639  -6.5992  -6.3721  -6.3721  -6.3033  -6.2574  -6.2574  -6.0530
    -6.0530  -6.0529  -5.8058  -5.8058  -5.5986  -5.5986  -4.3188  -4.3188
    -3.8781  -3.8781  -3.5761  -3.5672  -3.5672  -3.4787  -3.2303  -3.2303
    -2.8341  -2.8341  -2.5303  -2.5303  -0.9451  -0.5084  -0.2809  -0.0263
     0.1048   0.2228   0.8954   1.0041   1.0041   1.1076   1.1076   1.2729
     1.8755   1.8755   1.8978   2.1274

          k = 0.0000 0.1925 0.0000 (109722 PWs)   bands (ev):

   -77.9609 -77.9447 -74.8882 -74.8717 -49.3690 -49.3599 -49.3599 -49.3539
   -49.3432 -49.3432 -46.3479 -46.3304 -46.3127 -46.3127 -46.2966 -46.2965
   -18.5238 -18.4305 -17.7707 -17.6414 -17.5722 -17.5241 -17.5179 -17.4683
   -17.3614 -17.3559 -17.3131 -17.3108 -10.2659  -9.9634  -9.8110  -9.3334
    -9.2302  -9.2145  -9.1313  -9.0464  -8.9743  -8.9376  -8.8178  -8.7506
    -8.6164  -8.3954  -8.3375  -8.3015  -7.9095  -7.8979  -7.8518  -7.7287
    -7.6713  -7.5992  -7.3865  -7.3254  -7.2517  -7.1808  -6.9547  -6.9239
    -6.7114  -6.6386  -6.4913  -6.4489  -6.4204  -6.3136  -6.2580  -6.1849
    -6.0513  -6.0453  -6.0116  -5.9099  -5.6706  -5.5753  -4.3130  -4.2925
    -4.0607  -3.9270  -3.6348  -3.5008  -3.4910  -3.3767  -3.2589  -3.2582
    -2.8270  -2.8190  -2.6737  -2.5774  -0.8348  -0.2076  -0.0671   0.2899
     0.3968   0.5312   0.6272   0.7392   0.8324   1.0315   1.3701   1.5154
     1.6491   1.7644   1.8414   1.8955

          k = 0.0000 0.3849 0.0000 (109616 PWs)   bands (ev):

   -77.9609 -77.9447 -74.8882 -74.8717 -49.3690 -49.3599 -49.3598 -49.3539
   -49.3433 -49.3432 -46.3479 -46.3304 -46.3128 -46.3126 -46.2966 -46.2965
   -18.3598 -18.2766 -17.7749 -17.7186 -17.6749 -17.5687 -17.5603 -17.5067
   -17.4221 -17.3789 -17.3555 -17.3285 -10.1970  -9.9232  -9.6823  -9.3448
    -9.3158  -9.2092  -9.1072  -9.0262  -8.9355  -8.7797  -8.6845  -8.5924
    -8.4369  -8.3355  -8.2920  -8.1881  -7.9822  -7.8375  -7.7918  -7.6143
    -7.5798  -7.4747  -7.4456  -7.2346  -7.1980  -7.1115  -7.0525  -7.0346
    -6.9427  -6.8880  -6.7451  -6.5383  -6.4781  -6.4149  -6.3123  -6.1977
    -6.0769  -6.0511  -6.0283  -5.9560  -5.7674  -5.5719  -4.2925  -4.2370
    -4.1802  -4.0713  -3.6812  -3.6261  -3.4250  -3.2763  -3.2693  -3.2017
    -2.8253  -2.7983  -2.7370  -2.6643  -0.8405  -0.2998   0.0443   0.4017
     0.5726   0.6956   0.8256   0.9340   1.0270   1.1069   1.1747   1.2478
     1.3491   1.4988   1.5494   1.6373

          k = 0.0000-0.5774 0.0000 (109602 PWs)   bands (ev):

   -77.9609 -77.9447 -74.8882 -74.8717 -49.3690 -49.3599 -49.3598 -49.3540
   -49.3433 -49.3432 -46.3479 -46.3304 -46.3128 -46.3125 -46.2967 -46.2965
   -18.1916 -18.1515 -17.9290 -17.8926 -17.5870 -17.5789 -17.5332 -17.5238
   -17.4560 -17.4215 -17.3900 -17.3382 -10.1824  -9.9144  -9.5517  -9.3645
    -9.3165  -9.1408  -9.0728  -8.9009  -8.8337  -8.7287  -8.6359  -8.5323
    -8.4705  -8.3445  -8.2310  -8.1343  -8.0607  -7.9258  -7.7800  -7.7120
    -7.7058  -7.5515  -7.5373  -7.4275  -7.1249  -7.0725  -7.0343  -6.9066
    -6.8362  -6.7610  -6.7115  -6.6021  -6.5427  -6.4361  -6.4199  -6.2827
    -6.0722  -6.0566  -5.9487  -5.8726  -5.8395  -5.5885  -4.2570  -4.2419
    -4.1954  -4.0944  -3.7278  -3.7189  -3.4496  -3.2547  -3.2461  -3.1670
    -2.8389  -2.7965  -2.6917  -2.6556  -1.0484  -0.5216   0.0799   0.1273
     0.3905   0.7385   0.8326   0.9436   0.9695   1.1556   1.2765   1.2996
     1.4055   1.4722   1.5790   1.6172

          k = 0.1667 0.2887 0.0000 (109615 PWs)   bands (ev):

   -77.9609 -77.9447 -74.8882 -74.8717 -49.3690 -49.3599 -49.3598 -49.3539
   -49.3433 -49.3432 -46.3479 -46.3304 -46.3128 -46.3126 -46.2966 -46.2965
   -18.4112 -18.3238 -17.7076 -17.6937 -17.6562 -17.5888 -17.5616 -17.5196
   -17.3951 -17.3764 -17.3367 -17.3215 -10.1764  -9.8948  -9.7494  -9.3843
    -9.2828  -9.2708  -9.1236  -9.0248  -8.9987  -8.8345  -8.7147  -8.5634
    -8.4844  -8.4401  -8.2394  -8.1141  -7.9945  -7.9060  -7.7597  -7.6606
    -7.6197  -7.4375  -7.3884  -7.2720  -7.2191  -7.1341  -7.0329  -6.9919
    -6.8657  -6.8230  -6.6518  -6.5175  -6.4867  -6.4238  -6.3149  -6.1817
    -6.1187  -6.0958  -5.9822  -5.9595  -5.7370  -5.5683  -4.3053  -4.2463
    -4.2173  -3.9638  -3.6261  -3.6096  -3.3961  -3.3553  -3.2506  -3.2342
    -2.8511  -2.7642  -2.7367  -2.6339  -0.7426  -0.1686  -0.1194   0.3243
     0.4788   0.5494   0.6965   0.8570   1.0570   1.1379   1.3072   1.3742
     1.4519   1.5733   1.6121   1.6548

          k = 0.1667 0.4811 0.0000 (109606 PWs)   bands (ev):

   -77.9609 -77.9447 -74.8882 -74.8717 -49.3690 -49.3599 -49.3598 -49.3540
   -49.3433 -49.3432 -46.3479 -46.3304 -46.3128 -46.3125 -46.2967 -46.2964
   -18.2196 -18.1519 -17.8892 -17.8475 -17.6231 -17.6024 -17.5670 -17.5088
   -17.4577 -17.4120 -17.3768 -17.3393 -10.0598  -9.7961  -9.6210  -9.3758
    -9.3082  -9.1977  -9.0706  -8.9971  -8.9052  -8.8263  -8.6635  -8.5613
    -8.4994  -8.3788  -8.3240  -8.2392  -7.9237  -7.8613  -7.8189  -7.7087
    -7.5920  -7.4499  -7.4048  -7.3619  -7.2151  -7.0814  -6.9536  -6.8780
    -6.8304  -6.7749  -6.7142  -6.7005  -6.5579  -6.4277  -6.3689  -6.2767
    -6.1544  -6.0423  -5.9572  -5.8646  -5.7976  -5.6000  -4.2683  -4.2380
    -4.1768  -4.0095  -3.7091  -3.6561  -3.4338  -3.3792  -3.2133  -3.1844
    -2.7957  -2.7544  -2.6857  -2.6561  -0.9090  -0.4311  -0.3431   0.1487
     0.2399   0.5010   0.6255   0.6648   0.8836   0.9408   1.1219   1.2127
     1.2938   1.3330   1.4589   1.5606

          k = 0.3333 0.5774 0.0000 (109542 PWs)   bands (ev):

   -77.9609 -77.9447 -74.8882 -74.8717 -49.3690 -49.3599 -49.3598 -49.3540
   -49.3433 -49.3432 -46.3479 -46.3304 -46.3128 -46.3125 -46.2967 -46.2964
   -18.0531 -18.0223 -18.0108 -17.9773 -17.6649 -17.6287 -17.5267 -17.5018
   -17.4713 -17.4337 -17.3859 -17.3552  -9.7727  -9.7591  -9.5069  -9.4704
    -9.2712  -9.1753  -9.1717  -8.9492  -8.9173  -8.9131  -8.7283  -8.6656
    -8.5629  -8.3797  -8.3628  -8.3324  -8.2710  -7.8144  -7.6877  -7.6500
    -7.3728  -7.3299  -7.2815  -7.2580  -7.2557  -7.1131  -7.0872  -6.9924
    -6.7099  -6.7086  -6.6819  -6.6155  -6.5930  -6.5186  -6.3877  -6.2796
    -6.2777  -5.9775  -5.9028  -5.8954  -5.6915  -5.6786  -4.2778  -4.1856
    -4.1675  -3.9267  -3.6634  -3.6609  -3.4934  -3.4362  -3.1991  -3.1965
    -2.7483  -2.7044  -2.6942  -2.5860  -0.8304  -0.8030  -0.2810  -0.2628
     0.1818   0.3027   0.3108   0.5452   0.5523   0.5949   0.9008   0.9438
     1.1334   1.3333   1.4101   1.4193

          k =-0.1667 0.0962 0.0000 (109722 PWs)   bands (ev):

   -77.9609 -77.9447 -74.8882 -74.8717 -49.3690 -49.3599 -49.3599 -49.3539
   -49.3432 -49.3432 -46.3479 -46.3304 -46.3127 -46.3127 -46.2966 -46.2965
   -18.5238 -18.4305 -17.7707 -17.6414 -17.5721 -17.5241 -17.5179 -17.4683
   -17.3614 -17.3559 -17.3131 -17.3108 -10.2659  -9.9634  -9.8110  -9.3334
    -9.2302  -9.2145  -9.1313  -9.0464  -8.9743  -8.9376  -8.8178  -8.7506
    -8.6164  -8.3954  -8.3375  -8.3015  -7.9095  -7.8979  -7.8518  -7.7287
    -7.6713  -7.5992  -7.3865  -7.3254  -7.2517  -7.1808  -6.9547  -6.9239
    -6.7114  -6.6386  -6.4913  -6.4489  -6.4204  -6.3136  -6.2580  -6.1849
    -6.0513  -6.0453  -6.0116  -5.9099  -5.6706  -5.5753  -4.3130  -4.2925
    -4.0607  -3.9270  -3.6348  -3.5008  -3.4910  -3.3767  -3.2589  -3.2582
    -2.8270  -2.8190  -2.6737  -2.5774  -0.8348  -0.2076  -0.0671   0.2899
     0.3968   0.5312   0.6272   0.7392   0.8324   1.0315   1.3701   1.5154
     1.6491   1.7644   1.8414   1.8955

          k = 0.1667 0.0962 0.0000 (109722 PWs)   bands (ev):

   -77.9609 -77.9447 -74.8882 -74.8717 -49.3690 -49.3599 -49.3599 -49.3539
   -49.3432 -49.3432 -46.3479 -46.3304 -46.3127 -46.3127 -46.2966 -46.2965
   -18.5238 -18.4305 -17.7707 -17.6414 -17.5722 -17.5241 -17.5179 -17.4683
   -17.3614 -17.3559 -17.3131 -17.3108 -10.2659  -9.9634  -9.8110  -9.3334
    -9.2302  -9.2145  -9.1313  -9.0464  -8.9743  -8.9376  -8.8178  -8.7506
    -8.6164  -8.3954  -8.3375  -8.3015  -7.9095  -7.8979  -7.8518  -7.7287
    -7.6713  -7.5992  -7.3865  -7.3254  -7.2517  -7.1808  -6.9547  -6.9239
    -6.7114  -6.6386  -6.4913  -6.4489  -6.4204  -6.3136  -6.2580  -6.1849
    -6.0513  -6.0453  -6.0116  -5.9099  -5.6706  -5.5753  -4.3130  -4.2925
    -4.0607  -3.9270  -3.6348  -3.5008  -3.4910  -3.3766  -3.2589  -3.2582
    -2.8270  -2.8190  -2.6737  -2.5774  -0.8348  -0.2076  -0.0671   0.2899
     0.3968   0.5312   0.6272   0.7392   0.8324   1.0315   1.3701   1.5154
     1.6491   1.7644   1.8414   1.8955

          k =-0.3333 0.1925 0.0000 (109616 PWs)   bands (ev):

   -77.9609 -77.9447 -74.8882 -74.8717 -49.3690 -49.3599 -49.3598 -49.3539
   -49.3433 -49.3432 -46.3479 -46.3304 -46.3128 -46.3126 -46.2966 -46.2965
   -18.3598 -18.2766 -17.7749 -17.7186 -17.6749 -17.5687 -17.5603 -17.5067
   -17.4221 -17.3789 -17.3555 -17.3285 -10.1970  -9.9232  -9.6823  -9.3448
    -9.3158  -9.2092  -9.1072  -9.0262  -8.9355  -8.7797  -8.6845  -8.5924
    -8.4369  -8.3355  -8.2920  -8.1881  -7.9822  -7.8375  -7.7918  -7.6143
    -7.5798  -7.4747  -7.4456  -7.2346  -7.1980  -7.1115  -7.0525  -7.0346
    -6.9427  -6.8880  -6.7451  -6.5383  -6.4781  -6.4149  -6.3123  -6.1977
    -6.0769  -6.0511  -6.0283  -5.9560  -5.7674  -5.5719  -4.2925  -4.2370
    -4.1802  -4.0713  -3.6812  -3.6261  -3.4250  -3.2763  -3.2693  -3.2017
    -2.8253  -2.7983  -2.7370  -2.6643  -0.8405  -0.2998   0.0443   0.4017
     0.5726   0.6956   0.8256   0.9340   1.0270   1.1069   1.1747   1.2478
     1.3491   1.4988   1.5494   1.6373

          k = 0.3333 0.1925 0.0000 (109616 PWs)   bands (ev):

   -77.9609 -77.9447 -74.8882 -74.8717 -49.3690 -49.3599 -49.3598 -49.3539
   -49.3433 -49.3432 -46.3479 -46.3304 -46.3128 -46.3126 -46.2966 -46.2965
   -18.3598 -18.2766 -17.7749 -17.7186 -17.6749 -17.5687 -17.5603 -17.5067
   -17.4221 -17.3789 -17.3555 -17.3285 -10.1970  -9.9232  -9.6823  -9.3448
    -9.3158  -9.2092  -9.1072  -9.0262  -8.9355  -8.7797  -8.6845  -8.5924
    -8.4369  -8.3355  -8.2920  -8.1881  -7.9822  -7.8375  -7.7918  -7.6143
    -7.5798  -7.4747  -7.4456  -7.2346  -7.1980  -7.1115  -7.0525  -7.0346
    -6.9427  -6.8880  -6.7451  -6.5383  -6.4781  -6.4149  -6.3123  -6.1977
    -6.0769  -6.0511  -6.0283  -5.9560  -5.7674  -5.5719  -4.2925  -4.2370
    -4.1802  -4.0713  -3.6812  -3.6261  -3.4250  -3.2763  -3.2693  -3.2017
    -2.8253  -2.7983  -2.7370  -2.6643  -0.8405  -0.2998   0.0443   0.4017
     0.5726   0.6956   0.8256   0.9340   1.0270   1.1069   1.1747   1.2478
     1.3491   1.4988   1.5494   1.6373

          k = 0.5000-0.2887 0.0000 (109602 PWs)   bands (ev):

   -77.9609 -77.9447 -74.8882 -74.8717 -49.3690 -49.3599 -49.3598 -49.3540
   -49.3433 -49.3432 -46.3479 -46.3304 -46.3128 -46.3125 -46.2967 -46.2965
   -18.1916 -18.1515 -17.9290 -17.8926 -17.5870 -17.5789 -17.5332 -17.5238
   -17.4560 -17.4215 -17.3900 -17.3382 -10.1824  -9.9144  -9.5517  -9.3645
    -9.3165  -9.1408  -9.0728  -8.9009  -8.8337  -8.7287  -8.6359  -8.5323
    -8.4705  -8.3445  -8.2310  -8.1343  -8.0607  -7.9258  -7.7800  -7.7120
    -7.7058  -7.5515  -7.5373  -7.4275  -7.1249  -7.0725  -7.0343  -6.9066
    -6.8362  -6.7610  -6.7115  -6.6021  -6.5427  -6.4361  -6.4199  -6.2827
    -6.0722  -6.0566  -5.9487  -5.8726  -5.8395  -5.5885  -4.2570  -4.2419
    -4.1954  -4.0944  -3.7278  -3.7189  -3.4496  -3.2547  -3.2461  -3.1670
    -2.8389  -2.7965  -2.6917  -2.6556  -1.0484  -0.5216   0.0799   0.1273
     0.3905   0.7385   0.8326   0.9436   0.9695   1.1556   1.2764   1.2996
     1.4055   1.4722   1.5790   1.6172

          k =-0.5000-0.2887 0.0000 (109602 PWs)   bands (ev):

   -77.9609 -77.9447 -74.8882 -74.8717 -49.3690 -49.3599 -49.3598 -49.3540
   -49.3433 -49.3432 -46.3479 -46.3304 -46.3128 -46.3125 -46.2967 -46.2965
   -18.1916 -18.1515 -17.9290 -17.8926 -17.5870 -17.5789 -17.5332 -17.5238
   -17.4560 -17.4215 -17.3900 -17.3382 -10.1824  -9.9144  -9.5517  -9.3645
    -9.3165  -9.1408  -9.0728  -8.9009  -8.8337  -8.7287  -8.6359  -8.5323
    -8.4705  -8.3445  -8.2310  -8.1343  -8.0607  -7.9258  -7.7800  -7.7120
    -7.7058  -7.5515  -7.5373  -7.4275  -7.1249  -7.0725  -7.0343  -6.9066
    -6.8362  -6.7610  -6.7115  -6.6021  -6.5427  -6.4361  -6.4199  -6.2827
    -6.0722  -6.0566  -5.9487  -5.8726  -5.8395  -5.5885  -4.2570  -4.2419
    -4.1954  -4.0944  -3.7278  -3.7189  -3.4496  -3.2547  -3.2461  -3.1670
    -2.8389  -2.7965  -2.6917  -2.6556  -1.0484  -0.5216   0.0799   0.1273
     0.3905   0.7385   0.8326   0.9436   0.9695   1.1556   1.2765   1.2996
     1.4055   1.4721   1.5790   1.6172

          k =-0.1667 0.2887 0.0000 (109615 PWs)   bands (ev):

   -77.9609 -77.9447 -74.8882 -74.8717 -49.3690 -49.3599 -49.3598 -49.3539
   -49.3433 -49.3432 -46.3479 -46.3304 -46.3128 -46.3126 -46.2966 -46.2965
   -18.4112 -18.3238 -17.7076 -17.6937 -17.6562 -17.5888 -17.5616 -17.5196
   -17.3951 -17.3764 -17.3367 -17.3215 -10.1764  -9.8948  -9.7494  -9.3843
    -9.2828  -9.2708  -9.1236  -9.0248  -8.9987  -8.8345  -8.7147  -8.5634
    -8.4844  -8.4401  -8.2394  -8.1141  -7.9945  -7.9060  -7.7597  -7.6606
    -7.6197  -7.4375  -7.3884  -7.2720  -7.2191  -7.1341  -7.0329  -6.9919
    -6.8657  -6.8230  -6.6518  -6.5175  -6.4867  -6.4238  -6.3149  -6.1817
    -6.1187  -6.0957  -5.9822  -5.9595  -5.7370  -5.5683  -4.3053  -4.2463
    -4.2173  -3.9638  -3.6261  -3.6096  -3.3961  -3.3553  -3.2506  -3.2342
    -2.8511  -2.7642  -2.7367  -2.6339  -0.7426  -0.1686  -0.1194   0.3243
     0.4788   0.5494   0.6965   0.8570   1.0570   1.1379   1.3072   1.3742
     1.4519   1.5733   1.6121   1.6547

          k = 0.3333 0.0000 0.0000 (109615 PWs)   bands (ev):

   -77.9609 -77.9447 -74.8882 -74.8717 -49.3690 -49.3599 -49.3598 -49.3539
   -49.3433 -49.3432 -46.3479 -46.3304 -46.3128 -46.3126 -46.2966 -46.2965
   -18.4112 -18.3238 -17.7076 -17.6937 -17.6562 -17.5888 -17.5616 -17.5196
   -17.3951 -17.3764 -17.3367 -17.3215 -10.1764  -9.8948  -9.7494  -9.3843
    -9.2828  -9.2708  -9.1236  -9.0248  -8.9987  -8.8345  -8.7147  -8.5634
    -8.4844  -8.4401  -8.2394  -8.1141  -7.9945  -7.9060  -7.7597  -7.6606
    -7.6197  -7.4375  -7.3884  -7.2720  -7.2191  -7.1341  -7.0329  -6.9919
    -6.8657  -6.8230  -6.6518  -6.5175  -6.4867  -6.4238  -6.3149  -6.1817
    -6.1187  -6.0957  -5.9822  -5.9595  -5.7370  -5.5683  -4.3053  -4.2463
    -4.2173  -3.9638  -3.6261  -3.6096  -3.3961  -3.3553  -3.2506  -3.2342
    -2.8511  -2.7642  -2.7367  -2.6339  -0.7426  -0.1686  -0.1194   0.3243
     0.4788   0.5494   0.6965   0.8570   1.0570   1.1379   1.3072   1.3742
     1.4519   1.5733   1.6121   1.6547

          k =-0.1667 0.4811 0.0000 (109606 PWs)   bands (ev):

   -77.9609 -77.9447 -74.8882 -74.8717 -49.3690 -49.3599 -49.3598 -49.3540
   -49.3433 -49.3432 -46.3479 -46.3304 -46.3128 -46.3125 -46.2967 -46.2964
   -18.2198 -18.1515 -17.8920 -17.8444 -17.6227 -17.6054 -17.5647 -17.5085
   -17.4590 -17.4097 -17.3790 -17.3386 -10.0604  -9.7857  -9.6441  -9.3406
    -9.3143  -9.2124  -9.0929  -8.9563  -8.9047  -8.8348  -8.6920  -8.5742
    -8.4839  -8.3593  -8.3088  -8.2483  -7.9688  -7.8418  -7.7849  -7.7237
    -7.5915  -7.4641  -7.4145  -7.3578  -7.1588  -7.1173  -6.9683  -6.8777
    -6.8507  -6.7758  -6.7074  -6.6468  -6.5702  -6.4556  -6.3626  -6.2751
    -6.1565  -6.0390  -5.9541  -5.8662  -5.7988  -5.5999  -4.2665  -4.2398
    -4.1766  -4.0106  -3.7089  -3.6550  -3.4335  -3.3800  -3.2129  -3.1842
    -2.7956  -2.7546  -2.6847  -2.6576  -0.9096  -0.4045  -0.3717   0.1556
     0.2545   0.4631   0.6126   0.6768   0.8613   0.9988   1.1029   1.1798
     1.3110   1.3575   1.5315   1.5401

          k =-0.3333 0.3849 0.0000 (109606 PWs)   bands (ev):

   -77.9609 -77.9447 -74.8882 -74.8717 -49.3690 -49.3599 -49.3598 -49.3540
   -49.3433 -49.3432 -46.3479 -46.3304 -46.3128 -46.3125 -46.2967 -46.2964
   -18.2196 -18.1519 -17.8892 -17.8475 -17.6231 -17.6024 -17.5670 -17.5088
   -17.4577 -17.4120 -17.3768 -17.3393 -10.0599  -9.7961  -9.6210  -9.3758
    -9.3082  -9.1977  -9.0706  -8.9971  -8.9052  -8.8263  -8.6635  -8.5613
    -8.4994  -8.3788  -8.3240  -8.2392  -7.9237  -7.8613  -7.8189  -7.7087
    -7.5920  -7.4499  -7.4048  -7.3619  -7.2151  -7.0814  -6.9536  -6.8780
    -6.8304  -6.7749  -6.7142  -6.7005  -6.5579  -6.4277  -6.3689  -6.2767
    -6.1544  -6.0423  -5.9572  -5.8646  -5.7976  -5.6000  -4.2683  -4.2380
    -4.1768  -4.0095  -3.7091  -3.6561  -3.4338  -3.3792  -3.2133  -3.1844
    -2.7957  -2.7544  -2.6857  -2.6561  -0.9090  -0.4311  -0.3431   0.1487
     0.2399   0.5010   0.6255   0.6648   0.8836   0.9408   1.1219   1.2127
     1.2938   1.3330   1.4589   1.5606

          k = 0.5000 0.0962 0.0000 (109606 PWs)   bands (ev):

   -77.9609 -77.9447 -74.8882 -74.8717 -49.3690 -49.3599 -49.3598 -49.3540
   -49.3433 -49.3432 -46.3479 -46.3304 -46.3128 -46.3125 -46.2967 -46.2964
   -18.2196 -18.1519 -17.8892 -17.8475 -17.6231 -17.6024 -17.5670 -17.5088
   -17.4577 -17.4120 -17.3768 -17.3393 -10.0599  -9.7961  -9.6210  -9.3758
    -9.3082  -9.1977  -9.0706  -8.9971  -8.9052  -8.8263  -8.6635  -8.5613
    -8.4994  -8.3788  -8.3240  -8.2392  -7.9237  -7.8613  -7.8189  -7.7087
    -7.5920  -7.4499  -7.4048  -7.3619  -7.2151  -7.0814  -6.9536  -6.8780
    -6.8304  -6.7749  -6.7142  -6.7005  -6.5579  -6.4277  -6.3689  -6.2767
    -6.1544  -6.0423  -5.9572  -5.8646  -5.7976  -5.6000  -4.2683  -4.2380
    -4.1768  -4.0095  -3.7091  -3.6561  -3.4338  -3.3792  -3.2133  -3.1844
    -2.7957  -2.7544  -2.6857  -2.6561  -0.9090  -0.4311  -0.3431   0.1487
     0.2399   0.5010   0.6255   0.6648   0.8836   0.9408   1.1219   1.2127
     1.2938   1.3330   1.4589   1.5606

          k =-0.3333-0.3849 0.0000 (109606 PWs)   bands (ev):

   -77.9609 -77.9447 -74.8882 -74.8717 -49.3690 -49.3599 -49.3598 -49.3540
   -49.3433 -49.3432 -46.3479 -46.3304 -46.3128 -46.3125 -46.2967 -46.2964
   -18.2198 -18.1515 -17.8920 -17.8444 -17.6227 -17.6054 -17.5647 -17.5085
   -17.4590 -17.4097 -17.3790 -17.3386 -10.0604  -9.7857  -9.6441  -9.3406
    -9.3143  -9.2124  -9.0929  -8.9563  -8.9047  -8.8348  -8.6920  -8.5742
    -8.4839  -8.3593  -8.3088  -8.2483  -7.9688  -7.8418  -7.7849  -7.7237
    -7.5915  -7.4641  -7.4145  -7.3578  -7.1588  -7.1173  -6.9683  -6.8777
    -6.8507  -6.7758  -6.7074  -6.6468  -6.5702  -6.4556  -6.3626  -6.2751
    -6.1565  -6.0390  -5.9541  -5.8662  -5.7988  -5.5999  -4.2665  -4.2398
    -4.1766  -4.0106  -3.7089  -3.6550  -3.4335  -3.3800  -3.2129  -3.1842
    -2.7956  -2.7546  -2.6847  -2.6576  -0.9096  -0.4045  -0.3717   0.1557
     0.2545   0.4631   0.6126   0.6768   0.8613   0.9988   1.1029   1.1798
     1.3110   1.3575   1.5315   1.5401

          k = 0.5000-0.0962 0.0000 (109606 PWs)   bands (ev):

   -77.9609 -77.9447 -74.8882 -74.8717 -49.3690 -49.3599 -49.3598 -49.3540
   -49.3433 -49.3432 -46.3479 -46.3304 -46.3128 -46.3125 -46.2967 -46.2964
   -18.2198 -18.1515 -17.8920 -17.8444 -17.6227 -17.6054 -17.5647 -17.5085
   -17.4590 -17.4097 -17.3790 -17.3386 -10.0604  -9.7857  -9.6441  -9.3406
    -9.3143  -9.2124  -9.0929  -8.9563  -8.9047  -8.8348  -8.6920  -8.5742
    -8.4839  -8.3593  -8.3088  -8.2483  -7.9688  -7.8418  -7.7849  -7.7237
    -7.5915  -7.4641  -7.4145  -7.3578  -7.1588  -7.1173  -6.9683  -6.8777
    -6.8507  -6.7758  -6.7074  -6.6468  -6.5702  -6.4556  -6.3626  -6.2751
    -6.1565  -6.0390  -5.9541  -5.8662  -5.7988  -5.5999  -4.2665  -4.2398
    -4.1766  -4.0106  -3.7089  -3.6550  -3.4335  -3.3800  -3.2129  -3.1842
    -2.7956  -2.7546  -2.6847  -2.6576  -0.9096  -0.4045  -0.3717   0.1557
     0.2545   0.4631   0.6126   0.6768   0.8613   0.9988   1.1029   1.1798
     1.3110   1.3575   1.5315   1.5401

 ------ SPIN DOWN ----------


          k = 0.0000 0.0000 0.0000 (109591 PWs)   bands (ev):

   -77.9609 -77.9448 -74.8882 -74.8717 -49.3690 -49.3599 -49.3599 -49.3540
   -49.3433 -49.3433 -46.3479 -46.3303 -46.3127 -46.3127 -46.2965 -46.2965
   -18.5834 -18.4876 -17.8055 -17.6713 -17.4901 -17.4901 -17.4465 -17.4465
   -17.3465 -17.3465 -17.3043 -17.3043 -10.3035  -9.9788  -9.8534  -9.2979
    -9.1741  -9.1741  -9.1062  -9.1062  -8.9184  -8.9184  -8.8234  -8.7823
    -8.7823  -8.7122  -8.3051  -8.3051  -8.1588  -7.9125  -7.8389  -7.8389
    -7.6764  -7.6764  -7.3475  -7.3475  -7.2751  -7.2459  -6.9555  -6.7640
    -6.7640  -6.5993  -6.3721  -6.3721  -6.3033  -6.2574  -6.2574  -6.0530
    -6.0530  -6.0529  -5.8058  -5.8058  -5.5986  -5.5986  -4.3188  -4.3188
    -3.8781  -3.8781  -3.5761  -3.5672  -3.5672  -3.4787  -3.2303  -3.2303
    -2.8341  -2.8341  -2.5303  -2.5303  -0.9451  -0.5085  -0.2809  -0.0263
     0.1048   0.2228   0.8954   1.0041   1.0041   1.1076   1.1076   1.2729
     1.8755   1.8755   1.8978   2.1274

          k = 0.0000 0.1925 0.0000 (109722 PWs)   bands (ev):

   -77.9609 -77.9448 -74.8882 -74.8717 -49.3690 -49.3599 -49.3599 -49.3540
   -49.3433 -49.3433 -46.3479 -46.3303 -46.3127 -46.3127 -46.2965 -46.2965
   -18.5238 -18.4305 -17.7707 -17.6414 -17.5722 -17.5241 -17.5179 -17.4682
   -17.3614 -17.3559 -17.3131 -17.3108 -10.2659  -9.9634  -9.8110  -9.3334
    -9.2302  -9.2146  -9.1313  -9.0464  -8.9743  -8.9376  -8.8178  -8.7507
    -8.6164  -8.3954  -8.3375  -8.3015  -7.9095  -7.8979  -7.8518  -7.7287
    -7.6713  -7.5992  -7.3865  -7.3254  -7.2517  -7.1808  -6.9547  -6.9239
    -6.7114  -6.6386  -6.4913  -6.4489  -6.4204  -6.3136  -6.2580  -6.1849
    -6.0513  -6.0453  -6.0116  -5.9099  -5.6706  -5.5753  -4.3130  -4.2925
    -4.0607  -3.9270  -3.6348  -3.5008  -3.4910  -3.3766  -3.2589  -3.2582
    -2.8270  -2.8190  -2.6737  -2.5774  -0.8348  -0.2076  -0.0670   0.2899
     0.3968   0.5312   0.6272   0.7392   0.8324   1.0315   1.3701   1.5154
     1.6491   1.7644   1.8414   1.8955

          k = 0.0000 0.3849 0.0000 (109616 PWs)   bands (ev):

   -77.9609 -77.9448 -74.8882 -74.8717 -49.3690 -49.3599 -49.3598 -49.3540
   -49.3434 -49.3433 -46.3479 -46.3303 -46.3127 -46.3126 -46.2966 -46.2965
   -18.3598 -18.2766 -17.7749 -17.7186 -17.6749 -17.5687 -17.5603 -17.5067
   -17.4221 -17.3789 -17.3555 -17.3284 -10.1970  -9.9232  -9.6823  -9.3448
    -9.3158  -9.2092  -9.1072  -9.0262  -8.9355  -8.7797  -8.6845  -8.5924
    -8.4369  -8.3355  -8.2920  -8.1881  -7.9822  -7.8375  -7.7918  -7.6143
    -7.5798  -7.4747  -7.4456  -7.2346  -7.1980  -7.1115  -7.0525  -7.0346
    -6.9427  -6.8880  -6.7451  -6.5383  -6.4781  -6.4149  -6.3124  -6.1977
    -6.0769  -6.0511  -6.0283  -5.9560  -5.7674  -5.5719  -4.2925  -4.2370
    -4.1803  -4.0714  -3.6812  -3.6261  -3.4250  -3.2763  -3.2693  -3.2017
    -2.8253  -2.7983  -2.7370  -2.6643  -0.8405  -0.2998   0.0443   0.4017
     0.5726   0.6956   0.8256   0.9340   1.0270   1.1069   1.1748   1.2479
     1.3491   1.4988   1.5494   1.6373

          k = 0.0000-0.5774 0.0000 (109602 PWs)   bands (ev):

   -77.9609 -77.9448 -74.8882 -74.8717 -49.3690 -49.3599 -49.3598 -49.3540
   -49.3434 -49.3432 -46.3479 -46.3304 -46.3128 -46.3125 -46.2967 -46.2964
   -18.1916 -18.1515 -17.9290 -17.8926 -17.5870 -17.5789 -17.5332 -17.5238
   -17.4560 -17.4215 -17.3900 -17.3382 -10.1824  -9.9144  -9.5517  -9.3645
    -9.3165  -9.1408  -9.0728  -8.9009  -8.8337  -8.7287  -8.6359  -8.5323
    -8.4705  -8.3445  -8.2310  -8.1343  -8.0607  -7.9258  -7.7800  -7.7120
    -7.7058  -7.5515  -7.5373  -7.4275  -7.1249  -7.0725  -7.0343  -6.9066
    -6.8362  -6.7611  -6.7115  -6.6021  -6.5427  -6.4361  -6.4199  -6.2827
    -6.0723  -6.0566  -5.9488  -5.8726  -5.8395  -5.5885  -4.2570  -4.2419
    -4.1954  -4.0944  -3.7278  -3.7188  -3.4496  -3.2547  -3.2461  -3.1670
    -2.8389  -2.7965  -2.6917  -2.6556  -1.0484  -0.5216   0.0799   0.1273
     0.3905   0.7385   0.8326   0.9436   0.9695   1.1556   1.2765   1.2996
     1.4055   1.4721   1.5790   1.6172

          k = 0.1667 0.2887 0.0000 (109615 PWs)   bands (ev):

   -77.9609 -77.9448 -74.8882 -74.8717 -49.3690 -49.3599 -49.3598 -49.3540
   -49.3433 -49.3433 -46.3479 -46.3303 -46.3127 -46.3126 -46.2966 -46.2965
   -18.4112 -18.3238 -17.7076 -17.6938 -17.6562 -17.5888 -17.5616 -17.5196
   -17.3951 -17.3764 -17.3367 -17.3215 -10.1764  -9.8948  -9.7494  -9.3843
    -9.2828  -9.2708  -9.1236  -9.0248  -8.9987  -8.8345  -8.7147  -8.5634
    -8.4844  -8.4401  -8.2394  -8.1141  -7.9945  -7.9060  -7.7597  -7.6606
    -7.6197  -7.4375  -7.3884  -7.2720  -7.2191  -7.1341  -7.0329  -6.9919
    -6.8657  -6.8230  -6.6519  -6.5175  -6.4867  -6.4238  -6.3149  -6.1817
    -6.1187  -6.0958  -5.9822  -5.9595  -5.7370  -5.5683  -4.3053  -4.2462
    -4.2173  -3.9638  -3.6261  -3.6096  -3.3961  -3.3553  -3.2506  -3.2342
    -2.8511  -2.7642  -2.7367  -2.6339  -0.7426  -0.1686  -0.1194   0.3243
     0.4788   0.5494   0.6965   0.8570   1.0570   1.1379   1.3072   1.3742
     1.4519   1.5733   1.6121   1.6548

          k = 0.1667 0.4811 0.0000 (109606 PWs)   bands (ev):

   -77.9609 -77.9448 -74.8882 -74.8717 -49.3690 -49.3599 -49.3598 -49.3540
   -49.3434 -49.3432 -46.3479 -46.3304 -46.3128 -46.3125 -46.2967 -46.2964
   -18.2196 -18.1519 -17.8892 -17.8475 -17.6231 -17.6024 -17.5670 -17.5088
   -17.4577 -17.4120 -17.3768 -17.3393 -10.0599  -9.7961  -9.6210  -9.3758
    -9.3082  -9.1977  -9.0706  -8.9971  -8.9052  -8.8263  -8.6635  -8.5613
    -8.4994  -8.3788  -8.3240  -8.2392  -7.9237  -7.8613  -7.8189  -7.7087
    -7.5920  -7.4499  -7.4048  -7.3619  -7.2151  -7.0814  -6.9536  -6.8780
    -6.8304  -6.7749  -6.7142  -6.7005  -6.5579  -6.4277  -6.3689  -6.2767
    -6.1544  -6.0423  -5.9572  -5.8647  -5.7976  -5.6001  -4.2683  -4.2380
    -4.1768  -4.0095  -3.7091  -3.6561  -3.4338  -3.3792  -3.2133  -3.1844
    -2.7957  -2.7544  -2.6857  -2.6561  -0.9090  -0.4311  -0.3431   0.1487
     0.2399   0.5010   0.6255   0.6648   0.8836   0.9408   1.1219   1.2127
     1.2939   1.3330   1.4589   1.5606

          k = 0.3333 0.5774 0.0000 (109542 PWs)   bands (ev):

   -77.9609 -77.9448 -74.8882 -74.8717 -49.3690 -49.3599 -49.3598 -49.3540
   -49.3434 -49.3432 -46.3479 -46.3304 -46.3128 -46.3125 -46.2967 -46.2964
   -18.0531 -18.0223 -18.0107 -17.9773 -17.6649 -17.6287 -17.5267 -17.5018
   -17.4713 -17.4337 -17.3859 -17.3552  -9.7727  -9.7591  -9.5069  -9.4704
    -9.2712  -9.1753  -9.1717  -8.9492  -8.9174  -8.9131  -8.7283  -8.6656
    -8.5629  -8.3797  -8.3628  -8.3324  -8.2710  -7.8144  -7.6877  -7.6500
    -7.3728  -7.3299  -7.2815  -7.2580  -7.2557  -7.1131  -7.0872  -6.9924
    -6.7099  -6.7086  -6.6820  -6.6155  -6.5930  -6.5186  -6.3877  -6.2796
    -6.2777  -5.9775  -5.9028  -5.8954  -5.6915  -5.6786  -4.2778  -4.1856
    -4.1676  -3.9267  -3.6634  -3.6609  -3.4934  -3.4362  -3.1991  -3.1965
    -2.7483  -2.7045  -2.6942  -2.5860  -0.8304  -0.8030  -0.2810  -0.2627
     0.1818   0.3027   0.3108   0.5452   0.5523   0.5949   0.9008   0.9438
     1.1334   1.3333   1.4101   1.4193

          k =-0.1667 0.0962 0.0000 (109722 PWs)   bands (ev):

   -77.9609 -77.9448 -74.8882 -74.8717 -49.3690 -49.3599 -49.3599 -49.3540
   -49.3433 -49.3433 -46.3479 -46.3303 -46.3127 -46.3127 -46.2965 -46.2965
   -18.5238 -18.4305 -17.7707 -17.6414 -17.5722 -17.5241 -17.5179 -17.4683
   -17.3614 -17.3559 -17.3131 -17.3108 -10.2659  -9.9634  -9.8110  -9.3334
    -9.2302  -9.2146  -9.1313  -9.0464  -8.9743  -8.9376  -8.8178  -8.7507
    -8.6164  -8.3954  -8.3375  -8.3015  -7.9095  -7.8979  -7.8518  -7.7287
    -7.6713  -7.5992  -7.3865  -7.3254  -7.2517  -7.1808  -6.9547  -6.9239
    -6.7114  -6.6386  -6.4913  -6.4489  -6.4204  -6.3136  -6.2580  -6.1849
    -6.0513  -6.0453  -6.0116  -5.9099  -5.6706  -5.5753  -4.3130  -4.2925
    -4.0607  -3.9270  -3.6348  -3.5008  -3.4910  -3.3766  -3.2589  -3.2582
    -2.8270  -2.8190  -2.6737  -2.5774  -0.8348  -0.2076  -0.0670   0.2899
     0.3968   0.5312   0.6272   0.7392   0.8324   1.0315   1.3701   1.5154
     1.6491   1.7644   1.8414   1.8955

          k = 0.1667 0.0962 0.0000 (109722 PWs)   bands (ev):

   -77.9609 -77.9448 -74.8882 -74.8717 -49.3690 -49.3599 -49.3599 -49.3540
   -49.3433 -49.3433 -46.3479 -46.3303 -46.3127 -46.3127 -46.2965 -46.2965
   -18.5238 -18.4305 -17.7707 -17.6414 -17.5722 -17.5241 -17.5179 -17.4682
   -17.3614 -17.3559 -17.3131 -17.3108 -10.2659  -9.9634  -9.8110  -9.3334
    -9.2302  -9.2146  -9.1313  -9.0464  -8.9743  -8.9376  -8.8178  -8.7507
    -8.6164  -8.3954  -8.3375  -8.3015  -7.9095  -7.8979  -7.8518  -7.7287
    -7.6713  -7.5992  -7.3865  -7.3254  -7.2517  -7.1808  -6.9547  -6.9239
    -6.7114  -6.6386  -6.4913  -6.4489  -6.4204  -6.3136  -6.2580  -6.1849
    -6.0513  -6.0453  -6.0116  -5.9099  -5.6706  -5.5753  -4.3130  -4.2925
    -4.0607  -3.9270  -3.6348  -3.5008  -3.4910  -3.3766  -3.2589  -3.2582
    -2.8270  -2.8190  -2.6737  -2.5774  -0.8348  -0.2076  -0.0670   0.2899
     0.3968   0.5312   0.6272   0.7392   0.8324   1.0315   1.3701   1.5154
     1.6491   1.7644   1.8414   1.8955

          k =-0.3333 0.1925 0.0000 (109616 PWs)   bands (ev):

   -77.9609 -77.9448 -74.8882 -74.8717 -49.3690 -49.3599 -49.3598 -49.3540
   -49.3434 -49.3433 -46.3479 -46.3303 -46.3127 -46.3126 -46.2966 -46.2965
   -18.3598 -18.2766 -17.7749 -17.7186 -17.6749 -17.5687 -17.5603 -17.5067
   -17.4221 -17.3789 -17.3555 -17.3284 -10.1970  -9.9232  -9.6823  -9.3448
    -9.3158  -9.2092  -9.1072  -9.0262  -8.9355  -8.7797  -8.6845  -8.5924
    -8.4369  -8.3355  -8.2920  -8.1881  -7.9822  -7.8375  -7.7918  -7.6143
    -7.5798  -7.4747  -7.4456  -7.2346  -7.1980  -7.1115  -7.0525  -7.0346
    -6.9427  -6.8880  -6.7451  -6.5383  -6.4781  -6.4149  -6.3124  -6.1977
    -6.0769  -6.0511  -6.0283  -5.9560  -5.7674  -5.5719  -4.2925  -4.2370
    -4.1803  -4.0714  -3.6812  -3.6261  -3.4250  -3.2763  -3.2693  -3.2017
    -2.8253  -2.7983  -2.7370  -2.6643  -0.8405  -0.2998   0.0443   0.4017
     0.5726   0.6956   0.8256   0.9340   1.0270   1.1069   1.1747   1.2479
     1.3491   1.4988   1.5494   1.6373

          k = 0.3333 0.1925 0.0000 (109616 PWs)   bands (ev):

   -77.9609 -77.9448 -74.8882 -74.8717 -49.3690 -49.3599 -49.3598 -49.3540
   -49.3434 -49.3433 -46.3479 -46.3303 -46.3127 -46.3126 -46.2966 -46.2965
   -18.3598 -18.2766 -17.7749 -17.7186 -17.6749 -17.5687 -17.5603 -17.5067
   -17.4221 -17.3789 -17.3555 -17.3284 -10.1970  -9.9232  -9.6823  -9.3448
    -9.3158  -9.2092  -9.1072  -9.0262  -8.9355  -8.7797  -8.6845  -8.5924
    -8.4369  -8.3355  -8.2920  -8.1881  -7.9822  -7.8375  -7.7918  -7.6143
    -7.5798  -7.4747  -7.4456  -7.2346  -7.1980  -7.1115  -7.0525  -7.0346
    -6.9427  -6.8880  -6.7451  -6.5383  -6.4781  -6.4149  -6.3124  -6.1977
    -6.0769  -6.0511  -6.0283  -5.9560  -5.7674  -5.5719  -4.2925  -4.2370
    -4.1803  -4.0714  -3.6812  -3.6261  -3.4250  -3.2763  -3.2693  -3.2017
    -2.8253  -2.7983  -2.7370  -2.6643  -0.8405  -0.2998   0.0443   0.4017
     0.5726   0.6956   0.8256   0.9340   1.0270   1.1069   1.1748   1.2479
     1.3491   1.4988   1.5494   1.6373

          k = 0.5000-0.2887 0.0000 (109602 PWs)   bands (ev):

   -77.9609 -77.9448 -74.8882 -74.8717 -49.3690 -49.3599 -49.3598 -49.3540
   -49.3434 -49.3432 -46.3479 -46.3304 -46.3128 -46.3125 -46.2967 -46.2964
   -18.1916 -18.1515 -17.9290 -17.8926 -17.5870 -17.5789 -17.5332 -17.5238
   -17.4560 -17.4215 -17.3900 -17.3382 -10.1824  -9.9144  -9.5517  -9.3645
    -9.3165  -9.1408  -9.0728  -8.9009  -8.8337  -8.7287  -8.6359  -8.5323
    -8.4705  -8.3445  -8.2310  -8.1343  -8.0607  -7.9258  -7.7800  -7.7120
    -7.7058  -7.5515  -7.5373  -7.4275  -7.1249  -7.0725  -7.0343  -6.9066
    -6.8362  -6.7610  -6.7115  -6.6021  -6.5427  -6.4361  -6.4199  -6.2827
    -6.0723  -6.0566  -5.9488  -5.8726  -5.8395  -5.5885  -4.2570  -4.2419
    -4.1954  -4.0944  -3.7278  -3.7188  -3.4496  -3.2547  -3.2461  -3.1670
    -2.8389  -2.7965  -2.6917  -2.6556  -1.0484  -0.5216   0.0799   0.1273
     0.3905   0.7385   0.8326   0.9435   0.9695   1.1556   1.2765   1.2996
     1.4055   1.4722   1.5790   1.6172

          k =-0.5000-0.2887 0.0000 (109602 PWs)   bands (ev):

   -77.9609 -77.9448 -74.8882 -74.8717 -49.3690 -49.3599 -49.3598 -49.3540
   -49.3434 -49.3432 -46.3479 -46.3304 -46.3128 -46.3125 -46.2967 -46.2964
   -18.1916 -18.1515 -17.9290 -17.8926 -17.5870 -17.5789 -17.5332 -17.5238
   -17.4560 -17.4215 -17.3900 -17.3382 -10.1824  -9.9144  -9.5517  -9.3645
    -9.3165  -9.1408  -9.0728  -8.9009  -8.8337  -8.7287  -8.6359  -8.5323
    -8.4705  -8.3445  -8.2310  -8.1343  -8.0607  -7.9258  -7.7800  -7.7120
    -7.7058  -7.5515  -7.5373  -7.4275  -7.1249  -7.0725  -7.0343  -6.9066
    -6.8362  -6.7611  -6.7115  -6.6021  -6.5427  -6.4361  -6.4199  -6.2827
    -6.0723  -6.0566  -5.9488  -5.8726  -5.8395  -5.5885  -4.2570  -4.2419
    -4.1954  -4.0944  -3.7278  -3.7188  -3.4496  -3.2547  -3.2461  -3.1670
    -2.8389  -2.7965  -2.6917  -2.6556  -1.0484  -0.5216   0.0799   0.1273
     0.3905   0.7385   0.8326   0.9436   0.9695   1.1556   1.2765   1.2996
     1.4055   1.4721   1.5790   1.6172

          k =-0.1667 0.2887 0.0000 (109615 PWs)   bands (ev):

   -77.9609 -77.9448 -74.8882 -74.8717 -49.3690 -49.3599 -49.3598 -49.3540
   -49.3433 -49.3433 -46.3479 -46.3303 -46.3127 -46.3126 -46.2966 -46.2965
   -18.4112 -18.3238 -17.7076 -17.6938 -17.6562 -17.5888 -17.5616 -17.5196
   -17.3951 -17.3764 -17.3367 -17.3215 -10.1764  -9.8948  -9.7494  -9.3843
    -9.2828  -9.2708  -9.1236  -9.0248  -8.9987  -8.8345  -8.7147  -8.5634
    -8.4844  -8.4401  -8.2394  -8.1141  -7.9945  -7.9060  -7.7597  -7.6606
    -7.6197  -7.4375  -7.3884  -7.2720  -7.2191  -7.1341  -7.0329  -6.9919
    -6.8657  -6.8230  -6.6519  -6.5175  -6.4867  -6.4238  -6.3149  -6.1817
    -6.1187  -6.0958  -5.9822  -5.9595  -5.7370  -5.5683  -4.3053  -4.2462
    -4.2173  -3.9638  -3.6261  -3.6096  -3.3961  -3.3553  -3.2506  -3.2342
    -2.8511  -2.7642  -2.7367  -2.6339  -0.7426  -0.1686  -0.1194   0.3243
     0.4788   0.5494   0.6965   0.8570   1.0570   1.1379   1.3072   1.3742
     1.4519   1.5733   1.6121   1.6548

          k = 0.3333 0.0000 0.0000 (109615 PWs)   bands (ev):

   -77.9609 -77.9448 -74.8882 -74.8717 -49.3690 -49.3599 -49.3598 -49.3540
   -49.3433 -49.3433 -46.3479 -46.3303 -46.3127 -46.3126 -46.2966 -46.2965
   -18.4112 -18.3238 -17.7076 -17.6938 -17.6562 -17.5888 -17.5616 -17.5196
   -17.3951 -17.3764 -17.3367 -17.3215 -10.1764  -9.8948  -9.7494  -9.3843
    -9.2828  -9.2708  -9.1236  -9.0248  -8.9987  -8.8345  -8.7147  -8.5634
    -8.4844  -8.4401  -8.2394  -8.1141  -7.9945  -7.9060  -7.7597  -7.6606
    -7.6197  -7.4375  -7.3884  -7.2720  -7.2191  -7.1341  -7.0329  -6.9919
    -6.8657  -6.8230  -6.6519  -6.5175  -6.4867  -6.4238  -6.3149  -6.1817
    -6.1187  -6.0958  -5.9822  -5.9595  -5.7370  -5.5683  -4.3053  -4.2462
    -4.2173  -3.9638  -3.6261  -3.6096  -3.3961  -3.3553  -3.2506  -3.2342
    -2.8511  -2.7642  -2.7367  -2.6339  -0.7426  -0.1686  -0.1194   0.3243
     0.4788   0.5494   0.6965   0.8570   1.0570   1.1379   1.3072   1.3742
     1.4519   1.5733   1.6121   1.6548

          k =-0.1667 0.4811 0.0000 (109606 PWs)   bands (ev):

   -77.9609 -77.9448 -74.8882 -74.8717 -49.3690 -49.3599 -49.3598 -49.3540
   -49.3434 -49.3432 -46.3479 -46.3304 -46.3128 -46.3125 -46.2967 -46.2964
   -18.2198 -18.1515 -17.8920 -17.8444 -17.6227 -17.6054 -17.5647 -17.5085
   -17.4590 -17.4097 -17.3790 -17.3386 -10.0604  -9.7857  -9.6441  -9.3406
    -9.3143  -9.2124  -9.0929  -8.9563  -8.9047  -8.8348  -8.6920  -8.5742
    -8.4839  -8.3593  -8.3088  -8.2483  -7.9688  -7.8418  -7.7849  -7.7237
    -7.5915  -7.4641  -7.4145  -7.3578  -7.1588  -7.1173  -6.9683  -6.8777
    -6.8507  -6.7758  -6.7074  -6.6468  -6.5702  -6.4556  -6.3626  -6.2751
    -6.1565  -6.0390  -5.9541  -5.8662  -5.7988  -5.5999  -4.2665  -4.2398
    -4.1766  -4.0106  -3.7089  -3.6550  -3.4335  -3.3800  -3.2128  -3.1842
    -2.7956  -2.7546  -2.6847  -2.6575  -0.9096  -0.4045  -0.3717   0.1557
     0.2545   0.4631   0.6126   0.6768   0.8613   0.9988   1.1029   1.1798
     1.3110   1.3576   1.5315   1.5401

          k =-0.3333 0.3849 0.0000 (109606 PWs)   bands (ev):

   -77.9609 -77.9448 -74.8882 -74.8717 -49.3690 -49.3599 -49.3598 -49.3540
   -49.3434 -49.3432 -46.3479 -46.3304 -46.3128 -46.3125 -46.2967 -46.2964
   -18.2196 -18.1519 -17.8892 -17.8475 -17.6231 -17.6024 -17.5670 -17.5088
   -17.4577 -17.4120 -17.3768 -17.3393 -10.0599  -9.7961  -9.6210  -9.3758
    -9.3082  -9.1977  -9.0706  -8.9971  -8.9052  -8.8263  -8.6635  -8.5613
    -8.4994  -8.3788  -8.3240  -8.2392  -7.9237  -7.8613  -7.8189  -7.7087
    -7.5920  -7.4499  -7.4048  -7.3619  -7.2151  -7.0814  -6.9536  -6.8780
    -6.8304  -6.7749  -6.7142  -6.7005  -6.5579  -6.4277  -6.3689  -6.2767
    -6.1544  -6.0423  -5.9572  -5.8647  -5.7976  -5.6001  -4.2683  -4.2380
    -4.1768  -4.0095  -3.7091  -3.6561  -3.4338  -3.3792  -3.2133  -3.1844
    -2.7957  -2.7544  -2.6857  -2.6561  -0.9090  -0.4311  -0.3431   0.1487
     0.2399   0.5010   0.6255   0.6648   0.8836   0.9408   1.1219   1.2127
     1.2939   1.3330   1.4589   1.5606

          k = 0.5000 0.0962 0.0000 (109606 PWs)   bands (ev):

   -77.9609 -77.9448 -74.8882 -74.8717 -49.3690 -49.3599 -49.3598 -49.3540
   -49.3434 -49.3432 -46.3479 -46.3304 -46.3128 -46.3125 -46.2967 -46.2964
   -18.2196 -18.1519 -17.8892 -17.8475 -17.6231 -17.6024 -17.5670 -17.5088
   -17.4577 -17.4120 -17.3768 -17.3393 -10.0599  -9.7961  -9.6210  -9.3758
    -9.3082  -9.1977  -9.0706  -8.9971  -8.9052  -8.8263  -8.6635  -8.5613
    -8.4994  -8.3788  -8.3240  -8.2392  -7.9237  -7.8613  -7.8189  -7.7087
    -7.5920  -7.4499  -7.4048  -7.3619  -7.2151  -7.0814  -6.9536  -6.8780
    -6.8304  -6.7749  -6.7142  -6.7005  -6.5579  -6.4277  -6.3689  -6.2767
    -6.1544  -6.0423  -5.9572  -5.8647  -5.7976  -5.6001  -4.2683  -4.2380
    -4.1768  -4.0095  -3.7091  -3.6561  -3.4338  -3.3792  -3.2133  -3.1844
    -2.7957  -2.7544  -2.6857  -2.6561  -0.9090  -0.4311  -0.3431   0.1487
     0.2399   0.5010   0.6255   0.6648   0.8836   0.9408   1.1219   1.2127
     1.2939   1.3330   1.4589   1.5606

          k =-0.3333-0.3849 0.0000 (109606 PWs)   bands (ev):

   -77.9609 -77.9448 -74.8882 -74.8717 -49.3690 -49.3599 -49.3598 -49.3540
   -49.3434 -49.3432 -46.3479 -46.3304 -46.3128 -46.3125 -46.2967 -46.2964
   -18.2198 -18.1515 -17.8920 -17.8444 -17.6227 -17.6054 -17.5647 -17.5085
   -17.4590 -17.4097 -17.3790 -17.3386 -10.0604  -9.7857  -9.6441  -9.3406
    -9.3143  -9.2124  -9.0929  -8.9563  -8.9047  -8.8348  -8.6920  -8.5742
    -8.4839  -8.3593  -8.3088  -8.2483  -7.9688  -7.8418  -7.7849  -7.7237
    -7.5915  -7.4641  -7.4145  -7.3578  -7.1588  -7.1173  -6.9683  -6.8777
    -6.8507  -6.7758  -6.7074  -6.6468  -6.5702  -6.4556  -6.3626  -6.2751
    -6.1565  -6.0390  -5.9541  -5.8662  -5.7988  -5.5999  -4.2665  -4.2398
    -4.1766  -4.0106  -3.7089  -3.6550  -3.4335  -3.3800  -3.2128  -3.1842
    -2.7956  -2.7546  -2.6847  -2.6575  -0.9096  -0.4045  -0.3717   0.1557
     0.2545   0.4631   0.6126   0.6768   0.8613   0.9988   1.1029   1.1798
     1.3110   1.3576   1.5315   1.5401

          k = 0.5000-0.0962 0.0000 (109606 PWs)   bands (ev):

   -77.9609 -77.9448 -74.8882 -74.8717 -49.3690 -49.3599 -49.3598 -49.3540
   -49.3434 -49.3432 -46.3479 -46.3304 -46.3128 -46.3125 -46.2967 -46.2964
   -18.2198 -18.1515 -17.8920 -17.8444 -17.6227 -17.6054 -17.5647 -17.5085
   -17.4590 -17.4097 -17.3790 -17.3386 -10.0604  -9.7857  -9.6441  -9.3406
    -9.3143  -9.2124  -9.0929  -8.9563  -8.9047  -8.8348  -8.6920  -8.5742
    -8.4839  -8.3593  -8.3088  -8.2483  -7.9688  -7.8418  -7.7849  -7.7237
    -7.5915  -7.4641  -7.4145  -7.3578  -7.1588  -7.1173  -6.9683  -6.8777
    -6.8507  -6.7758  -6.7074  -6.6468  -6.5702  -6.4556  -6.3626  -6.2751
    -6.1565  -6.0390  -5.9541  -5.8662  -5.7988  -5.5999  -4.2665  -4.2398
    -4.1766  -4.0106  -3.7089  -3.6550  -3.4335  -3.3800  -3.2128  -3.1842
    -2.7956  -2.7546  -2.6847  -2.6575  -0.9096  -0.4045  -0.3717   0.1557
     0.2545   0.4631   0.6126   0.6768   0.8613   0.9988   1.1029   1.1798
     1.3110   1.3576   1.5315   1.5401

     highest occupied, lowest unoccupied level (ev):    -5.5683   -4.3188

!    total energy              =   -5464.16033552 Ry
     total all-electron energy =     -5464.160336 Ry
     estimated scf accuracy    <          4.5E-10 Ry

     The total energy is the sum of the following terms:
     one-electron contribution =   -9555.15426242 Ry
     hartree contribution      =    4751.93053707 Ry
     xc contribution           =    -163.56423527 Ry
     ewald contribution        =    3972.52029640 Ry
     one-center paw contrib.   =   -4469.89267130 Ry

     total magnetization       =    -0.00 Bohr mag/cell
     absolute magnetization    =    14.53 Bohr mag/cell

     convergence has been achieved in  19 iterations

     negative rho (up, down):  3.275E-02 3.274E-02

     Forces acting on atoms (cartesian axes, Ry/au):

     atom    1 type  1   force =    -0.00000190   -0.00000625   -0.00011173
     atom    2 type  1   force =     0.00000230    0.00000127   -0.00006758
     atom    3 type  2   force =     0.00126394   -0.00084251    0.00169151
     atom    4 type  2   force =    -0.00136134   -0.00067221    0.00169142
     atom    5 type  2   force =     0.00009804    0.00151638    0.00169146
     atom    6 type  2   force =    -0.00058037    0.00022243   -0.00244792
     atom    7 type  2   force =     0.00048258    0.00039240   -0.00244847
     atom    8 type  2   force =     0.00009789   -0.00061298   -0.00244807
     atom    9 type  3   force =    -0.00000114    0.00000362    0.00006734
     atom   10 type  3   force =    -0.00000407   -0.00000236    0.00011389
     atom   11 type  2   force =     0.00058135   -0.00021564    0.00244832
     atom   12 type  2   force =    -0.00047686   -0.00039403    0.00244656
     atom   13 type  2   force =    -0.00010239    0.00061010    0.00244652
     atom   14 type  2   force =    -0.00126242    0.00084902   -0.00169104
     atom   15 type  2   force =     0.00136744    0.00067033   -0.00169141
     atom   16 type  2   force =    -0.00010304   -0.00151960   -0.00169080

     Total force =     0.008326     Total SCF correction =     0.000029


     Computing stress (Cartesian axis) and pressure


     negative rho (up, down):  3.275E-02 3.274E-02
          total   stress  (Ry/bohr**3)                   (kbar)     P=        0.97
   0.00000316   0.00000000  -0.00000000            0.46        0.00       -0.00
   0.00000000   0.00000316   0.00000000            0.00        0.46        0.00
  -0.00000000   0.00000000   0.00001343           -0.00        0.00        1.98


     BFGS Geometry Optimization
     Energy error            =      0.0E+00 Ry
     Gradient error          =      2.4E-03 Ry/Bohr

     number of scf cycles    =   1
     number of bfgs steps    =   0

     energy             new  =   -5464.1603355184 Ry

     new trust radius        =       0.0025262394 bohr
     new conv_thr            =       0.0000000010 Ry


ATOMIC_POSITIONS (angstrom)
Cr               2.2923159448        3.9704307137       17.0451280237
Cr              -1.1461728411        5.9556483903       17.0451518501
I                3.2770981856        1.9847612830       15.4948596683
I                0.0802834481        4.1104254032       15.4948596195
I               -3.3574124671        5.8161162250       15.4948596408
I                1.3078975497        1.9853266056       18.5951133071
I                1.0653730794        5.8155204517       18.5951130136
I               -2.3733017509        4.1104559650       18.5951132247
Cr1              5.7308073578        1.9852222271       10.4627776169
Cr1              2.2923147983        3.9704327634       10.4628027098
I                6.7152279896       -0.0001207025        8.9128149967
I                3.5192425078        2.1253589008        8.9128140641
I                0.0809724768        3.8304229332        8.9128140444
I                4.7460276339        0.0004444729       12.0130686581
I                4.5043323357        3.8304538137       12.0130684651
I                1.0650829315        2.1247624941       12.0130687870



     Writing config-only to output data dir ./lt_afm_qe/lt_afm_qe.save/ :
     XML data file
     NEW-OLD atomic charge density approx. for the potential

     negative rho (up, down):  3.276E-02 3.274E-02
     Generating pointlists ...

     total cpu time spent up to now is     1738.1 secs

     Self-consistent Calculation

     iteration #  1     ecut=    90.00 Ry     beta= 0.50
     Davidson diagonalization with overlap
     ethr =  1.00E-06,  avg # of iterations =  2.0

     Threshold (ethr) on eigenvalues was too large:
     Diagonalizing with lowered threshold

     Davidson diagonalization with overlap
     ethr =  1.05E-09,  avg # of iterations =  4.0

     negative rho (up, down):  3.278E-02 3.277E-02

     total cpu time spent up to now is     1902.2 secs

     total energy              =   -5464.16039835 Ry
     estimated scf accuracy    <       0.00000173 Ry

     total magnetization       =    -0.00 Bohr mag/cell
     absolute magnetization    =    14.53 Bohr mag/cell

     iteration #  2     ecut=    90.00 Ry     beta= 0.50
     Davidson diagonalization with overlap
     ethr =  1.23E-09,  avg # of iterations =  2.7

     negative rho (up, down):  3.278E-02 3.276E-02

     total cpu time spent up to now is     1974.8 secs

     total energy              =   -5464.16039845 Ry
     estimated scf accuracy    <       0.00001075 Ry

     total magnetization       =    -0.00 Bohr mag/cell
     absolute magnetization    =    14.53 Bohr mag/cell

     iteration #  3     ecut=    90.00 Ry     beta= 0.50
     Davidson diagonalization with overlap
     ethr =  1.23E-09,  avg # of iterations =  2.1

     negative rho (up, down):  3.276E-02 3.275E-02

     total cpu time spent up to now is     2042.6 secs

     total energy              =   -5464.16040115 Ry
     estimated scf accuracy    <       0.00000027 Ry

     total magnetization       =     0.00 Bohr mag/cell
     absolute magnetization    =    14.53 Bohr mag/cell

     iteration #  4     ecut=    90.00 Ry     beta= 0.50
     Davidson diagonalization with overlap
     ethr =  1.92E-10,  avg # of iterations =  3.1

     negative rho (up, down):  3.276E-02 3.275E-02

     total cpu time spent up to now is     2108.8 secs

     total energy              =   -5464.16040144 Ry
     estimated scf accuracy    <       0.00000027 Ry

     total magnetization       =     0.00 Bohr mag/cell
     absolute magnetization    =    14.53 Bohr mag/cell

     iteration #  5     ecut=    90.00 Ry     beta= 0.50
     Davidson diagonalization with overlap
     ethr =  1.92E-10,  avg # of iterations =  1.6

     negative rho (up, down):  3.276E-02 3.274E-02

     total cpu time spent up to now is     2168.1 secs

     total energy              =   -5464.16040161 Ry
     estimated scf accuracy    <       0.00000004 Ry

     total magnetization       =     0.00 Bohr mag/cell
     absolute magnetization    =    14.53 Bohr mag/cell

     iteration #  6     ecut=    90.00 Ry     beta= 0.50
     Davidson diagonalization with overlap
     ethr =  2.68E-11,  avg # of iterations =  2.2

     negative rho (up, down):  3.276E-02 3.274E-02

     total cpu time spent up to now is     2232.2 secs

     total energy              =   -5464.16040164 Ry
     estimated scf accuracy    <       0.00000002 Ry

     total magnetization       =     0.00 Bohr mag/cell
     absolute magnetization    =    14.53 Bohr mag/cell

     iteration #  7     ecut=    90.00 Ry     beta= 0.50
     Davidson diagonalization with overlap
     ethr =  1.56E-11,  avg # of iterations =  2.0

     negative rho (up, down):  3.276E-02 3.274E-02

     total cpu time spent up to now is     2293.5 secs

     total energy              =   -5464.16040165 Ry
     estimated scf accuracy    <          1.3E-09 Ry

     total magnetization       =    -0.00 Bohr mag/cell
     absolute magnetization    =    14.53 Bohr mag/cell

     iteration #  8     ecut=    90.00 Ry     beta= 0.50
     Davidson diagonalization with overlap
     ethr =  9.51E-13,  avg # of iterations =  4.0

     negative rho (up, down):  3.276E-02 3.274E-02

     Magnetic moment per site  (integrated on atomic sphere of radius R)
     atom   1 (R=0.162)  charge= 12.4165  magn=  2.9494
     atom   2 (R=0.162)  charge= 12.4179  magn=  2.9495
     atom   3 (R=0.162)  charge=  4.0415  magn= -0.0564
     atom   4 (R=0.162)  charge=  4.0415  magn= -0.0564
     atom   5 (R=0.162)  charge=  4.0415  magn= -0.0564
     atom   6 (R=0.162)  charge=  4.0454  magn= -0.0582
     atom   7 (R=0.162)  charge=  4.0454  magn= -0.0582
     atom   8 (R=0.162)  charge=  4.0453  magn= -0.0582
     atom   9 (R=0.162)  charge= 12.4180  magn= -2.9496
     atom  10 (R=0.162)  charge= 12.4166  magn= -2.9493
     atom  11 (R=0.162)  charge=  4.0453  magn=  0.0582
     atom  12 (R=0.162)  charge=  4.0453  magn=  0.0582
     atom  13 (R=0.162)  charge=  4.0453  magn=  0.0582
     atom  14 (R=0.162)  charge=  4.0415  magn=  0.0564
     atom  15 (R=0.162)  charge=  4.0415  magn=  0.0564
     atom  16 (R=0.162)  charge=  4.0415  magn=  0.0564

     total cpu time spent up to now is     2389.5 secs

     End of self-consistent calculation

 ------ SPIN UP ------------


          k = 0.0000 0.0000 0.0000 (109591 PWs)   bands (ev):

   -77.9609 -77.9444 -74.8885 -74.8720 -49.3689 -49.3600 -49.3600 -49.3535
   -49.3430 -49.3430 -46.3478 -46.3303 -46.3133 -46.3133 -46.2971 -46.2971
   -18.5852 -18.4900 -17.8052 -17.6713 -17.4912 -17.4912 -17.4479 -17.4479
   -17.3478 -17.3478 -17.3057 -17.3057 -10.3050  -9.9801  -9.8540  -9.2995
    -9.1758  -9.1758  -9.1085  -9.1085  -8.9208  -8.9208  -8.8221  -8.7847
    -8.7847  -8.7112  -8.3071  -8.3071  -8.1618  -7.9159  -7.8395  -7.8395
    -7.6779  -7.6779  -7.3478  -7.3478  -7.2750  -7.2466  -6.9554  -6.7648
    -6.7648  -6.6002  -6.3727  -6.3727  -6.3024  -6.2576  -6.2576  -6.0528
    -6.0528  -6.0526  -5.8066  -5.8066  -5.5994  -5.5994  -4.3179  -4.3179
    -3.8770  -3.8770  -3.5780  -3.5682  -3.5682  -3.4788  -3.2309  -3.2309
    -2.8338  -2.8338  -2.5294  -2.5294  -0.9411  -0.5077  -0.2805  -0.0258
     0.1031   0.2224   0.8955   1.0057   1.0057   1.1095   1.1095   1.2733
     1.8763   1.8763   1.8940   2.1282

          k = 0.0000 0.1925 0.0000 (109722 PWs)   bands (ev):

   -77.9609 -77.9444 -74.8885 -74.8720 -49.3689 -49.3600 -49.3599 -49.3535
   -49.3430 -49.3430 -46.3478 -46.3303 -46.3133 -46.3132 -46.2972 -46.2971
   -18.5256 -18.4329 -17.7705 -17.6415 -17.5734 -17.5256 -17.5191 -17.4698
   -17.3625 -17.3571 -17.3143 -17.3122 -10.2675  -9.9648  -9.8118  -9.3354
    -9.2319  -9.2157  -9.1336  -9.0476  -8.9758  -8.9400  -8.8199  -8.7528
    -8.6168  -8.3970  -8.3390  -8.3030  -7.9106  -7.9003  -7.8532  -7.7300
    -7.6730  -7.6017  -7.3869  -7.3255  -7.2525  -7.1804  -6.9552  -6.9252
    -6.7118  -6.6396  -6.4919  -6.4491  -6.4212  -6.3140  -6.2580  -6.1847
    -6.0510  -6.0450  -6.0114  -5.9106  -5.6709  -5.5758  -4.3122  -4.2915
    -4.0597  -3.9259  -3.6361  -3.5012  -3.4919  -3.3775  -3.2596  -3.2589
    -2.8266  -2.8186  -2.6730  -2.5766  -0.8312  -0.2060  -0.0653   0.2883
     0.3968   0.5299   0.6272   0.7397   0.8334   1.0332   1.3710   1.5149
     1.6494   1.7633   1.8416   1.8953

          k = 0.0000 0.3849 0.0000 (109616 PWs)   bands (ev):

   -77.9609 -77.9444 -74.8885 -74.8720 -49.3689 -49.3600 -49.3599 -49.3535
   -49.3431 -49.3430 -46.3478 -46.3304 -46.3133 -46.3132 -46.2973 -46.2971
   -18.3615 -18.2788 -17.7763 -17.7203 -17.6751 -17.5696 -17.5609 -17.5083
   -17.4228 -17.3801 -17.3564 -17.3297 -10.1989  -9.9249  -9.6835  -9.3463
    -9.3171  -9.2109  -9.1086  -9.0278  -8.9374  -8.7814  -8.6864  -8.5945
    -8.4387  -8.3373  -8.2936  -8.1902  -7.9834  -7.8386  -7.7933  -7.6151
    -7.5801  -7.4758  -7.4464  -7.2346  -7.1992  -7.1138  -7.0552  -7.0349
    -6.9435  -6.8884  -6.7449  -6.5387  -6.4784  -6.4145  -6.3126  -6.1966
    -6.0773  -6.0510  -6.0284  -5.9559  -5.7674  -5.5721  -4.2917  -4.2358
    -4.1789  -4.0703  -3.6821  -3.6265  -3.4259  -3.2772  -3.2701  -3.2024
    -2.8248  -2.7978  -2.7361  -2.6636  -0.8390  -0.2986   0.0455   0.4027
     0.5730   0.6966   0.8256   0.9339   1.0267   1.1058   1.1746   1.2475
     1.3479   1.4978   1.5478   1.6363

          k = 0.0000-0.5774 0.0000 (109602 PWs)   bands (ev):

   -77.9609 -77.9444 -74.8885 -74.8720 -49.3689 -49.3600 -49.3599 -49.3535
   -49.3431 -49.3430 -46.3478 -46.3304 -46.3133 -46.3131 -46.2973 -46.2971
   -18.1931 -18.1535 -17.9308 -17.8945 -17.5883 -17.5790 -17.5336 -17.5255
   -17.4565 -17.4222 -17.3912 -17.3394 -10.1845  -9.9163  -9.5530  -9.3655
    -9.3179  -9.1422  -9.0750  -8.9021  -8.8351  -8.7308  -8.6380  -8.5344
    -8.4721  -8.3466  -8.2319  -8.1365  -8.0626  -7.9276  -7.7804  -7.7146
    -7.7065  -7.5517  -7.5386  -7.4278  -7.1250  -7.0735  -7.0358  -6.9071
    -6.8362  -6.7638  -6.7107  -6.6026  -6.5432  -6.4351  -6.4194  -6.2824
    -6.0725  -6.0567  -5.9491  -5.8728  -5.8397  -5.5885  -4.2560  -4.2409
    -4.1944  -4.0927  -3.7285  -3.7197  -3.4504  -3.2556  -3.2469  -3.1676
    -2.8383  -2.7960  -2.6911  -2.6545  -1.0481  -0.5214   0.0803   0.1286
     0.3903   0.7378   0.8336   0.9444   0.9686   1.1564   1.2756   1.2984
     1.4050   1.4715   1.5784   1.6157

          k = 0.1667 0.2887 0.0000 (109615 PWs)   bands (ev):

   -77.9609 -77.9444 -74.8885 -74.8720 -49.3689 -49.3600 -49.3599 -49.3535
   -49.3430 -49.3430 -46.3478 -46.3304 -46.3133 -46.3132 -46.2972 -46.2971
   -18.4129 -18.3260 -17.7075 -17.6951 -17.6578 -17.5890 -17.5630 -17.5213
   -17.3959 -17.3775 -17.3376 -17.3227 -10.1781  -9.8964  -9.7506  -9.3863
    -9.2840  -9.2723  -9.1253  -9.0261  -9.0007  -8.8362  -8.7168  -8.5654
    -8.4863  -8.4416  -8.2410  -8.1160  -7.9951  -7.9075  -7.7611  -7.6617
    -7.6204  -7.4385  -7.3899  -7.2730  -7.2208  -7.1344  -7.0333  -6.9931
    -6.8669  -6.8235  -6.6528  -6.5177  -6.4875  -6.4235  -6.3152  -6.1806
    -6.1192  -6.0960  -5.9819  -5.9593  -5.7370  -5.5688  -4.3045  -4.2452
    -4.2161  -3.9626  -3.6265  -3.6108  -3.3969  -3.3561  -3.2513  -3.2351
    -2.8506  -2.7636  -2.7362  -2.6330  -0.7400  -0.1674  -0.1183   0.3244
     0.4791   0.5491   0.6975   0.8564   1.0564   1.1376   1.3071   1.3740
     1.4515   1.5730   1.6101   1.6550

          k = 0.1667 0.4811 0.0000 (109606 PWs)   bands (ev):

   -77.9609 -77.9444 -74.8885 -74.8720 -49.3689 -49.3600 -49.3599 -49.3535
   -49.3431 -49.3429 -46.3478 -46.3304 -46.3134 -46.3131 -46.2973 -46.2971
   -18.2212 -18.1540 -17.8907 -17.8493 -17.6245 -17.6028 -17.5686 -17.5091
   -17.4583 -17.4128 -17.3777 -17.3405 -10.0619  -9.7978  -9.6226  -9.3774
    -9.3094  -9.1994  -9.0722  -8.9987  -8.9064  -8.8287  -8.6651  -8.5632
    -8.5015  -8.3803  -8.3257  -8.2407  -7.9248  -7.8627  -7.8199  -7.7106
    -7.5924  -7.4516  -7.4056  -7.3625  -7.2151  -7.0830  -6.9539  -6.8791
    -6.8311  -6.7756  -6.7150  -6.7011  -6.5575  -6.4275  -6.3690  -6.2765
    -6.1549  -6.0429  -5.9567  -5.8646  -5.7978  -5.6002  -4.2676  -4.2369
    -4.1752  -4.0082  -3.7097  -3.6568  -3.4348  -3.3801  -3.2140  -3.1851
    -2.7952  -2.7541  -2.6849  -2.6551  -0.9086  -0.4306  -0.3432   0.1483
     0.2403   0.5012   0.6251   0.6635   0.8830   0.9412   1.1220   1.2124
     1.2935   1.3328   1.4586   1.5600

          k = 0.3333 0.5774 0.0000 (109542 PWs)   bands (ev):

   -77.9609 -77.9444 -74.8885 -74.8720 -49.3689 -49.3600 -49.3598 -49.3535
   -49.3431 -49.3429 -46.3478 -46.3304 -46.3134 -46.3131 -46.2973 -46.2970
   -18.0543 -18.0242 -18.0128 -17.9791 -17.6666 -17.6305 -17.5269 -17.5024
   -17.4720 -17.4341 -17.3868 -17.3563  -9.7745  -9.7611  -9.5088  -9.4721
    -9.2736  -9.1760  -9.1733  -8.9514  -8.9192  -8.9147  -8.7293  -8.6673
    -8.5650  -8.3804  -8.3650  -8.3345  -8.2714  -7.8152  -7.6898  -7.6505
    -7.3730  -7.3326  -7.2817  -7.2593  -7.2566  -7.1151  -7.0863  -6.9929
    -6.7104  -6.7086  -6.6828  -6.6158  -6.5941  -6.5179  -6.3881  -6.2799
    -6.2780  -5.9780  -5.9026  -5.8953  -5.6917  -5.6787  -4.2773  -4.1845
    -4.1656  -3.9251  -3.6638  -3.6614  -3.4946  -3.4374  -3.1997  -3.1970
    -2.7482  -2.7038  -2.6932  -2.5848  -0.8307  -0.8030  -0.2817  -0.2634
     0.1811   0.3011   0.3108   0.5458   0.5513   0.5949   0.9010   0.9436
     1.1335   1.3336   1.4102   1.4188

          k =-0.1667 0.0962 0.0000 (109722 PWs)   bands (ev):

   -77.9609 -77.9444 -74.8885 -74.8720 -49.3689 -49.3600 -49.3599 -49.3535
   -49.3430 -49.3430 -46.3478 -46.3303 -46.3133 -46.3132 -46.2972 -46.2971
   -18.5256 -18.4329 -17.7705 -17.6415 -17.5734 -17.5256 -17.5191 -17.4698
   -17.3625 -17.3571 -17.3143 -17.3122 -10.2675  -9.9648  -9.8118  -9.3354
    -9.2319  -9.2157  -9.1336  -9.0476  -8.9758  -8.9400  -8.8199  -8.7528
    -8.6168  -8.3970  -8.3390  -8.3030  -7.9106  -7.9003  -7.8532  -7.7300
    -7.6730  -7.6017  -7.3869  -7.3255  -7.2525  -7.1804  -6.9552  -6.9252
    -6.7118  -6.6396  -6.4919  -6.4491  -6.4212  -6.3140  -6.2580  -6.1847
    -6.0510  -6.0450  -6.0114  -5.9106  -5.6709  -5.5758  -4.3122  -4.2915
    -4.0596  -3.9259  -3.6361  -3.5012  -3.4919  -3.3775  -3.2596  -3.2589
    -2.8266  -2.8186  -2.6730  -2.5766  -0.8312  -0.2060  -0.0653   0.2883
     0.3968   0.5299   0.6272   0.7397   0.8334   1.0332   1.3710   1.5149
     1.6494   1.7633   1.8416   1.8953

          k = 0.1667 0.0962 0.0000 (109722 PWs)   bands (ev):

   -77.9609 -77.9444 -74.8885 -74.8720 -49.3689 -49.3600 -49.3599 -49.3535
   -49.3430 -49.3430 -46.3478 -46.3303 -46.3133 -46.3132 -46.2972 -46.2971
   -18.5256 -18.4329 -17.7705 -17.6415 -17.5734 -17.5256 -17.5191 -17.4698
   -17.3625 -17.3571 -17.3143 -17.3122 -10.2675  -9.9648  -9.8118  -9.3354
    -9.2319  -9.2157  -9.1336  -9.0476  -8.9758  -8.9399  -8.8199  -8.7528
    -8.6168  -8.3970  -8.3390  -8.3030  -7.9106  -7.9003  -7.8532  -7.7300
    -7.6730  -7.6017  -7.3869  -7.3255  -7.2525  -7.1804  -6.9552  -6.9252
    -6.7118  -6.6396  -6.4919  -6.4491  -6.4212  -6.3140  -6.2580  -6.1847
    -6.0510  -6.0450  -6.0114  -5.9106  -5.6709  -5.5758  -4.3122  -4.2915
    -4.0596  -3.9259  -3.6361  -3.5012  -3.4919  -3.3775  -3.2596  -3.2589
    -2.8266  -2.8186  -2.6730  -2.5766  -0.8312  -0.2060  -0.0653   0.2883
     0.3968   0.5299   0.6272   0.7397   0.8334   1.0332   1.3710   1.5149
     1.6494   1.7633   1.8416   1.8953

          k =-0.3333 0.1925 0.0000 (109616 PWs)   bands (ev):

   -77.9609 -77.9444 -74.8885 -74.8720 -49.3689 -49.3600 -49.3599 -49.3535
   -49.3431 -49.3430 -46.3478 -46.3304 -46.3133 -46.3132 -46.2973 -46.2971
   -18.3615 -18.2788 -17.7763 -17.7203 -17.6751 -17.5696 -17.5609 -17.5083
   -17.4228 -17.3801 -17.3564 -17.3297 -10.1989  -9.9249  -9.6835  -9.3463
    -9.3171  -9.2109  -9.1086  -9.0278  -8.9374  -8.7814  -8.6864  -8.5945
    -8.4387  -8.3373  -8.2936  -8.1902  -7.9834  -7.8386  -7.7933  -7.6151
    -7.5801  -7.4758  -7.4464  -7.2346  -7.1992  -7.1138  -7.0552  -7.0349
    -6.9435  -6.8884  -6.7449  -6.5387  -6.4784  -6.4145  -6.3126  -6.1966
    -6.0773  -6.0510  -6.0284  -5.9559  -5.7674  -5.5721  -4.2917  -4.2358
    -4.1789  -4.0703  -3.6821  -3.6265  -3.4259  -3.2772  -3.2701  -3.2024
    -2.8248  -2.7978  -2.7361  -2.6636  -0.8390  -0.2986   0.0455   0.4027
     0.5730   0.6966   0.8256   0.9339   1.0267   1.1058   1.1746   1.2475
     1.3479   1.4978   1.5478   1.6363

          k = 0.3333 0.1925 0.0000 (109616 PWs)   bands (ev):

   -77.9609 -77.9444 -74.8885 -74.8720 -49.3689 -49.3600 -49.3599 -49.3535
   -49.3431 -49.3430 -46.3478 -46.3304 -46.3133 -46.3132 -46.2973 -46.2971
   -18.3615 -18.2788 -17.7763 -17.7203 -17.6751 -17.5696 -17.5609 -17.5083
   -17.4228 -17.3801 -17.3564 -17.3297 -10.1989  -9.9249  -9.6835  -9.3463
    -9.3171  -9.2109  -9.1086  -9.0278  -8.9374  -8.7814  -8.6864  -8.5945
    -8.4387  -8.3373  -8.2936  -8.1902  -7.9834  -7.8386  -7.7933  -7.6151
    -7.5801  -7.4758  -7.4464  -7.2346  -7.1992  -7.1138  -7.0552  -7.0349
[...]
    -2.7548  -2.7022  -2.6884  -2.5800  -0.8452  -0.8165  -0.2977  -0.2800
     0.1659   0.2693   0.3039   0.5311   0.5483   0.5890   0.9015   0.9346
     1.1307   1.3364   1.4046   1.4081

          k =-0.1667 0.0962 0.0000 (109722 PWs)   bands (ev):

   -77.9669 -77.9478 -74.8981 -74.8826 -49.3733 -49.3672 -49.3672 -49.3555
   -49.3477 -49.3476 -46.3511 -46.3352 -46.3265 -46.3264 -46.3113 -46.3112
   -18.5474 -18.4599 -17.7678 -17.6418 -17.5893 -17.5442 -17.5355 -17.4885
   -17.3778 -17.3744 -17.3318 -17.3307 -10.2800  -9.9759  -9.8225  -9.3612
    -9.2543  -9.2298  -9.1613  -9.0624  -8.9927  -8.9683  -8.8457  -8.7780
    -8.6153  -8.4159  -8.3557  -8.3151  -7.9463  -7.9212  -7.8696  -7.7504
    -7.7010  -7.6367  -7.3970  -7.3325  -7.2719  -7.1832  -6.9657  -6.9433
    -6.7198  -6.6538  -6.5006  -6.4539  -6.4313  -6.3200  -6.2612  -6.1860
    -6.0510  -6.0430  -6.0110  -5.9204  -5.6797  -5.5891  -4.3118  -4.2887
    -4.0586  -3.9232  -3.6565  -3.5115  -3.5066  -3.3911  -3.2732  -3.2714
    -2.8301  -2.8204  -2.6736  -2.5755  -0.7870  -0.1971  -0.0461   0.2602
     0.3876   0.5067   0.6249   0.7440   0.8438   1.0511   1.3722   1.5034
     1.6467   1.7425   1.8440   1.8932

          k = 0.1667 0.0962 0.0000 (109722 PWs)   bands (ev):

   -77.9669 -77.9478 -74.8981 -74.8826 -49.3733 -49.3672 -49.3672 -49.3555
   -49.3477 -49.3476 -46.3511 -46.3352 -46.3265 -46.3264 -46.3113 -46.3112
   -18.5474 -18.4599 -17.7678 -17.6418 -17.5893 -17.5442 -17.5355 -17.4885
   -17.3778 -17.3745 -17.3317 -17.3307 -10.2800  -9.9759  -9.8225  -9.3612
    -9.2543  -9.2298  -9.1613  -9.0624  -8.9927  -8.9683  -8.8457  -8.7780
    -8.6153  -8.4159  -8.3557  -8.3151  -7.9463  -7.9212  -7.8696  -7.7504
    -7.7010  -7.6367  -7.3970  -7.3324  -7.2719  -7.1832  -6.9657  -6.9433
    -6.7198  -6.6538  -6.5006  -6.4539  -6.4312  -6.3200  -6.2612  -6.1860
    -6.0510  -6.0430  -6.0110  -5.9204  -5.6797  -5.5891  -4.3118  -4.2887
    -4.0586  -3.9232  -3.6565  -3.5115  -3.5066  -3.3911  -3.2732  -3.2714
    -2.8301  -2.8204  -2.6737  -2.5755  -0.7870  -0.1971  -0.0461   0.2602
     0.3876   0.5067   0.6249   0.7440   0.8438   1.0511   1.3722   1.5034
     1.6467   1.7425   1.8440   1.8932

          k =-0.3333 0.1925 0.0000 (109616 PWs)   bands (ev):

   -77.9669 -77.9478 -74.8981 -74.8826 -49.3733 -49.3672 -49.3671 -49.3555
   -49.3477 -49.3476 -46.3511 -46.3353 -46.3265 -46.3263 -46.3114 -46.3112
   -18.3819 -18.3040 -17.7951 -17.7410 -17.6755 -17.5855 -17.5644 -17.5294
   -17.4332 -17.3969 -17.3684 -17.3483 -10.2205  -9.9448  -9.6980  -9.3659
    -9.3319  -9.2342  -9.1244  -9.0476  -8.9622  -8.7996  -8.7070  -8.6169
    -8.4563  -8.3609  -8.3094  -8.2151  -8.0015  -7.8493  -7.8117  -7.6280
    -7.5884  -7.4904  -7.4601  -7.2432  -7.2162  -7.1468  -7.1031  -7.0393
    -6.9537  -6.8970  -6.7441  -6.5462  -6.4848  -6.4121  -6.3169  -6.1864
    -6.0898  -6.0559  -6.0300  -5.9590  -5.7729  -5.5816  -4.2916  -4.2290
    -4.1738  -4.0683  -3.6982  -3.6353  -3.4397  -3.2960  -3.2852  -3.2143
    -2.8288  -2.8012  -2.7318  -2.6632  -0.8291  -0.2908   0.0533   0.4100
     0.5736   0.7048   0.8246   0.9279   1.0179   1.0840   1.1676   1.2380
     1.3257   1.4765   1.5262   1.6198

          k = 0.3333 0.1925 0.0000 (109616 PWs)   bands (ev):

   -77.9669 -77.9478 -74.8981 -74.8826 -49.3733 -49.3672 -49.3671 -49.3555
   -49.3477 -49.3476 -46.3511 -46.3353 -46.3265 -46.3263 -46.3114 -46.3112
   -18.3819 -18.3040 -17.7951 -17.7410 -17.6755 -17.5855 -17.5644 -17.5294
   -17.4332 -17.3969 -17.3684 -17.3482 -10.2205  -9.9448  -9.6980  -9.3659
    -9.3319  -9.2342  -9.1244  -9.0476  -8.9622  -8.7996  -8.7070  -8.6169
    -8.4563  -8.3609  -8.3094  -8.2151  -8.0015  -7.8493  -7.8117  -7.6279
    -7.5884  -7.4904  -7.4601  -7.2432  -7.2162  -7.1468  -7.1031  -7.0393
    -6.9537  -6.8969  -6.7441  -6.5462  -6.4847  -6.4121  -6.3169  -6.1864
    -6.0898  -6.0559  -6.0300  -5.9590  -5.7729  -5.5816  -4.2916  -4.2290
    -4.1738  -4.0683  -3.6982  -3.6353  -3.4397  -3.2960  -3.2852  -3.2144
    -2.8288  -2.8012  -2.7319  -2.6632  -0.8291  -0.2908   0.0533   0.4100
     0.5736   0.7048   0.8246   0.9279   1.0179   1.0840   1.1676   1.2380
     1.3257   1.4765   1.5262   1.6198

          k = 0.5000-0.2887 0.0000 (109602 PWs)   bands (ev):

   -77.9669 -77.9478 -74.8981 -74.8826 -49.3733 -49.3672 -49.3671 -49.3555
   -49.3477 -49.3476 -46.3511 -46.3353 -46.3265 -46.3263 -46.3114 -46.3112
   -18.2109 -18.1755 -17.9538 -17.9188 -17.6065 -17.5799 -17.5480 -17.5368
   -17.4628 -17.4319 -17.4079 -17.3580 -10.2110  -9.9408  -9.5696  -9.3771
    -9.3352  -9.1580  -9.1030  -8.9195  -8.8505  -8.7516  -8.6620  -8.5597
    -8.4889  -8.3704  -8.2388  -8.1648  -8.0850  -7.9492  -7.7911  -7.7496
    -7.7144  -7.5592  -7.5515  -7.4391  -7.1274  -7.0942  -7.0497  -6.9177
    -6.8386  -6.8031  -6.7059  -6.6134  -6.5510  -6.4246  -6.4137  -6.2796
    -6.0885  -6.0609  -5.9564  -5.8818  -5.8460  -5.5944  -4.2501  -4.2380
    -4.1961  -4.0798  -3.7427  -3.7336  -3.4624  -3.2749  -3.2627  -3.1799
    -2.8420  -2.7960  -2.6913  -2.6491  -1.0565  -0.5273   0.0752   0.1373
     0.3799   0.7264   0.8400   0.9443   0.9622   1.1605   1.2581   1.2780
     1.3932   1.4572   1.5662   1.5910

          k =-0.5000-0.2887 0.0000 (109602 PWs)   bands (ev):

   -77.9669 -77.9478 -74.8981 -74.8826 -49.3733 -49.3672 -49.3671 -49.3555
   -49.3477 -49.3476 -46.3511 -46.3353 -46.3265 -46.3263 -46.3114 -46.3112
   -18.2109 -18.1755 -17.9538 -17.9188 -17.6065 -17.5799 -17.5480 -17.5368
   -17.4627 -17.4319 -17.4080 -17.3580 -10.2110  -9.9408  -9.5696  -9.3771
    -9.3352  -9.1580  -9.1030  -8.9195  -8.8505  -8.7516  -8.6620  -8.5597
    -8.4889  -8.3704  -8.2388  -8.1648  -8.0850  -7.9492  -7.7911  -7.7496
    -7.7144  -7.5592  -7.5515  -7.4391  -7.1274  -7.0942  -7.0497  -6.9177
    -6.8386  -6.8031  -6.7059  -6.6135  -6.5510  -6.4246  -6.4138  -6.2796
    -6.0885  -6.0609  -5.9564  -5.8818  -5.8460  -5.5943  -4.2501  -4.2380
    -4.1961  -4.0798  -3.7427  -3.7336  -3.4624  -3.2749  -3.2627  -3.1799
    -2.8420  -2.7960  -2.6913  -2.6491  -1.0565  -0.5273   0.0752   0.1373
     0.3799   0.7264   0.8400   0.9443   0.9622   1.1605   1.2581   1.2781
     1.3931   1.4572   1.5662   1.5910

          k =-0.1667 0.2887 0.0000 (109615 PWs)   bands (ev):

   -77.9669 -77.9478 -74.8981 -74.8826 -49.3733 -49.3672 -49.3671 -49.3555
   -49.3477 -49.3476 -46.3511 -46.3352 -46.3265 -46.3264 -46.3113 -46.3112
   -18.4338 -18.3519 -17.7123 -17.7056 -17.6773 -17.5928 -17.5804 -17.5434
   -17.4082 -17.3928 -17.3519 -17.3400 -10.1956  -9.9126  -9.7668  -9.4139
    -9.3038  -9.2867  -9.1448  -9.0417  -9.0260  -8.8544  -8.7381  -8.5887
    -8.5062  -8.4568  -8.2588  -8.1400  -8.0025  -7.9239  -7.7777  -7.6787
    -7.6341  -7.4573  -7.4136  -7.2973  -7.2426  -7.1426  -7.0399  -7.0093
    -6.8886  -6.8326  -6.6696  -6.5197  -6.4976  -6.4212  -6.3201  -6.1708
    -6.1272  -6.1037  -5.9790  -5.9596  -5.7418  -5.5817  -4.3052  -4.2402
    -4.2121  -3.9588  -3.6342  -3.6292  -3.4134  -3.3691  -3.2637  -3.2510
    -2.8550  -2.7637  -2.7382  -2.6301  -0.7139  -0.1631  -0.1080   0.3194
     0.4785   0.5413   0.7063   0.8424   1.0424   1.1281   1.3038   1.3679
     1.4442   1.5619   1.5792   1.6500

          k = 0.3333 0.0000 0.0000 (109615 PWs)   bands (ev):

   -77.9669 -77.9478 -74.8981 -74.8826 -49.3733 -49.3672 -49.3671 -49.3555
   -49.3477 -49.3476 -46.3511 -46.3352 -46.3265 -46.3264 -46.3113 -46.3112
   -18.4338 -18.3519 -17.7123 -17.7056 -17.6773 -17.5928 -17.5805 -17.5434
   -17.4082 -17.3928 -17.3519 -17.3399 -10.1956  -9.9126  -9.7668  -9.4139
    -9.3038  -9.2867  -9.1448  -9.0417  -9.0260  -8.8544  -8.7381  -8.5886
    -8.5062  -8.4568  -8.2588  -8.1400  -8.0024  -7.9239  -7.7777  -7.6787
    -7.6341  -7.4573  -7.4137  -7.2973  -7.2426  -7.1426  -7.0399  -7.0093
    -6.8886  -6.8326  -6.6696  -6.5198  -6.4975  -6.4212  -6.3201  -6.1708
    -6.1272  -6.1037  -5.9790  -5.9596  -5.7418  -5.5817  -4.3052  -4.2402
    -4.2121  -3.9587  -3.6342  -3.6291  -3.4134  -3.3691  -3.2637  -3.2510
    -2.8549  -2.7637  -2.7382  -2.6301  -0.7139  -0.1631  -0.1080   0.3194
     0.4786   0.5413   0.7063   0.8424   1.0424   1.1281   1.3038   1.3679
     1.4442   1.5619   1.5792   1.6500

          k =-0.1667 0.4811 0.0000 (109606 PWs)   bands (ev):

   -77.9669 -77.9478 -74.8981 -74.8826 -49.3733 -49.3672 -49.3671 -49.3555
   -49.3477 -49.3476 -46.3511 -46.3353 -46.3265 -46.3263 -46.3114 -46.3112
   -18.2403 -18.1769 -17.9127 -17.8679 -17.6458 -17.6110 -17.5862 -17.5126
   -17.4678 -17.4222 -17.3930 -17.3565 -10.0868  -9.8107  -9.6651  -9.3639
    -9.3304  -9.2391  -9.1102  -8.9715  -8.9324  -8.8627  -8.7044  -8.5975
    -8.5106  -8.3866  -8.3205  -8.2634  -7.9849  -7.8646  -7.8011  -7.7472
    -7.6016  -7.4832  -7.4273  -7.3706  -7.1746  -7.1315  -6.9765  -6.8900
    -6.8746  -6.7933  -6.7232  -6.6568  -6.5605  -6.4529  -6.3645  -6.2718
    -6.1668  -6.0556  -5.9494  -5.8712  -5.8061  -5.6093  -4.2657  -4.2363
    -4.1608  -4.0042  -3.7202  -3.6705  -3.4492  -3.3999  -3.2268  -3.1976
    -2.7990  -2.7564  -2.6800  -2.6532  -0.9156  -0.4098  -0.3778   0.1466
     0.2497   0.4610   0.5933   0.6640   0.8513   0.9792   1.1001   1.1777
     1.3008   1.3598   1.5056   1.5319

          k =-0.3333 0.3849 0.0000 (109606 PWs)   bands (ev):

   -77.9669 -77.9478 -74.8981 -74.8826 -49.3733 -49.3672 -49.3671 -49.3555
   -49.3477 -49.3476 -46.3511 -46.3353 -46.3265 -46.3263 -46.3114 -46.3111
   -18.2401 -18.1773 -17.9100 -17.8708 -17.6455 -17.6087 -17.5884 -17.5132
   -17.4666 -17.4240 -17.3911 -17.3572 -10.0862  -9.8203  -9.6434  -9.3985
    -9.3246  -9.2220  -9.0907  -9.0187  -8.9221  -8.8558  -8.6787  -8.5849
    -8.5269  -8.3964  -8.3430  -8.2561  -7.9380  -7.8810  -7.8359  -7.7348
    -7.6022  -7.4711  -7.4190  -7.3733  -7.2206  -7.1079  -6.9631  -6.8973
    -6.8422  -6.7897  -6.7285  -6.7092  -6.5506  -6.4271  -6.3708  -6.2742
    -6.1635  -6.0597  -5.9532  -5.8697  -5.8046  -5.6092  -4.2676  -4.2329
    -4.1624  -4.0031  -3.7203  -3.6722  -3.4500  -3.3981  -3.2274  -3.1979
    -2.7975  -2.7577  -2.6810  -2.6519  -0.9146  -0.4327  -0.3530   0.1386
     0.2360   0.5000   0.6112   0.6379   0.8678   0.9419   1.1184   1.2024
     1.2855   1.3277   1.4512   1.5459

          k = 0.5000 0.0962 0.0000 (109606 PWs)   bands (ev):

   -77.9669 -77.9478 -74.8981 -74.8826 -49.3733 -49.3672 -49.3671 -49.3555
   -49.3477 -49.3476 -46.3511 -46.3353 -46.3265 -46.3263 -46.3114 -46.3112
   -18.2401 -18.1773 -17.9100 -17.8708 -17.6455 -17.6087 -17.5884 -17.5132
   -17.4665 -17.4240 -17.3911 -17.3572 -10.0862  -9.8203  -9.6434  -9.3985
    -9.3246  -9.2220  -9.0907  -9.0187  -8.9221  -8.8558  -8.6787  -8.5848
    -8.5269  -8.3964  -8.3430  -8.2561  -7.9380  -7.8810  -7.8359  -7.7348
    -7.6022  -7.4712  -7.4190  -7.3733  -7.2206  -7.1078  -6.9632  -6.8973
    -6.8422  -6.7897  -6.7285  -6.7093  -6.5506  -6.4271  -6.3709  -6.2742
    -6.1635  -6.0597  -5.9532  -5.8697  -5.8046  -5.6092  -4.2676  -4.2329
    -4.1624  -4.0031  -3.7203  -3.6721  -3.4500  -3.3982  -3.2274  -3.1979
    -2.7975  -2.7577  -2.6810  -2.6519  -0.9146  -0.4327  -0.3530   0.1386
     0.2360   0.5000   0.6112   0.6379   0.8678   0.9419   1.1184   1.2024
     1.2856   1.3277   1.4512   1.5459

          k =-0.3333-0.3849 0.0000 (109606 PWs)   bands (ev):

   -77.9669 -77.9478 -74.8981 -74.8826 -49.3733 -49.3672 -49.3671 -49.3555
   -49.3477 -49.3476 -46.3511 -46.3353 -46.3265 -46.3263 -46.3114 -46.3112
   -18.2403 -18.1769 -17.9126 -17.8679 -17.6458 -17.6110 -17.5862 -17.5126
   -17.4678 -17.4222 -17.3930 -17.3565 -10.0868  -9.8107  -9.6651  -9.3639
    -9.3304  -9.2391  -9.1102  -8.9715  -8.9324  -8.8627  -8.7044  -8.5975
    -8.5106  -8.3866  -8.3205  -8.2634  -7.9849  -7.8646  -7.8011  -7.7472
    -7.6016  -7.4832  -7.4273  -7.3706  -7.1746  -7.1315  -6.9765  -6.8900
    -6.8746  -6.7933  -6.7232  -6.6568  -6.5605  -6.4529  -6.3645  -6.2718
    -6.1668  -6.0556  -5.9494  -5.8712  -5.8061  -5.6093  -4.2657  -4.2363
    -4.1608  -4.0043  -3.7202  -3.6705  -3.4492  -3.4000  -3.2268  -3.1977
    -2.7990  -2.7564  -2.6800  -2.6532  -0.9156  -0.4099  -0.3778   0.1466
     0.2497   0.4610   0.5933   0.6640   0.8513   0.9792   1.1001   1.1777
     1.3008   1.3598   1.5055   1.5319

          k = 0.5000-0.0962 0.0000 (109606 PWs)   bands (ev):

   -77.9669 -77.9478 -74.8981 -74.8826 -49.3733 -49.3672 -49.3671 -49.3555
   -49.3477 -49.3476 -46.3511 -46.3353 -46.3265 -46.3263 -46.3114 -46.3112
   -18.2403 -18.1769 -17.9127 -17.8679 -17.6458 -17.6110 -17.5862 -17.5126
   -17.4678 -17.4222 -17.3930 -17.3565 -10.0868  -9.8107  -9.6651  -9.3639
    -9.3304  -9.2391  -9.1102  -8.9715  -8.9324  -8.8627  -8.7044  -8.5975
    -8.5106  -8.3866  -8.3205  -8.2634  -7.9849  -7.8646  -7.8011  -7.7472
    -7.6016  -7.4832  -7.4273  -7.3705  -7.1746  -7.1315  -6.9765  -6.8900
    -6.8746  -6.7933  -6.7232  -6.6568  -6.5605  -6.4529  -6.3645  -6.2718
    -6.1668  -6.0557  -5.9494  -5.8712  -5.8061  -5.6093  -4.2657  -4.2363
    -4.1608  -4.0042  -3.7202  -3.6705  -3.4492  -3.4000  -3.2268  -3.1977
    -2.7990  -2.7564  -2.6800  -2.6532  -0.9156  -0.4098  -0.3778   0.1466
     0.2497   0.4610   0.5933   0.6640   0.8513   0.9792   1.1001   1.1777
     1.3008   1.3598   1.5055   1.5319

     highest occupied, lowest unoccupied level (ev):    -5.5816   -4.3177

!    total energy              =   -5464.16083161 Ry
     total all-electron energy =     -5464.160832 Ry
     estimated scf accuracy    <          2.8E-12 Ry

     The total energy is the sum of the following terms:
     one-electron contribution =   -9582.99136002 Ry
     hartree contribution      =    4765.83552585 Ry
     xc contribution           =    -163.59406724 Ry
     ewald contribution        =    3986.51859844 Ry
     one-center paw contrib.   =   -4469.92952864 Ry

     total magnetization       =     0.00 Bohr mag/cell
     absolute magnetization    =    14.50 Bohr mag/cell

     convergence has been achieved in  12 iterations

     negative rho (up, down):  3.281E-02 3.282E-02

     Forces acting on atoms (cartesian axes, Ry/au):

     atom    1 type  1   force =     0.00000080    0.00000350   -0.00089646
     atom    2 type  1   force =     0.00000060   -0.00000007   -0.00023661
     atom    3 type  2   force =     0.00073444    0.00035761   -0.00094363
     atom    4 type  2   force =    -0.00005785   -0.00081485   -0.00094352
     atom    5 type  2   force =    -0.00067612    0.00045589   -0.00094205
     atom    6 type  2   force =    -0.00053841    0.00006417    0.00046424
     atom    7 type  2   force =     0.00032685    0.00043256    0.00046495
     atom    8 type  2   force =     0.00021229   -0.00049921    0.00046348
     atom    9 type  3   force =    -0.00000000   -0.00000178    0.00023682
     atom   10 type  3   force =     0.00000158    0.00000044    0.00089501
     atom   11 type  2   force =     0.00053778   -0.00006987   -0.00046326
     atom   12 type  2   force =    -0.00033023   -0.00043118   -0.00046354
     atom   13 type  2   force =    -0.00020949    0.00050138   -0.00046440
     atom   14 type  2   force =    -0.00073473   -0.00036068    0.00094340
     atom   15 type  2   force =     0.00005344    0.00081686    0.00094263
     atom   16 type  2   force =     0.00067905   -0.00045476    0.00094294

     Total force =     0.003757     Total SCF correction =     0.000004


     Computing stress (Cartesian axis) and pressure


     negative rho (up, down):  3.281E-02 3.282E-02
          total   stress  (Ry/bohr**3)                   (kbar)     P=        1.68
   0.00000522  -0.00000000  -0.00000000            0.77       -0.00       -0.00
  -0.00000000   0.00000522   0.00000000           -0.00        0.77        0.00
  -0.00000000   0.00000000   0.00002378           -0.00        0.00        3.50

     Energy error            =      1.7E-05 Ry
     Gradient error          =      9.4E-04 Ry/Bohr

     bfgs converged in   8 scf cycles and   7 bfgs steps
     (criteria: energy <  1.0E-04 Ry, force <  1.0E-03 Ry/Bohr)

     End of BFGS Geometry Optimization

     Final energy             =   -5464.1608316051 Ry

     File ./lt_afm_qe/lt_afm_qe.bfgs deleted, as requested
Begin final coordinates

ATOMIC_POSITIONS (angstrom)
Cr               2.2923018370        3.9704057992       17.0387910914
Cr              -1.1461558916        5.9556545536       17.0436558376
I                3.2906237070        1.9798758639       15.5050444723
I                0.0692940365        4.1011634545       15.5050429278
I               -3.3599406790        5.8302671881       15.5050531736
I                1.3002421046        1.9871867120       18.5781619190
I                1.0708214887        5.8212182337       18.5781536453
I               -2.3710891799        4.1028996777       18.5781530711
Cr1              5.7308041438        1.9852352184       10.4642608577
Cr1              2.2922965790        3.9704228675       10.4691426335
I                6.7228856616       -0.0019509299        8.9297900591
I                3.5138281311        2.1196505792        8.9297668906
I                0.0787324069        3.8379656297        8.9297613823
I                4.7325148434        0.0053716123       12.0028841095
I                4.5153513973        3.8397081019       12.0028788683
I                1.0675785935        2.1105873782       12.0028867509
End final coordinates



     Writing all to output data dir ./lt_afm_qe/lt_afm_qe.save/ :
     XML data file, charge density, pseudopotentials, collected wavefunctions

     init_run     :     36.54s CPU     37.26s WALL (       1 calls)
     electrons    :   8170.60s CPU   8479.16s WALL (       8 calls)
     update_pot   :      7.38s CPU      7.46s WALL (       7 calls)
     forces       :     62.94s CPU     64.37s WALL (       8 calls)
     stress       :   1050.80s CPU   1065.14s WALL (       8 calls)

     Called by init_run:
     wfcinit      :     33.68s CPU     34.22s WALL (       1 calls)
     potinit      :      1.05s CPU      1.09s WALL (       1 calls)
     hinit0       :      0.99s CPU      1.00s WALL (       1 calls)

     Called by electrons:
     c_bands      :   6645.54s CPU   6895.09s WALL (     116 calls)
     sum_band     :   1345.79s CPU   1389.82s WALL (     116 calls)
     v_of_rho     :     24.59s CPU     24.99s WALL (     117 calls)
     newd         :     60.27s CPU     71.09s WALL (     117 calls)
     PAW_pot      :     97.04s CPU     97.84s WALL (     124 calls)
     mix_rho      :     10.76s CPU     11.12s WALL (     116 calls)

     Called by c_bands:
     init_us_2    :    113.35s CPU    114.86s WALL (   10240 calls)
     init_us_2:cp :    113.24s CPU    114.81s WALL (   10240 calls)
     cegterg      :   6396.72s CPU   6642.52s WALL (    4640 calls)

     Called by *egterg:
     cdiaghg      :    484.02s CPU    487.30s WALL (   16900 calls)
     h_psi        :   4311.28s CPU   4431.59s WALL (   17500 calls)
     s_psi        :    270.82s CPU    273.77s WALL (   17500 calls)
     g_psi        :     40.73s CPU     41.28s WALL (   12820 calls)

     Called by h_psi:
     h_psi:calbec :    314.05s CPU    319.42s WALL (   17500 calls)
     vloc_psi     :   3665.28s CPU   3723.21s WALL (   17500 calls)
     add_vuspsi   :    263.27s CPU    266.27s WALL (   17500 calls)

     General routines
     calbec       :    485.72s CPU    494.03s WALL (   24020 calls)
     fft          :     17.98s CPU     18.46s WALL (    3250 calls)
     ffts         :      1.54s CPU      1.66s WALL (     466 calls)
     fftw         :   3314.87s CPU   3369.95s WALL ( 2740032 calls)
     interpolate  :      2.49s CPU      2.54s WALL (     234 calls)

     Parallel routines

     PWSCF        :      2h35m CPU      2h42m WALL


   This run was terminated on:  18: 0:29  17Oct2024            

=------------------------------------------------------------------------------=
   JOB DONE.
=------------------------------------------------------------------------------=
