
     Program PWSCF v.7.3 starts on 17Oct2024 at 14:15:24 

     This program is part of the open-source Quantum ESPRESSO suite
     for quantum simulation of materials; please cite
         "P. Giannozzi et al., J. Phys.:Condens. Matter 21 395502 (2009);
         "P. Giannozzi et al., J. Phys.:Condens. Matter 29 465901 (2017);
         "P. Giannozzi et al., J. Chem. Phys. 152 154105 (2020);
          URL http://www.quantum-espresso.org", 
     in publications or presentations arising from this work. More details at
     http://www.quantum-espresso.org/quote

     Parallel version (MPI), running on    24 processors

     MPI processes distributed on     1 nodes
     55372 MiB available memory on the printing compute node when the environment starts

     Reading input from lt_fm_qe.opt.in
Warning: card &CELL ignored
Warning: card / ignored

     Current dimensions of program PWSCF are:
     Max number of different atomic species (ntypx) = 10
     Max number of k-points (npk) =  40000
     Max angular momentum in pseudopotentials (lmaxx) =  4
read_pp_mesh; mismatch in mesh size, discarding the one in header
read_pp_mesh; mismatch in mesh size, discarding the one in header
     file Cr.GGA-PBE-paw.UPF: wavefunction(s)  3S 4S 3P 4P 3D 4D renormalized
     file I.GGA-PBE-paw.UPF: wavefunction(s)  6S 6P renormalized

     IMPORTANT: XC functional enforced from input :
     Exchange-correlation= OPTB86B
                           (   1   4  24   1   0   0   0)
     Any further DFT definition will be discarded
     Please, verify this is what you really want

     Message from routine find_sym:
     Not a group! Trying with lower acceptance parameter...
     Message from routine find_sym:
     Symmetry operations form a group

     R & G space division:  proc/nbgrp/npool/nimage =      24
     Subspace diagonalization in iterative solution of the eigenvalue problem:
     a serial algorithm will be used


     Parallelization info
     --------------------
     sticks:   dense  smooth     PW     G-vecs:    dense   smooth      PW
     Min         179     174     46                38065    36532    5046
     Max         180     175     47                38082    36557    5059
     Sum        4303    4189   1123               913669   876961  121297

     Using Slab Decomposition



     bravais-lattice index     =            0
     lattice parameter (alat)  =      12.9956  a.u.
     unit-cell volume          =    7602.9282 (a.u.)^3
     number of atoms/cell      =           16
     number of atomic types    =            2
     number of electrons       =       140.00 (up:  76.00, down:  64.00)
     number of Kohn-Sham states=          100
     kinetic-energy cutoff     =      90.0000  Ry
     charge density cutoff     =     370.0000  Ry
     scf convergence threshold =      1.0E-09
     mixing beta               =       0.5000
     number of iterations used =            8  plain     mixing
     energy convergence thresh.=      1.0E-04
     force convergence thresh. =      1.0E-03
     Exchange-correlation= OPTB86B
                           (   1   4  24   1   0   0   0)
     nstep                     =           50


     celldm(1)=  12.995613  celldm(2)=   0.000000  celldm(3)=   0.000000
     celldm(4)=   0.000000  celldm(5)=   0.000000  celldm(6)=   0.000000

     crystal axes: (cart. coord. in units of alat)
               a(1) = (   1.000000  -0.000000   0.000000 )  
               a(2) = (  -0.500000   0.866025   0.000000 )  
               a(3) = (  -0.000000   0.000000   4.000000 )  

     reciprocal axes: (cart. coord. in units 2 pi/alat)
               b(1) = (  1.000000  0.577350  0.000000 )  
               b(2) = (  0.000000  1.154701  0.000000 )  
               b(3) = ( -0.000000 -0.000000  0.250000 )  


     PseudoPot. # 1 for Cr read from file:
     ../Cr.GGA-PBE-paw.UPF
     MD5 check sum: 389087661106aa6caf57455f2e439c97
     Pseudo is Projector augmented-wave + core cor, Zval = 14.0
     Generated using ATOMPAW code
     Shape of augmentation charge: SINC**2
     Using radial grid of 2342 points,  6 beta functions with: 
                l(1) =   0
                l(2) =   0
                l(3) =   1
                l(4) =   1
                l(5) =   2
                l(6) =   2
     Q(r) pseudized with 0 coefficients 


     PseudoPot. # 2 for I  read from file:
     ../I.GGA-PBE-paw.UPF
     MD5 check sum: 736bb4145856fa7ed29d0984862794a4
     Pseudo is Projector augmented-wave + core cor, Zval =  7.0
     Generated using ATOMPAW code
     Shape of augmentation charge: SINC**2
     Using radial grid of 2342 points,  4 beta functions with: 
                l(1) =   0
                l(2) =   0
                l(3) =   1
                l(4) =   1
     Q(r) pseudized with 0 coefficients 


     atomic species   valence    mass     pseudopotential
     Cr               14.00    51.99610     Cr( 1.00)
     I                 7.00   126.90447     I ( 1.00)

     Starting magnetic structure 
     atomic species   magnetization
     Cr              0.214
     I               0.000

     No symmetry found



   Cartesian axes

     site n.     atom                  positions (alat units)
         1        Cr     tau(   1) = (   0.3333318   0.5773512   2.4785854  )
         2        Cr     tau(   2) = (  -0.1666682   0.8660264   2.4785855  )
         3        I      tau(   3) = (   0.4764342   0.2886742   2.2530180  )
         4        I      tau(   4) = (   0.0117790   0.5977595   2.2530180  )
         5        I      tau(   5) = (  -0.4882177   0.8456200   2.2530180  )
         6        I      tau(   6) = (   0.1902295   0.2886744   2.7041526  )
         7        I      tau(   7) = (   0.1548816   0.8456199   2.7041526  )
         8        I      tau(   8) = (  -0.3451156   0.5977594   2.7041526  )
         9        Cr     tau(   9) = (   0.8333318   0.2886761   1.5214148  )
        10        Cr     tau(  10) = (   0.3333318   0.5773512   1.5214148  )
        11        I      tau(  11) = (   0.9764342  -0.0000010   1.2958474  )
        12        I      tau(  12) = (   0.5117790   0.3090843   1.2958474  )
        13        I      tau(  13) = (   0.0117823   0.5569449   1.2958474  )
        14        I      tau(  14) = (   0.6902295  -0.0000007   1.7469820  )
        15        I      tau(  15) = (   0.6548816   0.5569448   1.7469820  )
        16        I      tau(  16) = (   0.1548844   0.3090842   1.7469820  )

     number of k points=    20
                       cart. coord. in units 2pi/alat
        k(    1) = (   0.0000000   0.0000000   0.0000000), wk =   0.0277778
        k(    2) = (   0.0000000   0.1924501   0.0000000), wk =   0.0555556
        k(    3) = (   0.0000000   0.3849002   0.0000000), wk =   0.0555556
        k(    4) = (   0.0000000  -0.5773503   0.0000000), wk =   0.0277778
        k(    5) = (   0.1666667   0.2886751   0.0000000), wk =   0.0555556
        k(    6) = (   0.1666667   0.4811252   0.0000000), wk =   0.0555556
        k(    7) = (   0.3333333   0.5773503   0.0000000), wk =   0.0555556
        k(    8) = (   0.1666667   0.0962250   0.0000000), wk =   0.0555556
        k(    9) = (  -0.1666667   0.0962250   0.0000000), wk =   0.0555556
        k(   10) = (   0.3333333   0.1924501   0.0000000), wk =   0.0555556
        k(   11) = (  -0.3333333   0.1924501   0.0000000), wk =   0.0555556
        k(   12) = (  -0.5000000  -0.2886751   0.0000000), wk =   0.0277778
        k(   13) = (   0.5000000  -0.2886751   0.0000000), wk =   0.0277778
        k(   14) = (   0.3333333   0.0000000   0.0000000), wk =   0.0555556
        k(   15) = (  -0.1666667   0.2886751   0.0000000), wk =   0.0555556
        k(   16) = (   0.5000000   0.0962250   0.0000000), wk =   0.0555556
        k(   17) = (  -0.3333333   0.3849002   0.0000000), wk =   0.0555556
        k(   18) = (   0.1666667  -0.4811252   0.0000000), wk =   0.0555556
        k(   19) = (  -0.3333333  -0.3849002   0.0000000), wk =   0.0555556
        k(   20) = (   0.5000000  -0.0962250   0.0000000), wk =   0.0555556

     Dense  grid:   913669 G-vectors     FFT dimensions: (  80,  80, 320)

     Smooth grid:   876961 G-vectors     FFT dimensions: (  80,  80, 320)

     Estimated max dynamical RAM per process >     535.48 MB

     Estimated total dynamical RAM >      12.55 GB
 ----2D----2D----2D----2D----2D----2D----2D----2D----2D----2D----2D----2D
  The code is running with the 2D cutoff
  Please refer to:
  Sohier, T., Calandra, M., & Mauri, F. (2017), 
  Density functional perturbation theory for gated two-dimensional heterostructures:
  Theoretical developments and application to flexural phonons in graphene.
  Physical Review B, 96(7), 75448. https://doi.org/10.1103/PhysRevB.96.075448
 ----2D----2D----2D----2D----2D----2D----2D----2D----2D----2D----2D----2D
     Generating pointlists ...
     new r_m :   0.1622 (alat units)  2.1084 (a.u.) for type    1
     new r_m :   0.1622 (alat units)  2.1084 (a.u.) for type    2
     Cannot read rho : file not found

     Initial potential from superposition of free atoms

     starting charge     139.9932, renormalised to     140.0000

     negative rho (up, down):  2.601E-02 2.648E-02
     Starting wfcs are  168 atomic wfcs
     Checking if some PAW data can be deallocated... 

     total cpu time spent up to now is       38.5 secs

     Self-consistent Calculation

     iteration #  1     ecut=    90.00 Ry     beta= 0.50
     Davidson diagonalization with overlap
     ethr =  1.00E-05,  avg # of iterations =  9.3

     negative rho (up, down):  3.202E-02 3.265E-02

     total cpu time spent up to now is      285.6 secs

     total energy              =   -5461.95806731 Ry
     estimated scf accuracy    <       3.49118710 Ry

     total magnetization       =    12.00 Bohr mag/cell
     absolute magnetization    =    12.62 Bohr mag/cell

     iteration #  2     ecut=    90.00 Ry     beta= 0.50
     Davidson diagonalization with overlap
     ethr =  2.49E-03,  avg # of iterations =  4.8

     negative rho (up, down):  3.059E-02 2.934E-02

     total cpu time spent up to now is      389.4 secs

     total energy              =   -5456.88448762 Ry
     estimated scf accuracy    <      79.13926675 Ry

     total magnetization       =    12.00 Bohr mag/cell
     absolute magnetization    =    12.08 Bohr mag/cell

     iteration #  3     ecut=    90.00 Ry     beta= 0.50
     Davidson diagonalization with overlap
     ethr =  2.49E-03,  avg # of iterations =  3.1

     negative rho (up, down):  3.213E-02 3.106E-02

     total cpu time spent up to now is      470.7 secs

     total energy              =   -5464.11134149 Ry
     estimated scf accuracy    <       0.85991181 Ry

     total magnetization       =    12.00 Bohr mag/cell
     absolute magnetization    =    13.17 Bohr mag/cell

     iteration #  4     ecut=    90.00 Ry     beta= 0.50
     Davidson diagonalization with overlap
     ethr =  6.14E-04,  avg # of iterations =  1.7

     negative rho (up, down):  3.264E-02 3.238E-02

     total cpu time spent up to now is      530.5 secs

     total energy              =   -5464.13085218 Ry
     estimated scf accuracy    <       0.19617131 Ry

     total magnetization       =    12.00 Bohr mag/cell
     absolute magnetization    =    13.46 Bohr mag/cell

     iteration #  5     ecut=    90.00 Ry     beta= 0.50
     Davidson diagonalization with overlap
     ethr =  1.40E-04,  avg # of iterations =  3.3

     negative rho (up, down):  3.245E-02 3.282E-02

     total cpu time spent up to now is      597.8 secs

     total energy              =   -5464.14790700 Ry
     estimated scf accuracy    <       0.02478034 Ry

     total magnetization       =    12.00 Bohr mag/cell
     absolute magnetization    =    13.77 Bohr mag/cell

     iteration #  6     ecut=    90.00 Ry     beta= 0.50
     Davidson diagonalization with overlap
     ethr =  1.77E-05,  avg # of iterations =  5.9

     negative rho (up, down):  3.121E-02 3.412E-02

     total cpu time spent up to now is      692.1 secs

     total energy              =   -5464.15782580 Ry
     estimated scf accuracy    <       0.01529278 Ry

     total magnetization       =    12.00 Bohr mag/cell
     absolute magnetization    =    13.93 Bohr mag/cell

     iteration #  7     ecut=    90.00 Ry     beta= 0.50
     Davidson diagonalization with overlap
     ethr =  1.09E-05,  avg # of iterations =  2.9

     negative rho (up, down):  3.113E-02 3.432E-02

     total cpu time spent up to now is      758.9 secs

     total energy              =   -5464.16029786 Ry
     estimated scf accuracy    <       0.00771242 Ry

     total magnetization       =    12.00 Bohr mag/cell
     absolute magnetization    =    14.36 Bohr mag/cell

     iteration #  8     ecut=    90.00 Ry     beta= 0.50
     Davidson diagonalization with overlap
     ethr =  5.51E-06,  avg # of iterations =  2.6

     negative rho (up, down):  3.112E-02 3.450E-02

     total cpu time spent up to now is      822.6 secs

     total energy              =   -5464.16083809 Ry
     estimated scf accuracy    <       0.00215324 Ry

     total magnetization       =    12.00 Bohr mag/cell
     absolute magnetization    =    14.42 Bohr mag/cell

     iteration #  9     ecut=    90.00 Ry     beta= 0.50
     Davidson diagonalization with overlap
     ethr =  1.54E-06,  avg # of iterations =  3.9

     negative rho (up, down):  3.088E-02 3.470E-02

     total cpu time spent up to now is      890.3 secs

     total energy              =   -5464.16104191 Ry
     estimated scf accuracy    <       0.00027541 Ry

     total magnetization       =    12.00 Bohr mag/cell
     absolute magnetization    =    14.45 Bohr mag/cell

     iteration # 10     ecut=    90.00 Ry     beta= 0.50
     Davidson diagonalization with overlap
     ethr =  1.97E-07,  avg # of iterations =  3.1

     negative rho (up, down):  3.083E-02 3.471E-02

     total cpu time spent up to now is      963.3 secs

     total energy              =   -5464.16109279 Ry
     estimated scf accuracy    <       0.00009386 Ry

     total magnetization       =    12.00 Bohr mag/cell
     absolute magnetization    =    14.51 Bohr mag/cell

     iteration # 11     ecut=    90.00 Ry     beta= 0.50
     Davidson diagonalization with overlap
     ethr =  6.70E-08,  avg # of iterations =  1.8

     negative rho (up, down):  3.073E-02 3.478E-02

     total cpu time spent up to now is     1024.5 secs

     total energy              =   -5464.16109169 Ry
     estimated scf accuracy    <       0.00006666 Ry

     total magnetization       =    12.00 Bohr mag/cell
     absolute magnetization    =    14.52 Bohr mag/cell

     iteration # 12     ecut=    90.00 Ry     beta= 0.50
     Davidson diagonalization with overlap
     ethr =  4.76E-08,  avg # of iterations =  2.0

     negative rho (up, down):  3.065E-02 3.480E-02

     total cpu time spent up to now is     1092.2 secs

     total energy              =   -5464.16110546 Ry
     estimated scf accuracy    <       0.00000130 Ry

     total magnetization       =    12.00 Bohr mag/cell
     absolute magnetization    =    14.54 Bohr mag/cell

     iteration # 13     ecut=    90.00 Ry     beta= 0.50
     Davidson diagonalization with overlap
     ethr =  9.32E-10,  avg # of iterations =  4.7

     negative rho (up, down):  3.065E-02 3.480E-02

     total cpu time spent up to now is     1208.5 secs

     total energy              =   -5464.16110737 Ry
     estimated scf accuracy    <       0.00000219 Ry

     total magnetization       =    12.00 Bohr mag/cell
     absolute magnetization    =    14.55 Bohr mag/cell

     iteration # 14     ecut=    90.00 Ry     beta= 0.50
     Davidson diagonalization with overlap
     ethr =  9.32E-10,  avg # of iterations =  2.0

     negative rho (up, down):  3.057E-02 3.482E-02

     total cpu time spent up to now is     1273.6 secs

     total energy              =   -5464.16110822 Ry
     estimated scf accuracy    <       0.00000096 Ry

     total magnetization       =    12.00 Bohr mag/cell
     absolute magnetization    =    14.55 Bohr mag/cell

     iteration # 15     ecut=    90.00 Ry     beta= 0.50
     Davidson diagonalization with overlap
     ethr =  6.87E-10,  avg # of iterations =  2.0

     negative rho (up, down):  3.057E-02 3.483E-02

     total cpu time spent up to now is     1341.1 secs

     total energy              =   -5464.16110852 Ry
     estimated scf accuracy    <       0.00000038 Ry

     total magnetization       =    12.00 Bohr mag/cell
     absolute magnetization    =    14.56 Bohr mag/cell

     iteration # 16     ecut=    90.00 Ry     beta= 0.50
     Davidson diagonalization with overlap
     ethr =  2.73E-10,  avg # of iterations =  1.5

     negative rho (up, down):  3.057E-02 3.483E-02

     total cpu time spent up to now is     1400.7 secs

     total energy              =   -5464.16110855 Ry
     estimated scf accuracy    <       0.00000015 Ry

     total magnetization       =    12.00 Bohr mag/cell
     absolute magnetization    =    14.56 Bohr mag/cell

     iteration # 17     ecut=    90.00 Ry     beta= 0.50
     Davidson diagonalization with overlap
     ethr =  1.06E-10,  avg # of iterations =  1.0

     negative rho (up, down):  3.057E-02 3.483E-02

     total cpu time spent up to now is     1459.2 secs

     total energy              =   -5464.16110856 Ry
     estimated scf accuracy    <       0.00000004 Ry

     total magnetization       =    12.00 Bohr mag/cell
     absolute magnetization    =    14.56 Bohr mag/cell

     iteration # 18     ecut=    90.00 Ry     beta= 0.50
     Davidson diagonalization with overlap
     ethr =  2.66E-11,  avg # of iterations =  2.2

     negative rho (up, down):  3.057E-02 3.483E-02

     total cpu time spent up to now is     1522.1 secs

     total energy              =   -5464.16110856 Ry
     estimated scf accuracy    <       0.00000006 Ry

     total magnetization       =    12.00 Bohr mag/cell
     absolute magnetization    =    14.56 Bohr mag/cell

     iteration # 19     ecut=    90.00 Ry     beta= 0.50
     Davidson diagonalization with overlap
     ethr =  2.66E-11,  avg # of iterations =  1.5

     negative rho (up, down):  3.057E-02 3.483E-02

     total cpu time spent up to now is     1582.2 secs

     total energy              =   -5464.16110857 Ry
     estimated scf accuracy    <       0.00000002 Ry

     total magnetization       =    12.00 Bohr mag/cell
     absolute magnetization    =    14.56 Bohr mag/cell

     iteration # 20     ecut=    90.00 Ry     beta= 0.50
     Davidson diagonalization with overlap
     ethr =  1.21E-11,  avg # of iterations =  1.9

     negative rho (up, down):  3.057E-02 3.483E-02

     total cpu time spent up to now is     1642.5 secs

     total energy              =   -5464.16110857 Ry
     estimated scf accuracy    <          3.6E-09 Ry

     total magnetization       =    12.00 Bohr mag/cell
     absolute magnetization    =    14.56 Bohr mag/cell

     iteration # 21     ecut=    90.00 Ry     beta= 0.50
     Davidson diagonalization with overlap
     ethr =  2.56E-12,  avg # of iterations =  3.0

     negative rho (up, down):  3.057E-02 3.483E-02

     total cpu time spent up to now is     1711.0 secs

     total energy              =   -5464.16110857 Ry
     estimated scf accuracy    <          3.2E-09 Ry

     total magnetization       =    12.00 Bohr mag/cell
     absolute magnetization    =    14.56 Bohr mag/cell

     iteration # 22     ecut=    90.00 Ry     beta= 0.50
     Davidson diagonalization with overlap
     ethr =  2.29E-12,  avg # of iterations =  1.2

     negative rho (up, down):  3.057E-02 3.483E-02

     Magnetic moment per site  (integrated on atomic sphere of radius R)
     atom   1 (R=0.162)  charge= 12.4161  magn=  2.9530
     atom   2 (R=0.162)  charge= 12.4174  magn=  2.9581
     atom   3 (R=0.162)  charge=  4.0411  magn= -0.0603
     atom   4 (R=0.162)  charge=  4.0411  magn= -0.0603
     atom   5 (R=0.162)  charge=  4.0411  magn= -0.0603
     atom   6 (R=0.162)  charge=  4.0454  magn= -0.0584
     atom   7 (R=0.162)  charge=  4.0454  magn= -0.0584
     atom   8 (R=0.162)  charge=  4.0453  magn= -0.0584
     atom   9 (R=0.162)  charge= 12.4174  magn=  2.9581
     atom  10 (R=0.162)  charge= 12.4162  magn=  2.9530
     atom  11 (R=0.162)  charge=  4.0453  magn= -0.0584
     atom  12 (R=0.162)  charge=  4.0453  magn= -0.0584
     atom  13 (R=0.162)  charge=  4.0453  magn= -0.0584
     atom  14 (R=0.162)  charge=  4.0411  magn= -0.0603
     atom  15 (R=0.162)  charge=  4.0411  magn= -0.0603
     atom  16 (R=0.162)  charge=  4.0411  magn= -0.0603

     total cpu time spent up to now is     1768.9 secs

     End of self-consistent calculation

 ------ SPIN UP ------------


          k = 0.0000 0.0000 0.0000 (109591 PWs)   bands (ev):

   -77.9643 -77.9643 -77.9463 -77.9463 -49.3723 -49.3722 -49.3635 -49.3635
   -49.3634 -49.3634 -49.3544 -49.3544 -49.3457 -49.3457 -49.3457 -49.3457
   -18.5878 -18.4928 -17.7817 -17.6552 -17.4580 -17.4580 -17.4423 -17.4423
   -17.3108 -17.3108 -17.3017 -17.3017 -10.3292 -10.2781  -9.9424  -9.4724
    -9.2244  -9.2244  -9.1663  -9.1663  -9.0230  -9.0230  -9.0210  -9.0210
    -8.8479  -8.7577  -8.3404  -8.3404  -8.2903  -8.2903  -8.1886  -8.1305
    -7.8137  -7.8136  -7.8087  -7.8087  -7.2880  -7.2748  -6.9742  -6.8118
    -6.8118  -6.7484  -6.7484  -6.6015  -6.6008  -6.3299  -6.3080  -6.3080
    -6.2743  -6.2743  -6.2083  -6.0964  -6.0964  -6.0251  -6.0251  -5.9657
    -5.6346  -5.6346  -5.5797  -5.5797  -4.3809  -4.3809  -4.2494  -4.2494
    -3.8787  -3.8787  -3.8617  -3.8617  -1.1094  -0.7031  -0.6109  -0.2042
    -0.0441  -0.0016   0.7866   0.9077   0.9077   0.9502   0.9502   1.1375
     1.6995   1.6996   1.9848   1.9848

          k = 0.0000 0.1925 0.0000 (109722 PWs)   bands (ev):

   -77.9643 -77.9643 -77.9463 -77.9463 -49.3723 -49.3722 -49.3635 -49.3635
   -49.3634 -49.3634 -49.3544 -49.3544 -49.3457 -49.3457 -49.3457 -49.3457
   -18.5274 -18.4348 -17.7469 -17.6255 -17.5480 -17.5152 -17.4902 -17.4599
   -17.3310 -17.3244 -17.3064 -17.3042 -10.2818 -10.2542  -9.8982  -9.4993
    -9.2842  -9.2617  -9.1901  -9.1445  -9.0802  -9.0656  -8.9627  -8.9152
    -8.6453  -8.6022  -8.4281  -8.3631  -8.3435  -8.2978  -7.9325  -7.8811
    -7.8725  -7.8048  -7.7271  -7.6448  -7.2863  -7.2711  -7.1008  -6.9664
    -6.9202  -6.8345  -6.6875  -6.6238  -6.6125  -6.4915  -6.4694  -6.3621
    -6.3055  -6.2404  -6.1501  -6.1012  -6.0686  -6.0403  -6.0196  -5.9853
    -5.7271  -5.6174  -5.5931  -5.5633  -4.3788  -4.3474  -4.2507  -4.2372
    -4.0653  -4.0344  -3.9238  -3.9091  -0.9742  -0.6393  -0.2549   0.1343
     0.2112   0.3864   0.4965   0.6332   0.6777   0.9162   1.2680   1.3988
     1.5307   1.6259   1.6792   1.8195

          k = 0.0000 0.3849 0.0000 (109616 PWs)   bands (ev):

   -77.9643 -77.9643 -77.9463 -77.9463 -49.3723 -49.3722 -49.3635 -49.3635
   -49.3634 -49.3634 -49.3544 -49.3544 -49.3458 -49.3458 -49.3457 -49.3457
   -18.3611 -18.2784 -17.7600 -17.7094 -17.6515 -17.5489 -17.5387 -17.4956
   -17.3960 -17.3512 -17.3444 -17.3198 -10.2141 -10.1848  -9.7589  -9.5160
    -9.3602  -9.2761  -9.1643  -9.1093  -9.0717  -8.9441  -8.7626  -8.6819
    -8.6571  -8.5617  -8.3859  -8.3153  -8.3021  -8.2605  -7.9955  -7.8875
    -7.6311  -7.6281  -7.6056  -7.4873  -7.4419  -7.3381  -7.1477  -7.1240
    -7.0936  -6.9917  -6.9594  -6.8439  -6.5224  -6.5138  -6.4853  -6.3836
    -6.3032  -6.2469  -6.1258  -6.1047  -6.0768  -6.0513  -5.9824  -5.9424
    -5.8559  -5.6851  -5.5934  -5.5408  -4.3683  -4.2900  -4.2365  -4.2155
    -4.1911  -4.1152  -4.0538  -4.0411  -0.8968  -0.8067  -0.0170   0.0874
     0.3046   0.5163   0.7492   0.8208   0.8769   1.0038   1.0634   1.1600
     1.1728   1.3573   1.4340   1.5235

          k = 0.0000-0.5774 0.0000 (109602 PWs)   bands (ev):

   -77.9643 -77.9643 -77.9463 -77.9463 -49.3723 -49.3722 -49.3635 -49.3635
   -49.3634 -49.3633 -49.3544 -49.3544 -49.3458 -49.3458 -49.3457 -49.3457
   -18.1910 -18.1512 -17.9173 -17.8871 -17.5617 -17.5519 -17.5151 -17.5127
   -17.4332 -17.4111 -17.3642 -17.3290 -10.2091 -10.1572  -9.5884  -9.5287
    -9.3975  -9.1898  -9.1599  -9.0355  -8.9240  -8.8447  -8.7419  -8.7403
    -8.6434  -8.5568  -8.3789  -8.3235  -8.1431  -8.1342  -8.0792  -8.0391
    -7.8696  -7.7394  -7.7098  -7.7000  -7.5820  -7.1676  -7.0880  -7.0162
    -6.9472  -6.8744  -6.8431  -6.7768  -6.5983  -6.5935  -6.4810  -6.4788
    -6.3799  -6.3394  -6.1393  -6.0896  -6.0638  -6.0632  -5.8888  -5.8776
    -5.8645  -5.8005  -5.5998  -5.5326  -4.3347  -4.2848  -4.2631  -4.2111
    -4.1846  -4.1212  -4.0656  -4.0378  -1.1165  -0.9975  -0.0329   0.0759
     0.1714   0.2792   0.6637   0.7942   0.8150   1.0509   1.1424   1.1742
     1.2515   1.3238   1.4055   1.5644

          k = 0.1667 0.2887 0.0000 (109615 PWs)   bands (ev):

   -77.9643 -77.9643 -77.9463 -77.9463 -49.3723 -49.3722 -49.3635 -49.3634
   -49.3634 -49.3634 -49.3544 -49.3544 -49.3458 -49.3458 -49.3457 -49.3457
   -18.4133 -18.3263 -17.6841 -17.6740 -17.6491 -17.5725 -17.5333 -17.5125
   -17.3663 -17.3524 -17.3222 -17.3143 -10.1895 -10.1687  -9.8300  -9.5531
    -9.3431  -9.3235  -9.1992  -9.1262  -9.1008  -8.9906  -8.7746  -8.7312
    -8.6167  -8.5001  -8.4514  -8.4423  -8.2648  -8.2187  -7.9388  -7.9032
    -7.6837  -7.6477  -7.5913  -7.5085  -7.4028  -7.3663  -7.1445  -7.0373
    -6.9940  -6.8979  -6.8717  -6.8244  -6.6564  -6.6427  -6.5066  -6.3607
    -6.3171  -6.2122  -6.1368  -6.1135  -6.0735  -6.0441  -5.9654  -5.9173
    -5.8157  -5.6453  -5.6045  -5.5415  -4.3735  -4.2919  -4.2768  -4.2284
    -4.2002  -4.1531  -3.9663  -3.9312  -0.8299  -0.6560  -0.1944  -0.1228
     0.3741   0.4324   0.5579   0.7119   0.9705   1.0254   1.2148   1.2540
     1.3625   1.4012   1.5236   1.5569

          k = 0.1667 0.4811 0.0000 (109606 PWs)   bands (ev):

   -77.9643 -77.9643 -77.9463 -77.9463 -49.3723 -49.3722 -49.3635 -49.3635
   -49.3634 -49.3633 -49.3544 -49.3544 -49.3458 -49.3458 -49.3457 -49.3457
   -18.2188 -18.1516 -17.8781 -17.8418 -17.5982 -17.5762 -17.5568 -17.4929
   -17.4325 -17.3956 -17.3545 -17.3308 -10.0859 -10.0373  -9.6695  -9.5846
    -9.3563  -9.2647  -9.1518  -9.1294  -9.0031  -8.8534  -8.8341  -8.7414
    -8.6959  -8.6036  -8.3759  -8.3549  -8.2900  -8.2275  -7.9131  -7.8531
    -7.8132  -7.8102  -7.5358  -7.4289  -7.3619  -7.3267  -7.1364  -7.1153
    -6.9501  -6.8988  -6.8655  -6.7991  -6.7351  -6.6965  -6.5747  -6.4338
    -6.3603  -6.3347  -6.1156  -6.0719  -6.0258  -5.9766  -5.9203  -5.8574
    -5.8472  -5.7157  -5.6248  -5.5445  -4.3402  -4.2984  -4.2447  -4.1807
    -4.1429  -4.1225  -4.0101  -3.9724  -0.9604  -0.8867  -0.4510  -0.3238
     0.0994   0.3449   0.4947   0.5726   0.7204   0.7919   1.0303   1.1132
     1.1346   1.2349   1.2809   1.4405

          k = 0.3333 0.5774 0.0000 (109542 PWs)   bands (ev):

   -77.9643 -77.9643 -77.9463 -77.9463 -49.3723 -49.3722 -49.3635 -49.3635
   -49.3634 -49.3633 -49.3544 -49.3544 -49.3458 -49.3458 -49.3457 -49.3456
   -18.0488 -18.0125 -18.0124 -17.9737 -17.6283 -17.6283 -17.5018 -17.4659
   -17.4659 -17.4195 -17.3542 -17.3542  -9.8258  -9.7647  -9.7646  -9.6872
    -9.3077  -9.3077  -9.2370  -9.0559  -9.0558  -8.9999  -8.8417  -8.7337
    -8.7337  -8.5556  -8.5540  -8.5540  -8.3360  -8.3359  -7.8763  -7.8763
    -7.4496  -7.3511  -7.3511  -7.3151  -7.3151  -7.2783  -7.2550  -7.2550
    -7.2393  -7.2100  -6.8185  -6.8185  -6.7451  -6.5784  -6.5784  -6.5703
    -6.3878  -6.3878  -6.0527  -6.0527  -6.0194  -5.8831  -5.8831  -5.8587
    -5.7623  -5.6847  -5.6846  -5.5759  -4.3191  -4.3191  -4.2034  -4.1207
    -4.1206  -4.1048  -3.9171  -3.9171  -0.9370  -0.8130  -0.8129  -0.7183
     0.1229   0.1229   0.1460   0.3680   0.4436   0.4436   0.8192   0.8192
     1.0474   1.0951   1.2567   1.2567

          k = 0.1667 0.0962 0.0000 (109722 PWs)   bands (ev):

   -77.9643 -77.9643 -77.9463 -77.9463 -49.3723 -49.3722 -49.3635 -49.3635
   -49.3634 -49.3634 -49.3544 -49.3544 -49.3457 -49.3457 -49.3457 -49.3457
   -18.5274 -18.4348 -17.7469 -17.6255 -17.5480 -17.5152 -17.4902 -17.4599
   -17.3310 -17.3244 -17.3064 -17.3042 -10.2818 -10.2542  -9.8982  -9.4993
    -9.2842  -9.2617  -9.1901  -9.1445  -9.0802  -9.0656  -8.9627  -8.9152
    -8.6453  -8.6022  -8.4281  -8.3631  -8.3435  -8.2978  -7.9325  -7.8811
    -7.8725  -7.8048  -7.7271  -7.6448  -7.2863  -7.2711  -7.1008  -6.9664
    -6.9202  -6.8345  -6.6875  -6.6238  -6.6125  -6.4915  -6.4694  -6.3621
    -6.3055  -6.2404  -6.1501  -6.1012  -6.0686  -6.0403  -6.0196  -5.9853
    -5.7271  -5.6174  -5.5931  -5.5633  -4.3788  -4.3474  -4.2507  -4.2372
    -4.0653  -4.0344  -3.9238  -3.9091  -0.9742  -0.6393  -0.2549   0.1343
     0.2112   0.3864   0.4966   0.6332   0.6777   0.9162   1.2680   1.3988
     1.5307   1.6259   1.6792   1.8195

          k =-0.1667 0.0962 0.0000 (109722 PWs)   bands (ev):

   -77.9643 -77.9643 -77.9463 -77.9463 -49.3723 -49.3722 -49.3635 -49.3635
   -49.3634 -49.3634 -49.3544 -49.3544 -49.3457 -49.3457 -49.3457 -49.3457
   -18.5274 -18.4348 -17.7469 -17.6255 -17.5480 -17.5152 -17.4902 -17.4599
   -17.3310 -17.3244 -17.3064 -17.3042 -10.2818 -10.2542  -9.8982  -9.4993
    -9.2842  -9.2617  -9.1901  -9.1445  -9.0802  -9.0656  -8.9627  -8.9152
    -8.6453  -8.6022  -8.4281  -8.3631  -8.3435  -8.2978  -7.9325  -7.8811
    -7.8725  -7.8048  -7.7271  -7.6448  -7.2863  -7.2711  -7.1008  -6.9664
    -6.9202  -6.8345  -6.6875  -6.6238  -6.6125  -6.4915  -6.4694  -6.3621
    -6.3055  -6.2404  -6.1501  -6.1012  -6.0686  -6.0403  -6.0196  -5.9853
    -5.7271  -5.6174  -5.5931  -5.5633  -4.3788  -4.3474  -4.2507  -4.2372
    -4.0653  -4.0344  -3.9238  -3.9091  -0.9742  -0.6393  -0.2549   0.1343
     0.2112   0.3864   0.4965   0.6332   0.6777   0.9162   1.2680   1.3988
     1.5307   1.6259   1.6792   1.8195

          k = 0.3333 0.1925 0.0000 (109616 PWs)   bands (ev):

   -77.9643 -77.9643 -77.9463 -77.9463 -49.3723 -49.3722 -49.3635 -49.3635
   -49.3634 -49.3634 -49.3544 -49.3544 -49.3458 -49.3458 -49.3457 -49.3457
   -18.3611 -18.2784 -17.7600 -17.7094 -17.6515 -17.5489 -17.5387 -17.4956
   -17.3960 -17.3512 -17.3444 -17.3198 -10.2141 -10.1848  -9.7589  -9.5160
    -9.3602  -9.2761  -9.1643  -9.1093  -9.0717  -8.9441  -8.7626  -8.6819
    -8.6571  -8.5617  -8.3859  -8.3153  -8.3021  -8.2605  -7.9955  -7.8875
    -7.6311  -7.6281  -7.6056  -7.4873  -7.4419  -7.3381  -7.1477  -7.1240
    -7.0936  -6.9917  -6.9594  -6.8439  -6.5224  -6.5138  -6.4853  -6.3836
    -6.3032  -6.2469  -6.1258  -6.1047  -6.0768  -6.0513  -5.9824  -5.9424
    -5.8559  -5.6851  -5.5934  -5.5407  -4.3683  -4.2900  -4.2365  -4.2155
    -4.1911  -4.1152  -4.0538  -4.0411  -0.8968  -0.8067  -0.0170   0.0874
     0.3046   0.5163   0.7492   0.8208   0.8769   1.0038   1.0634   1.1600
     1.1728   1.3573   1.4340   1.5235

          k =-0.3333 0.1925 0.0000 (109616 PWs)   bands (ev):

   -77.9643 -77.9643 -77.9463 -77.9463 -49.3723 -49.3722 -49.3635 -49.3634
   -49.3634 -49.3634 -49.3544 -49.3544 -49.3458 -49.3458 -49.3457 -49.3457
   -18.3611 -18.2784 -17.7600 -17.7094 -17.6515 -17.5489 -17.5387 -17.4956
   -17.3960 -17.3512 -17.3444 -17.3198 -10.2141 -10.1848  -9.7589  -9.5160
    -9.3602  -9.2761  -9.1643  -9.1093  -9.0717  -8.9441  -8.7626  -8.6819
    -8.6571  -8.5617  -8.3859  -8.3153  -8.3021  -8.2605  -7.9955  -7.8875
    -7.6311  -7.6281  -7.6056  -7.4873  -7.4419  -7.3381  -7.1477  -7.1240
    -7.0936  -6.9917  -6.9594  -6.8439  -6.5224  -6.5138  -6.4853  -6.3836
    -6.3032  -6.2469  -6.1258  -6.1047  -6.0768  -6.0513  -5.9824  -5.9424
    -5.8559  -5.6851  -5.5934  -5.5408  -4.3683  -4.2900  -4.2365  -4.2155
    -4.1911  -4.1152  -4.0538  -4.0411  -0.8968  -0.8067  -0.0170   0.0874
     0.3046   0.5163   0.7492   0.8208   0.8769   1.0038   1.0634   1.1600
     1.1728   1.3573   1.4340   1.5235

          k =-0.5000-0.2887 0.0000 (109602 PWs)   bands (ev):

   -77.9643 -77.9643 -77.9463 -77.9463 -49.3723 -49.3722 -49.3635 -49.3635
   -49.3634 -49.3633 -49.3544 -49.3544 -49.3458 -49.3458 -49.3457 -49.3457
   -18.1910 -18.1512 -17.9173 -17.8871 -17.5617 -17.5519 -17.5151 -17.5127
   -17.4332 -17.4111 -17.3642 -17.3290 -10.2091 -10.1572  -9.5884  -9.5287
    -9.3975  -9.1898  -9.1599  -9.0355  -8.9240  -8.8447  -8.7419  -8.7403
    -8.6434  -8.5568  -8.3789  -8.3235  -8.1431  -8.1342  -8.0792  -8.0391
    -7.8696  -7.7394  -7.7098  -7.7000  -7.5820  -7.1676  -7.0880  -7.0162
    -6.9472  -6.8744  -6.8431  -6.7768  -6.5983  -6.5935  -6.4810  -6.4788
    -6.3799  -6.3394  -6.1393  -6.0896  -6.0638  -6.0632  -5.8888  -5.8776
    -5.8645  -5.8005  -5.5998  -5.5326  -4.3347  -4.2848  -4.2631  -4.2111
    -4.1846  -4.1212  -4.0656  -4.0378  -1.1165  -0.9975  -0.0329   0.0759
     0.1714   0.2792   0.6637   0.7942   0.8150   1.0509   1.1424   1.1742
     1.2516   1.3237   1.4055   1.5644

          k = 0.5000-0.2887 0.0000 (109602 PWs)   bands (ev):

   -77.9643 -77.9643 -77.9463 -77.9463 -49.3723 -49.3722 -49.3635 -49.3635
   -49.3634 -49.3633 -49.3544 -49.3544 -49.3458 -49.3458 -49.3457 -49.3457
   -18.1910 -18.1512 -17.9173 -17.8871 -17.5617 -17.5519 -17.5151 -17.5127
   -17.4332 -17.4111 -17.3642 -17.3290 -10.2091 -10.1572  -9.5884  -9.5287
    -9.3975  -9.1898  -9.1599  -9.0355  -8.9240  -8.8447  -8.7419  -8.7403
    -8.6434  -8.5568  -8.3789  -8.3235  -8.1431  -8.1342  -8.0792  -8.0391
    -7.8696  -7.7394  -7.7098  -7.7000  -7.5820  -7.1676  -7.0880  -7.0162
    -6.9472  -6.8744  -6.8431  -6.7768  -6.5983  -6.5935  -6.4810  -6.4788
    -6.3799  -6.3394  -6.1393  -6.0896  -6.0638  -6.0632  -5.8888  -5.8776
    -5.8645  -5.8005  -5.5998  -5.5326  -4.3347  -4.2848  -4.2631  -4.2111
    -4.1846  -4.1212  -4.0656  -4.0378  -1.1165  -0.9975  -0.0329   0.0759
     0.1714   0.2792   0.6637   0.7942   0.8150   1.0509   1.1424   1.1742
     1.2515   1.3238   1.4055   1.5644

          k = 0.3333 0.0000 0.0000 (109615 PWs)   bands (ev):

   -77.9643 -77.9643 -77.9463 -77.9463 -49.3723 -49.3722 -49.3635 -49.3634
   -49.3634 -49.3634 -49.3544 -49.3544 -49.3458 -49.3457 -49.3457 -49.3457
   -18.4133 -18.3263 -17.6841 -17.6740 -17.6491 -17.5725 -17.5333 -17.5125
   -17.3663 -17.3524 -17.3222 -17.3143 -10.1895 -10.1687  -9.8300  -9.5531
    -9.3431  -9.3235  -9.1992  -9.1262  -9.1008  -8.9906  -8.7746  -8.7312
    -8.6167  -8.5001  -8.4514  -8.4423  -8.2648  -8.2187  -7.9388  -7.9032
    -7.6837  -7.6477  -7.5913  -7.5085  -7.4028  -7.3663  -7.1445  -7.0373
    -6.9940  -6.8979  -6.8717  -6.8244  -6.6564  -6.6427  -6.5066  -6.3607
    -6.3171  -6.2122  -6.1368  -6.1135  -6.0735  -6.0441  -5.9654  -5.9173
    -5.8157  -5.6453  -5.6045  -5.5415  -4.3735  -4.2919  -4.2768  -4.2284
    -4.2002  -4.1531  -3.9663  -3.9312  -0.8299  -0.6560  -0.1944  -0.1228
     0.3741   0.4324   0.5579   0.7119   0.9705   1.0254   1.2148   1.2540
     1.3625   1.4012   1.5236   1.5569

          k =-0.1667 0.2887 0.0000 (109615 PWs)   bands (ev):

   -77.9643 -77.9643 -77.9463 -77.9463 -49.3723 -49.3722 -49.3635 -49.3634
   -49.3634 -49.3634 -49.3544 -49.3544 -49.3458 -49.3457 -49.3457 -49.3457
   -18.4133 -18.3263 -17.6841 -17.6740 -17.6491 -17.5725 -17.5333 -17.5125
   -17.3663 -17.3524 -17.3222 -17.3143 -10.1895 -10.1687  -9.8300  -9.5531
    -9.3431  -9.3235  -9.1992  -9.1262  -9.1008  -8.9906  -8.7746  -8.7312
    -8.6167  -8.5001  -8.4514  -8.4423  -8.2648  -8.2187  -7.9388  -7.9032
    -7.6837  -7.6477  -7.5913  -7.5085  -7.4028  -7.3663  -7.1445  -7.0373
    -6.9940  -6.8979  -6.8717  -6.8244  -6.6564  -6.6427  -6.5066  -6.3607
    -6.3171  -6.2122  -6.1368  -6.1135  -6.0735  -6.0441  -5.9654  -5.9173
    -5.8157  -5.6453  -5.6045  -5.5415  -4.3735  -4.2919  -4.2768  -4.2284
    -4.2002  -4.1531  -3.9663  -3.9312  -0.8299  -0.6560  -0.1944  -0.1228
     0.3741   0.4324   0.5579   0.7119   0.9705   1.0254   1.2148   1.2540
     1.3625   1.4012   1.5236   1.5569

          k = 0.5000 0.0962 0.0000 (109606 PWs)   bands (ev):

   -77.9643 -77.9643 -77.9463 -77.9463 -49.3723 -49.3722 -49.3635 -49.3635
   -49.3634 -49.3633 -49.3544 -49.3544 -49.3458 -49.3458 -49.3457 -49.3457
   -18.2188 -18.1516 -17.8781 -17.8418 -17.5982 -17.5762 -17.5568 -17.4929
   -17.4325 -17.3956 -17.3545 -17.3308 -10.0859 -10.0373  -9.6695  -9.5846
    -9.3563  -9.2647  -9.1518  -9.1294  -9.0031  -8.8534  -8.8341  -8.7414
    -8.6959  -8.6036  -8.3759  -8.3549  -8.2900  -8.2275  -7.9131  -7.8531
    -7.8132  -7.8102  -7.5358  -7.4289  -7.3619  -7.3267  -7.1364  -7.1153
    -6.9501  -6.8988  -6.8655  -6.7991  -6.7351  -6.6965  -6.5747  -6.4338
    -6.3603  -6.3347  -6.1156  -6.0719  -6.0258  -5.9766  -5.9203  -5.8574
    -5.8472  -5.7157  -5.6248  -5.5445  -4.3402  -4.2984  -4.2447  -4.1807
    -4.1429  -4.1225  -4.0101  -3.9724  -0.9604  -0.8867  -0.4510  -0.3238
     0.0994   0.3449   0.4947   0.5726   0.7204   0.7919   1.0303   1.1132
     1.1346   1.2349   1.2809   1.4405

          k =-0.3333 0.3849 0.0000 (109606 PWs)   bands (ev):

   -77.9643 -77.9643 -77.9463 -77.9463 -49.3723 -49.3722 -49.3635 -49.3635
   -49.3634 -49.3633 -49.3544 -49.3544 -49.3458 -49.3458 -49.3457 -49.3457
   -18.2188 -18.1516 -17.8781 -17.8418 -17.5982 -17.5762 -17.5568 -17.4929
   -17.4325 -17.3956 -17.3545 -17.3308 -10.0859 -10.0373  -9.6695  -9.5846
    -9.3563  -9.2647  -9.1518  -9.1294  -9.0031  -8.8534  -8.8341  -8.7414
    -8.6959  -8.6036  -8.3759  -8.3549  -8.2900  -8.2275  -7.9131  -7.8531
    -7.8132  -7.8103  -7.5358  -7.4289  -7.3619  -7.3267  -7.1364  -7.1153
    -6.9501  -6.8988  -6.8655  -6.7991  -6.7351  -6.6965  -6.5747  -6.4338
    -6.3603  -6.3347  -6.1156  -6.0719  -6.0258  -5.9766  -5.9203  -5.8574
    -5.8472  -5.7157  -5.6248  -5.5445  -4.3402  -4.2984  -4.2447  -4.1807
    -4.1429  -4.1225  -4.0101  -3.9724  -0.9604  -0.8867  -0.4510  -0.3238
     0.0994   0.3449   0.4947   0.5726   0.7204   0.7919   1.0303   1.1132
     1.1347   1.2349   1.2809   1.4404

          k = 0.1667-0.4811 0.0000 (109606 PWs)   bands (ev):

   -77.9643 -77.9643 -77.9463 -77.9463 -49.3723 -49.3722 -49.3635 -49.3635
   -49.3634 -49.3633 -49.3544 -49.3544 -49.3458 -49.3458 -49.3457 -49.3457
   -18.2190 -18.1512 -17.8813 -17.8383 -17.5965 -17.5826 -17.5524 -17.4926
   -17.4339 -17.3932 -17.3570 -17.3296 -10.0931 -10.0250  -9.7067  -9.5378
    -9.3622  -9.2864  -9.1639  -9.0639  -9.0389  -8.8653  -8.8295  -8.7541
    -8.7064  -8.5685  -8.3817  -8.3504  -8.2831  -8.2474  -7.8954  -7.8571
    -7.8370  -7.7844  -7.5736  -7.4167  -7.3511  -7.2663  -7.2271  -7.0823
    -6.9592  -6.9191  -6.8644  -6.7640  -6.7144  -6.6930  -6.6084  -6.4017
    -6.3836  -6.3413  -6.0883  -6.0847  -6.0411  -5.9996  -5.8977  -5.8544
    -5.8511  -5.7117  -5.5890  -5.5800  -4.3360  -4.3158  -4.2409  -4.1802
    -4.1370  -4.1053  -4.0145  -3.9821  -0.9767  -0.8641  -0.4550  -0.3278
     0.1125   0.3304   0.4801   0.5482   0.7149   0.8803   0.9825   1.0541
     1.1914   1.2327   1.3827   1.3961

          k =-0.3333-0.3849 0.0000 (109606 PWs)   bands (ev):

   -77.9643 -77.9643 -77.9463 -77.9463 -49.3723 -49.3722 -49.3635 -49.3635
   -49.3634 -49.3633 -49.3544 -49.3544 -49.3458 -49.3458 -49.3457 -49.3457
   -18.2190 -18.1512 -17.8813 -17.8383 -17.5965 -17.5826 -17.5524 -17.4926
   -17.4339 -17.3932 -17.3570 -17.3296 -10.0931 -10.0250  -9.7067  -9.5378
    -9.3622  -9.2864  -9.1639  -9.0639  -9.0389  -8.8653  -8.8295  -8.7541
    -8.7064  -8.5685  -8.3817  -8.3504  -8.2831  -8.2474  -7.8954  -7.8571
    -7.8370  -7.7844  -7.5736  -7.4167  -7.3511  -7.2663  -7.2271  -7.0823
    -6.9592  -6.9191  -6.8644  -6.7640  -6.7144  -6.6930  -6.6084  -6.4017
    -6.3836  -6.3413  -6.0883  -6.0847  -6.0411  -5.9996  -5.8977  -5.8544
    -5.8511  -5.7117  -5.5890  -5.5800  -4.3360  -4.3158  -4.2409  -4.1802
    -4.1370  -4.1053  -4.0145  -3.9821  -0.9767  -0.8641  -0.4550  -0.3278
     0.1125   0.3304   0.4801   0.5482   0.7149   0.8803   0.9825   1.0542
     1.1914   1.2328   1.3826   1.3961

          k = 0.5000-0.0962 0.0000 (109606 PWs)   bands (ev):

   -77.9643 -77.9643 -77.9463 -77.9463 -49.3723 -49.3722 -49.3635 -49.3635
   -49.3634 -49.3633 -49.3544 -49.3544 -49.3458 -49.3458 -49.3457 -49.3457
   -18.2190 -18.1512 -17.8813 -17.8383 -17.5965 -17.5826 -17.5524 -17.4926
   -17.4339 -17.3932 -17.3570 -17.3296 -10.0931 -10.0250  -9.7067  -9.5378
    -9.3622  -9.2864  -9.1639  -9.0639  -9.0389  -8.8653  -8.8295  -8.7541
    -8.7064  -8.5685  -8.3817  -8.3504  -8.2831  -8.2474  -7.8954  -7.8571
    -7.8370  -7.7844  -7.5736  -7.4167  -7.3511  -7.2663  -7.2271  -7.0823
    -6.9592  -6.9191  -6.8644  -6.7640  -6.7144  -6.6930  -6.6084  -6.4017
    -6.3836  -6.3413  -6.0883  -6.0847  -6.0411  -5.9996  -5.8977  -5.8544
    -5.8511  -5.7117  -5.5890  -5.5800  -4.3360  -4.3158  -4.2409  -4.1802
    -4.1370  -4.1053  -4.0145  -3.9821  -0.9767  -0.8641  -0.4550  -0.3279
     0.1125   0.3304   0.4801   0.5482   0.7149   0.8803   0.9825   1.0542
     1.1914   1.2328   1.3826   1.3961

 ------ SPIN DOWN ----------


          k = 0.0000 0.0000 0.0000 (109591 PWs)   bands (ev):

   -74.8878 -74.8878 -74.8652 -74.8652 -46.3468 -46.3468 -46.3220 -46.3220
   -46.3128 -46.3128 -46.3128 -46.3128 -46.2914 -46.2914 -46.2914 -46.2914
   -18.5858 -18.4880 -17.8266 -17.7011 -17.5014 -17.5014 -17.4861 -17.4861
   -17.3537 -17.3537 -17.3451 -17.3451 -10.0138  -9.9531  -9.7100  -9.1894
    -9.0556  -9.0556  -8.9690  -8.9690  -8.7842  -8.7721  -8.7721  -8.7428
    -8.7428  -8.6898  -7.9397  -7.8959  -7.7769  -7.7769  -7.6808  -7.6808
    -7.3277  -7.3277  -7.3059  -7.3059  -7.2638  -7.2222  -6.9466  -6.3821
    -6.3821  -6.2928  -6.2928  -6.2190  -5.8358  -5.8358  -5.7747  -5.7747
    -3.5819  -3.5787  -3.5787  -3.5704  -3.5704  -3.5674  -3.5195  -3.4352
    -3.2516  -3.2516  -3.2299  -3.2299  -2.8853  -2.8853  -2.7814  -2.7814
    -2.5285  -2.5285  -2.5153  -2.5153  -0.4448  -0.2701  -0.1549   0.1237
     0.1786   0.3474   1.0255   1.2078   1.2078   1.2153   1.2153   1.3925
     1.9570   2.0176   2.0176   2.1314

          k = 0.0000 0.1925 0.0000 (109722 PWs)   bands (ev):

   -74.8878 -74.8878 -74.8652 -74.8652 -46.3468 -46.3468 -46.3220 -46.3220
   -46.3128 -46.3128 -46.3127 -46.3127 -46.2914 -46.2914 -46.2914 -46.2913
   -18.5271 -18.4318 -17.7917 -17.6713 -17.5875 -17.5545 -17.5339 -17.5034
   -17.3739 -17.3666 -17.3497 -17.3471  -9.9811  -9.9507  -9.6625  -9.2260
    -9.1375  -9.1160  -8.9720  -8.9492  -8.9052  -8.8426  -8.7255  -8.6913
    -8.3643  -8.3033  -7.9340  -7.8510  -7.7913  -7.7039  -7.6556  -7.6213
    -7.3994  -7.3703  -7.3018  -7.2110  -7.1773  -7.0870  -6.8400  -6.5112
    -6.4444  -6.4208  -6.3695  -6.3047  -6.1875  -6.0566  -5.9505  -5.8813
    -3.6450  -3.6346  -3.5395  -3.5074  -3.4877  -3.4732  -3.3882  -3.3621
    -3.2939  -3.2796  -3.2492  -3.2424  -2.8823  -2.8609  -2.7876  -2.7816
    -2.6746  -2.6401  -2.5807  -2.5492  -0.3226   0.0002   0.1022   0.4254
     0.6118   0.6230   0.6940   0.8946   0.9400   1.1402   1.4751   1.7089
     1.7826   1.8498   1.9931   2.0688

          k = 0.0000 0.3849 0.0000 (109616 PWs)   bands (ev):

   -74.8878 -74.8878 -74.8652 -74.8652 -46.3468 -46.3468 -46.3220 -46.3220
   -46.3128 -46.3128 -46.3127 -46.3127 -46.2915 -46.2915 -46.2913 -46.2913
   -18.3655 -18.2804 -17.7905 -17.7395 -17.6955 -17.5948 -17.5825 -17.5392
   -17.4390 -17.3923 -17.3879 -17.3612  -9.9409  -9.9088  -9.5127  -9.2801
    -9.2407  -9.0883  -9.0472  -8.8649  -8.8499  -8.6532  -8.5160  -8.3598
    -8.2807  -8.1120  -7.9358  -7.8619  -7.8151  -7.7576  -7.5682  -7.4429
    -7.3954  -7.2218  -7.1741  -7.1314  -7.0594  -7.0281  -6.9402  -6.9148
    -6.8090  -6.7010  -6.4982  -6.4245  -6.3627  -6.1047  -6.0643  -6.0056
    -3.6968  -3.6925  -3.6561  -3.6014  -3.4400  -3.4225  -3.3215  -3.2878
    -3.2678  -3.2414  -3.2199  -3.1889  -2.8938  -2.8556  -2.7963  -2.7578
    -2.7220  -2.7004  -2.6684  -2.6121  -0.3197  -0.2474   0.4816   0.5595
     0.7520   0.7997   0.9337   1.0630   1.1640   1.2349   1.3098   1.4111
     1.4473   1.6235   1.6628   1.7758

          k = 0.0000-0.5774 0.0000 (109602 PWs)   bands (ev):

   -74.8878 -74.8878 -74.8652 -74.8652 -46.3468 -46.3468 -46.3220 -46.3220
   -46.3128 -46.3128 -46.3127 -46.3126 -46.2915 -46.2915 -46.2913 -46.2913
   -18.1988 -18.1583 -17.9412 -17.9102 -17.6057 -17.5967 -17.5600 -17.5567
   -17.4773 -17.4542 -17.4046 -17.3698  -9.9454  -9.8913  -9.3364  -9.3194
    -9.2684  -9.1061  -8.8728  -8.7503  -8.6522  -8.6038  -8.4799  -8.4665
    -8.2570  -8.1257  -7.9774  -7.8780  -7.7235  -7.7047  -7.5668  -7.5577
    -7.5102  -7.4559  -7.3668  -7.1063  -7.0541  -7.0368  -6.8267  -6.7976
    -6.7335  -6.6696  -6.5531  -6.4731  -6.3361  -6.2876  -5.9784  -5.9764
    -3.7759  -3.7565  -3.7062  -3.7034  -3.4801  -3.4477  -3.2881  -3.2599
    -3.2558  -3.2273  -3.1642  -3.1622  -2.8943  -2.8863  -2.7790  -2.7572
    -2.6947  -2.6568  -2.6416  -2.6129  -0.5758  -0.4421   0.1904   0.5055
     0.8051   0.8973   0.9183   1.0375   1.1804   1.2886   1.3940   1.4526
     1.4734   1.6235   1.6802   1.7645

          k = 0.1667 0.2887 0.0000 (109615 PWs)   bands (ev):

   -74.8878 -74.8878 -74.8652 -74.8652 -46.3468 -46.3468 -46.3220 -46.3220
   -46.3128 -46.3128 -46.3127 -46.3127 -46.2915 -46.2914 -46.2913 -46.2913
   -18.4162 -18.3268 -17.7282 -17.7074 -17.6820 -17.6181 -17.5765 -17.5554
   -17.4092 -17.3950 -17.3649 -17.3566  -9.9076  -9.8842  -9.5869  -9.2856
    -9.2036  -9.1768  -9.0205  -8.9408  -8.9040  -8.7276  -8.5291  -8.4547
    -8.1960  -8.0410  -7.9883  -7.9311  -7.8496  -7.7760  -7.5575  -7.4559
    -7.2863  -7.2772  -7.2288  -7.1471  -7.1063  -7.0448  -6.9913  -6.8123
    -6.5481  -6.5040  -6.4720  -6.4286  -6.3785  -6.1494  -6.0760  -6.0573
    -3.6656  -3.6234  -3.6058  -3.6002  -3.4214  -3.4034  -3.3562  -3.3499
    -3.2836  -3.2516  -3.2271  -3.2236  -2.8920  -2.8488  -2.8110  -2.7430
    -2.7316  -2.6953  -2.6079  -2.6025  -0.2205  -0.0505   0.3168   0.3970
     0.6057   0.6651   0.8321   0.9539   1.1747   1.2094   1.4596   1.5136
     1.5624   1.6967   1.7529   1.7867

          k = 0.1667 0.4811 0.0000 (109606 PWs)   bands (ev):

   -74.8878 -74.8878 -74.8652 -74.8652 -46.3468 -46.3468 -46.3220 -46.3220
   -46.3128 -46.3128 -46.3126 -46.3126 -46.2915 -46.2915 -46.2913 -46.2913
   -18.2273 -18.1582 -17.9020 -17.8644 -17.6411 -17.6209 -17.5999 -17.5382
   -17.4760 -17.4390 -17.3959 -17.3724  -9.8214  -9.7691  -9.4123  -9.3215
    -9.2435  -9.0628  -9.0189  -8.8623  -8.7972  -8.5489  -8.5456  -8.4584
    -8.3801  -8.2276  -7.9483  -7.8827  -7.7574  -7.7312  -7.5377  -7.5084
    -7.4738  -7.4153  -7.2645  -7.0671  -6.9718  -6.8421  -6.7901  -6.7796
    -6.7086  -6.6707  -6.5631  -6.4336  -6.3312  -6.2296  -6.1485  -6.0934
    -3.7584  -3.7059  -3.6618  -3.6519  -3.4591  -3.4359  -3.3932  -3.3716
    -3.2329  -3.2189  -3.1934  -3.1594  -2.8607  -2.8499  -2.7608  -2.7112
    -2.6667  -2.6573  -2.6282  -2.6125  -0.4191  -0.3171   0.1512   0.1899
     0.3705   0.6908   0.7589   0.8219   1.0017   1.0611   1.2677   1.3676
     1.4272   1.4692   1.5408   1.6826

          k = 0.3333 0.5774 0.0000 (109542 PWs)   bands (ev):

   -74.8878 -74.8878 -74.8652 -74.8652 -46.3468 -46.3468 -46.3220 -46.3220
   -46.3128 -46.3128 -46.3126 -46.3126 -46.2915 -46.2915 -46.2913 -46.2913
   -18.0638 -18.0270 -18.0270 -17.9875 -17.6711 -17.6711 -17.5460 -17.5103
   -17.5103 -17.4649 -17.3955 -17.3955  -9.5712  -9.5006  -9.5006  -9.4122
    -9.0861  -9.0861  -9.0850  -8.8424  -8.8424  -8.8209  -8.5190  -8.3740
    -8.3740  -8.3406  -8.3406  -8.1342  -7.6870  -7.6870  -7.5943  -7.5943
    -7.1942  -7.1310  -7.1310  -7.0043  -7.0043  -6.8348  -6.6990  -6.6508
    -6.6507  -6.5939  -6.5534  -6.5534  -6.2965  -6.2552  -6.2552  -6.2187
    -3.7190  -3.6841  -3.6841  -3.6328  -3.5026  -3.5026  -3.4360  -3.4359
    -3.2408  -3.2053  -3.2053  -3.1582  -2.8129  -2.8129  -2.7510  -2.6426
    -2.6426  -2.6219  -2.5725  -2.5725  -0.3324  -0.2489  -0.2488  -0.2021
     0.3959   0.3959   0.5066   0.6690   0.6690   0.6984   1.0651   1.0651
     1.2984   1.4428   1.5347   1.5347

          k = 0.1667 0.0962 0.0000 (109722 PWs)   bands (ev):

   -74.8878 -74.8878 -74.8652 -74.8652 -46.3468 -46.3468 -46.3220 -46.3220
   -46.3128 -46.3128 -46.3127 -46.3127 -46.2914 -46.2914 -46.2914 -46.2913
   -18.5271 -18.4318 -17.7917 -17.6713 -17.5875 -17.5545 -17.5339 -17.5034
   -17.3739 -17.3666 -17.3497 -17.3471  -9.9811  -9.9507  -9.6625  -9.2260
    -9.1375  -9.1160  -8.9720  -8.9492  -8.9052  -8.8426  -8.7255  -8.6913
    -8.3643  -8.3033  -7.9340  -7.8510  -7.7913  -7.7039  -7.6556  -7.6213
    -7.3994  -7.3703  -7.3018  -7.2110  -7.1773  -7.0870  -6.8400  -6.5112
    -6.4444  -6.4208  -6.3695  -6.3047  -6.1875  -6.0566  -5.9505  -5.8813
    -3.6450  -3.6346  -3.5395  -3.5074  -3.4877  -3.4732  -3.3882  -3.3621
    -3.2939  -3.2796  -3.2492  -3.2424  -2.8823  -2.8609  -2.7876  -2.7816
    -2.6746  -2.6401  -2.5807  -2.5492  -0.3226   0.0002   0.1022   0.4254
     0.6118   0.6230   0.6940   0.8946   0.9400   1.1402   1.4751   1.7089
     1.7826   1.8498   1.9931   2.0688

          k =-0.1667 0.0962 0.0000 (109722 PWs)   bands (ev):

   -74.8878 -74.8878 -74.8652 -74.8652 -46.3468 -46.3468 -46.3220 -46.3220
   -46.3128 -46.3128 -46.3127 -46.3127 -46.2914 -46.2914 -46.2914 -46.2913
   -18.5271 -18.4318 -17.7917 -17.6713 -17.5875 -17.5545 -17.5339 -17.5034
   -17.3739 -17.3666 -17.3497 -17.3471  -9.9811  -9.9507  -9.6625  -9.2260
    -9.1375  -9.1160  -8.9720  -8.9492  -8.9052  -8.8426  -8.7255  -8.6913
    -8.3643  -8.3033  -7.9340  -7.8510  -7.7913  -7.7039  -7.6556  -7.6213
    -7.3994  -7.3703  -7.3018  -7.2110  -7.1773  -7.0870  -6.8400  -6.5112
    -6.4444  -6.4208  -6.3695  -6.3047  -6.1875  -6.0566  -5.9505  -5.8813
    -3.6450  -3.6346  -3.5395  -3.5074  -3.4877  -3.4732  -3.3882  -3.3621
    -3.2939  -3.2796  -3.2492  -3.2424  -2.8823  -2.8609  -2.7876  -2.7816
    -2.6746  -2.6401  -2.5807  -2.5492  -0.3226   0.0002   0.1022   0.4254
     0.6118   0.6230   0.6940   0.8946   0.9400   1.1402   1.4751   1.7089
     1.7826   1.8499   1.9931   2.0688

          k = 0.3333 0.1925 0.0000 (109616 PWs)   bands (ev):

   -74.8878 -74.8878 -74.8652 -74.8652 -46.3468 -46.3468 -46.3220 -46.3220
   -46.3128 -46.3128 -46.3127 -46.3127 -46.2915 -46.2915 -46.2913 -46.2913
   -18.3655 -18.2804 -17.7905 -17.7395 -17.6955 -17.5948 -17.5825 -17.5392
   -17.4390 -17.3923 -17.3879 -17.3612  -9.9409  -9.9088  -9.5127  -9.2801
    -9.2407  -9.0883  -9.0472  -8.8649  -8.8499  -8.6532  -8.5160  -8.3598
    -8.2807  -8.1120  -7.9358  -7.8619  -7.8151  -7.7576  -7.5682  -7.4429
    -7.3954  -7.2218  -7.1741  -7.1314  -7.0594  -7.0281  -6.9402  -6.9148
    -6.8090  -6.7010  -6.4982  -6.4245  -6.3627  -6.1047  -6.0643  -6.0056
    -3.6968  -3.6925  -3.6561  -3.6014  -3.4400  -3.4225  -3.3215  -3.2878
    -3.2678  -3.2414  -3.2199  -3.1889  -2.8938  -2.8556  -2.7963  -2.7578
    -2.7220  -2.7004  -2.6684  -2.6121  -0.3197  -0.2474   0.4816   0.5595
     0.7520   0.7997   0.9337   1.0630   1.1640   1.2349   1.3098   1.4111
     1.4473   1.6235   1.6628   1.7758

          k =-0.3333 0.1925 0.0000 (109616 PWs)   bands (ev):

   -74.8878 -74.8878 -74.8652 -74.8652 -46.3468 -46.3468 -46.3220 -46.3220
   -46.3128 -46.3128 -46.3127 -46.3127 -46.2915 -46.2915 -46.2913 -46.2913
   -18.3655 -18.2804 -17.7905 -17.7395 -17.6955 -17.5948 -17.5825 -17.5392
   -17.4390 -17.3923 -17.3879 -17.3612  -9.9409  -9.9088  -9.5127  -9.2801
    -9.2407  -9.0883  -9.0472  -8.8649  -8.8499  -8.6532  -8.5160  -8.3598
    -8.2807  -8.1120  -7.9358  -7.8619  -7.8151  -7.7576  -7.5682  -7.4429
    -7.3954  -7.2218  -7.1741  -7.1314  -7.0594  -7.0281  -6.9402  -6.9148
    -6.8090  -6.7010  -6.4982  -6.4245  -6.3627  -6.1047  -6.0643  -6.0056
    -3.6968  -3.6925  -3.6561  -3.6014  -3.4400  -3.4225  -3.3215  -3.2878
    -3.2678  -3.2414  -3.2199  -3.1889  -2.8938  -2.8556  -2.7963  -2.7578
    -2.7220  -2.7004  -2.6684  -2.6121  -0.3197  -0.2474   0.4816   0.5595
     0.7520   0.7997   0.9337   1.0630   1.1640   1.2349   1.3098   1.4111
     1.4473   1.6235   1.6628   1.7758

          k =-0.5000-0.2887 0.0000 (109602 PWs)   bands (ev):

   -74.8878 -74.8878 -74.8652 -74.8652 -46.3468 -46.3468 -46.3220 -46.3220
   -46.3128 -46.3128 -46.3127 -46.3126 -46.2915 -46.2915 -46.2913 -46.2913
   -18.1988 -18.1583 -17.9412 -17.9102 -17.6057 -17.5967 -17.5600 -17.5567
   -17.4773 -17.4542 -17.4046 -17.3698  -9.9454  -9.8913  -9.3364  -9.3194
    -9.2684  -9.1061  -8.8728  -8.7503  -8.6522  -8.6038  -8.4799  -8.4665
    -8.2570  -8.1257  -7.9774  -7.8780  -7.7235  -7.7047  -7.5668  -7.5577
    -7.5102  -7.4559  -7.3668  -7.1063  -7.0541  -7.0368  -6.8267  -6.7976
    -6.7335  -6.6696  -6.5531  -6.4731  -6.3361  -6.2876  -5.9784  -5.9764
    -3.7759  -3.7565  -3.7062  -3.7034  -3.4801  -3.4477  -3.2881  -3.2599
    -3.2558  -3.2273  -3.1642  -3.1622  -2.8943  -2.8863  -2.7790  -2.7572
    -2.6947  -2.6568  -2.6416  -2.6129  -0.5758  -0.4421   0.1904   0.5054
     0.8051   0.8973   0.9183   1.0375   1.1804   1.2886   1.3940   1.4526
     1.4734   1.6235   1.6803   1.7645

          k = 0.5000-0.2887 0.0000 (109602 PWs)   bands (ev):

   -74.8878 -74.8878 -74.8652 -74.8652 -46.3468 -46.3468 -46.3220 -46.3220
   -46.3128 -46.3128 -46.3127 -46.3126 -46.2915 -46.2915 -46.2913 -46.2913
   -18.1988 -18.1583 -17.9412 -17.9102 -17.6057 -17.5967 -17.5600 -17.5567
   -17.4773 -17.4542 -17.4046 -17.3698  -9.9454  -9.8913  -9.3364  -9.3194
    -9.2684  -9.1061  -8.8728  -8.7503  -8.6522  -8.6038  -8.4799  -8.4665
    -8.2570  -8.1257  -7.9773  -7.8780  -7.7235  -7.7047  -7.5668  -7.5577
    -7.5102  -7.4559  -7.3668  -7.1063  -7.0541  -7.0368  -6.8267  -6.7976
    -6.7335  -6.6696  -6.5531  -6.4731  -6.3361  -6.2876  -5.9784  -5.9764
    -3.7759  -3.7565  -3.7062  -3.7034  -3.4801  -3.4477  -3.2881  -3.2599
    -3.2558  -3.2273  -3.1642  -3.1622  -2.8943  -2.8863  -2.7790  -2.7572
    -2.6947  -2.6568  -2.6416  -2.6129  -0.5758  -0.4421   0.1904   0.5054
     0.8051   0.8973   0.9183   1.0375   1.1804   1.2886   1.3940   1.4526
     1.4734   1.6235   1.6803   1.7645

          k = 0.3333 0.0000 0.0000 (109615 PWs)   bands (ev):

   -74.8878 -74.8878 -74.8652 -74.8652 -46.3468 -46.3468 -46.3220 -46.3220
   -46.3128 -46.3128 -46.3127 -46.3127 -46.2915 -46.2914 -46.2913 -46.2913
   -18.4162 -18.3268 -17.7282 -17.7074 -17.6820 -17.6181 -17.5765 -17.5554
   -17.4092 -17.3950 -17.3649 -17.3566  -9.9076  -9.8842  -9.5869  -9.2856
    -9.2036  -9.1768  -9.0205  -8.9408  -8.9040  -8.7276  -8.5291  -8.4547
    -8.1960  -8.0410  -7.9883  -7.9311  -7.8496  -7.7760  -7.5575  -7.4559
    -7.2863  -7.2772  -7.2288  -7.1471  -7.1063  -7.0448  -6.9913  -6.8123
    -6.5481  -6.5040  -6.4720  -6.4286  -6.3785  -6.1494  -6.0760  -6.0573
    -3.6656  -3.6234  -3.6058  -3.6002  -3.4214  -3.4034  -3.3562  -3.3499
    -3.2836  -3.2516  -3.2271  -3.2236  -2.8920  -2.8488  -2.8110  -2.7430
    -2.7316  -2.6953  -2.6079  -2.6025  -0.2206  -0.0505   0.3168   0.3970
     0.6057   0.6651   0.8321   0.9539   1.1747   1.2094   1.4596   1.5136
     1.5624   1.6967   1.7529   1.7867

          k =-0.1667 0.2887 0.0000 (109615 PWs)   bands (ev):

   -74.8878 -74.8878 -74.8652 -74.8652 -46.3468 -46.3468 -46.3220 -46.3220
   -46.3128 -46.3128 -46.3127 -46.3127 -46.2914 -46.2914 -46.2913 -46.2913
   -18.4162 -18.3268 -17.7282 -17.7074 -17.6820 -17.6181 -17.5765 -17.5554
   -17.4092 -17.3950 -17.3649 -17.3566  -9.9076  -9.8842  -9.5869  -9.2856
    -9.2036  -9.1768  -9.0205  -8.9408  -8.9040  -8.7276  -8.5291  -8.4547
    -8.1960  -8.0410  -7.9883  -7.9311  -7.8496  -7.7760  -7.5575  -7.4559
    -7.2863  -7.2772  -7.2288  -7.1471  -7.1063  -7.0448  -6.9913  -6.8123
    -6.5481  -6.5040  -6.4720  -6.4286  -6.3785  -6.1494  -6.0760  -6.0573
    -3.6656  -3.6234  -3.6058  -3.6002  -3.4214  -3.4034  -3.3562  -3.3499
    -3.2836  -3.2516  -3.2271  -3.2236  -2.8920  -2.8488  -2.8110  -2.7430
    -2.7316  -2.6953  -2.6079  -2.6025  -0.2206  -0.0505   0.3168   0.3970
     0.6057   0.6651   0.8321   0.9539   1.1747   1.2094   1.4596   1.5136
     1.5624   1.6967   1.7529   1.7867

          k = 0.5000 0.0962 0.0000 (109606 PWs)   bands (ev):

   -74.8878 -74.8878 -74.8652 -74.8652 -46.3468 -46.3468 -46.3220 -46.3220
   -46.3128 -46.3128 -46.3126 -46.3126 -46.2915 -46.2915 -46.2913 -46.2913
   -18.2273 -18.1582 -17.9020 -17.8644 -17.6411 -17.6209 -17.5999 -17.5382
   -17.4760 -17.4391 -17.3959 -17.3724  -9.8214  -9.7691  -9.4123  -9.3215
    -9.2435  -9.0628  -9.0189  -8.8623  -8.7972  -8.5489  -8.5456  -8.4584
    -8.3801  -8.2276  -7.9483  -7.8827  -7.7574  -7.7312  -7.5377  -7.5084
    -7.4738  -7.4153  -7.2645  -7.0671  -6.9718  -6.8421  -6.7901  -6.7796
    -6.7086  -6.6707  -6.5631  -6.4336  -6.3312  -6.2296  -6.1485  -6.0934
    -3.7584  -3.7059  -3.6618  -3.6519  -3.4591  -3.4359  -3.3932  -3.3716
    -3.2329  -3.2189  -3.1934  -3.1594  -2.8607  -2.8499  -2.7608  -2.7112
    -2.6667  -2.6573  -2.6282  -2.6125  -0.4191  -0.3171   0.1512   0.1899
     0.3705   0.6908   0.7589   0.8219   1.0017   1.0611   1.2677   1.3676
     1.4272   1.4692   1.5408   1.6826

          k =-0.3333 0.3849 0.0000 (109606 PWs)   bands (ev):

   -74.8878 -74.8878 -74.8652 -74.8652 -46.3468 -46.3468 -46.3220 -46.3220
   -46.3128 -46.3128 -46.3126 -46.3126 -46.2915 -46.2915 -46.2913 -46.2913
   -18.2273 -18.1582 -17.9020 -17.8644 -17.6411 -17.6209 -17.5999 -17.5382
   -17.4760 -17.4391 -17.3959 -17.3724  -9.8214  -9.7691  -9.4123  -9.3215
    -9.2435  -9.0628  -9.0189  -8.8623  -8.7972  -8.5489  -8.5456  -8.4584
    -8.3801  -8.2276  -7.9483  -7.8827  -7.7574  -7.7312  -7.5377  -7.5084
    -7.4739  -7.4153  -7.2645  -7.0671  -6.9718  -6.8421  -6.7901  -6.7796
    -6.7086  -6.6707  -6.5631  -6.4336  -6.3312  -6.2296  -6.1485  -6.0934
    -3.7584  -3.7059  -3.6618  -3.6519  -3.4591  -3.4359  -3.3932  -3.3716
    -3.2329  -3.2189  -3.1934  -3.1594  -2.8607  -2.8499  -2.7608  -2.7112
    -2.6667  -2.6573  -2.6282  -2.6125  -0.4191  -0.3171   0.1512   0.1899
     0.3705   0.6908   0.7589   0.8219   1.0017   1.0611   1.2677   1.3676
     1.4272   1.4692   1.5408   1.6826

          k = 0.1667-0.4811 0.0000 (109606 PWs)   bands (ev):

   -74.8878 -74.8878 -74.8652 -74.8652 -46.3468 -46.3468 -46.3220 -46.3220
   -46.3128 -46.3128 -46.3126 -46.3126 -46.2915 -46.2915 -46.2913 -46.2913
   -18.2275 -18.1577 -17.9052 -17.8609 -17.6402 -17.6261 -17.5957 -17.5383
   -17.4771 -17.4370 -17.3983 -17.3712  -9.8285  -9.7556  -9.4539  -9.2687
    -9.2450  -9.0712  -9.0388  -8.8286  -8.7995  -8.6118  -8.5194  -8.4543
    -8.3794  -8.2046  -7.9434  -7.9086  -7.7559  -7.7177  -7.5407  -7.5028
    -7.4597  -7.4428  -7.2671  -7.0295  -6.9762  -6.8821  -6.8194  -6.7773
    -6.7119  -6.5981  -6.5437  -6.4813  -6.3408  -6.2210  -6.1396  -6.0999
    -3.7571  -3.7034  -3.6837  -3.6342  -3.4445  -3.4374  -3.4113  -3.3625
    -3.2500  -3.2051  -3.1804  -3.1756  -2.8769  -2.8313  -2.7445  -2.7055
    -2.6825  -2.6634  -2.6316  -2.6088  -0.4173  -0.3170   0.1166   0.2298
     0.3889   0.6243   0.7534   0.8544   0.9775   1.1077   1.2585   1.3340
     1.4483   1.4551   1.6377   1.6944

          k =-0.3333-0.3849 0.0000 (109606 PWs)   bands (ev):

   -74.8878 -74.8878 -74.8652 -74.8652 -46.3468 -46.3468 -46.3220 -46.3220
   -46.3128 -46.3128 -46.3126 -46.3126 -46.2915 -46.2915 -46.2913 -46.2913
   -18.2275 -18.1577 -17.9052 -17.8609 -17.6402 -17.6261 -17.5957 -17.5383
   -17.4771 -17.4370 -17.3983 -17.3712  -9.8285  -9.7556  -9.4539  -9.2687
    -9.2450  -9.0712  -9.0388  -8.8286  -8.7995  -8.6118  -8.5194  -8.4543
    -8.3794  -8.2046  -7.9434  -7.9086  -7.7559  -7.7177  -7.5407  -7.5028
    -7.4597  -7.4428  -7.2671  -7.0295  -6.9762  -6.8821  -6.8194  -6.7773
    -6.7119  -6.5981  -6.5437  -6.4813  -6.3408  -6.2210  -6.1396  -6.0999
    -3.7571  -3.7034  -3.6837  -3.6342  -3.4445  -3.4374  -3.4113  -3.3625
    -3.2500  -3.2051  -3.1804  -3.1756  -2.8769  -2.8313  -2.7445  -2.7055
    -2.6825  -2.6634  -2.6316  -2.6088  -0.4173  -0.3170   0.1166   0.2298
     0.3889   0.6243   0.7534   0.8544   0.9775   1.1077   1.2585   1.3340
     1.4483   1.4551   1.6377   1.6944

          k = 0.5000-0.0962 0.0000 (109606 PWs)   bands (ev):

   -74.8878 -74.8878 -74.8652 -74.8652 -46.3468 -46.3468 -46.3220 -46.3220
   -46.3128 -46.3128 -46.3126 -46.3126 -46.2915 -46.2915 -46.2913 -46.2913
   -18.2275 -18.1577 -17.9052 -17.8609 -17.6402 -17.6261 -17.5957 -17.5383
   -17.4771 -17.4370 -17.3983 -17.3712  -9.8285  -9.7556  -9.4539  -9.2687
    -9.2450  -9.0712  -9.0388  -8.8286  -8.7995  -8.6118  -8.5194  -8.4543
    -8.3794  -8.2046  -7.9434  -7.9086  -7.7559  -7.7177  -7.5407  -7.5028
    -7.4597  -7.4428  -7.2671  -7.0295  -6.9762  -6.8821  -6.8194  -6.7773
    -6.7119  -6.5981  -6.5437  -6.4813  -6.3408  -6.2210  -6.1396  -6.0999
    -3.7571  -3.7034  -3.6837  -3.6342  -3.4445  -3.4374  -3.4113  -3.3625
    -3.2500  -3.2051  -3.1804  -3.1756  -2.8769  -2.8313  -2.7445  -2.7055
    -2.6825  -2.6634  -2.6316  -2.6088  -0.4173  -0.3170   0.1166   0.2298
     0.3889   0.6243   0.7534   0.8544   0.9775   1.1077   1.2585   1.3340
     1.4483   1.4551   1.6377   1.6944

     highest occupied, lowest unoccupied level (ev):    -5.5326   -4.3809

!    total energy              =   -5464.16110857 Ry
     total all-electron energy =     -5464.161109 Ry
     estimated scf accuracy    <          5.0E-10 Ry

     The total energy is the sum of the following terms:
     one-electron contribution =   -9555.13122974 Ry
     hartree contribution      =    4751.90692988 Ry
     xc contribution           =    -163.56664192 Ry
     ewald contribution        =    3972.52029640 Ry
     one-center paw contrib.   =   -4469.89046319 Ry

     total magnetization       =    12.00 Bohr mag/cell
     absolute magnetization    =    14.56 Bohr mag/cell

     convergence has been achieved in  22 iterations

     negative rho (up, down):  3.057E-02 3.483E-02

     Forces acting on atoms (cartesian axes, Ry/au):

     atom    1 type  1   force =    -0.00000144   -0.00000536   -0.00019070
     atom    2 type  1   force =     0.00000218    0.00000163    0.00018107
     atom    3 type  2   force =     0.00117775   -0.00082519    0.00122018
     atom    4 type  2   force =    -0.00130367   -0.00060682    0.00121981
     atom    5 type  2   force =     0.00012587    0.00143351    0.00122015
     atom    6 type  2   force =    -0.00065228    0.00027530   -0.00234942
     atom    7 type  2   force =     0.00056390    0.00042797   -0.00234930
     atom    8 type  2   force =     0.00008838   -0.00070184   -0.00235060
     atom    9 type  1   force =    -0.00000004    0.00000312   -0.00018404
     atom   10 type  1   force =    -0.00000394   -0.00000217    0.00018693
     atom   11 type  2   force =     0.00065338   -0.00026783    0.00235217
     atom   12 type  2   force =    -0.00055792   -0.00042991    0.00235003
     atom   13 type  2   force =    -0.00009401    0.00069795    0.00234990
     atom   14 type  2   force =    -0.00117709    0.00083294   -0.00121877
     atom   15 type  2   force =     0.00131084    0.00060451   -0.00121902
     atom   16 type  2   force =    -0.00013189   -0.00143781   -0.00121839

     Total force =     0.007593     Total SCF correction =     0.000022


     Computing stress (Cartesian axis) and pressure


     negative rho (up, down):  3.057E-02 3.483E-02
          total   stress  (Ry/bohr**3)                   (kbar)     P=        0.98
   0.00000346  -0.00000000  -0.00000000            0.51       -0.00       -0.00
  -0.00000000   0.00000346   0.00000000           -0.00        0.51        0.00
  -0.00000000   0.00000000   0.00001308           -0.00        0.00        1.92


     BFGS Geometry Optimization
     Energy error            =      0.0E+00 Ry
     Gradient error          =      2.4E-03 Ry/Bohr

     number of scf cycles    =   1
     number of bfgs steps    =   0

     energy             new  =   -5464.1611085693 Ry

     new trust radius        =       0.0024558765 bohr
     new conv_thr            =       0.0000000010 Ry


ATOMIC_POSITIONS (angstrom)
Cr               2.2923161866        3.9704311849       17.0450862344
Cr              -1.1461729080        5.9556485827       17.0452834256
I                3.2770525808        1.9847704481       15.4946102511
I                0.0803139666        4.1104600070       15.4946100541
I               -3.3573977401        5.8160723729       15.4946102376
I                1.3078594962        1.9853545840       18.5951654316
I                1.0654161108        5.8155392708       18.5951654937
I               -2.3733067802        4.1104089402       18.5951648044
Cr               5.7308079373        1.9852219596       10.4626445904
Cr               2.2923148625        3.9704328621       10.4628413597
I                6.7152661032       -0.0001483180        8.9127641137
I                3.5191996116        2.1253399092        8.9127629843
I                0.0809769102        3.8304694198        8.9127629144
I                4.7460727901        0.0004359603       12.0133185747
I                4.5043023863        3.8304189832       12.0133184441
I                1.0650676662        2.1248057733       12.0133187762



     Writing config-only to output data dir ./lt_fm_qe/lt_fm_qe.save/ :
     XML data file
     NEW-OLD atomic charge density approx. for the potential

     negative rho (up, down):  3.030E-02 3.513E-02
     Generating pointlists ...

     total cpu time spent up to now is     1913.0 secs

     Self-consistent Calculation

     iteration #  1     ecut=    90.00 Ry     beta= 0.50
     Davidson diagonalization with overlap
     ethr =  1.00E-06,  avg # of iterations =  2.0

     Threshold (ethr) on eigenvalues was too large:
     Diagonalizing with lowered threshold

     Davidson diagonalization with overlap
     ethr =  1.08E-09,  avg # of iterations =  4.1

     negative rho (up, down):  3.048E-02 3.494E-02

     total cpu time spent up to now is     2075.8 secs

     total energy              =   -5464.16116281 Ry
     estimated scf accuracy    <       0.00000175 Ry

     total magnetization       =    12.00 Bohr mag/cell
     absolute magnetization    =    14.56 Bohr mag/cell

     iteration #  2     ecut=    90.00 Ry     beta= 0.50
     Davidson diagonalization with overlap
     ethr =  1.25E-09,  avg # of iterations =  2.9

     negative rho (up, down):  3.051E-02 3.492E-02

     total cpu time spent up to now is     2149.8 secs

     total energy              =   -5464.16116215 Ry
     estimated scf accuracy    <       0.00001176 Ry

     total magnetization       =    12.00 Bohr mag/cell
     absolute magnetization    =    14.55 Bohr mag/cell

     iteration #  3     ecut=    90.00 Ry     beta= 0.50
     Davidson diagonalization with overlap
     ethr =  1.25E-09,  avg # of iterations =  2.4

     negative rho (up, down):  3.054E-02 3.487E-02

     total cpu time spent up to now is     2218.3 secs

     total energy              =   -5464.16116369 Ry
     estimated scf accuracy    <       0.00000022 Ry

     total magnetization       =    12.00 Bohr mag/cell
     absolute magnetization    =    14.55 Bohr mag/cell

     iteration #  4     ecut=    90.00 Ry     beta= 0.50
     Davidson diagonalization with overlap
     ethr =  1.54E-10,  avg # of iterations =  3.0

     negative rho (up, down):  3.056E-02 3.485E-02

     total cpu time spent up to now is     2286.3 secs

     total energy              =   -5464.16116370 Ry
     estimated scf accuracy    <       0.00000029 Ry

     total magnetization       =    12.00 Bohr mag/cell
     absolute magnetization    =    14.55 Bohr mag/cell

     iteration #  5     ecut=    90.00 Ry     beta= 0.50
     Davidson diagonalization with overlap
     ethr =  1.54E-10,  avg # of iterations =  1.6

     negative rho (up, down):  3.057E-02 3.484E-02

     total cpu time spent up to now is     2346.2 secs

     total energy              =   -5464.16116373 Ry
     estimated scf accuracy    <       0.00000004 Ry

     total magnetization       =    12.00 Bohr mag/cell
     absolute magnetization    =    14.55 Bohr mag/cell

     iteration #  6     ecut=    90.00 Ry     beta= 0.50
     Davidson diagonalization with overlap
     ethr =  2.89E-11,  avg # of iterations =  2.4

     negative rho (up, down):  3.058E-02 3.484E-02

     total cpu time spent up to now is     2408.6 secs

     total energy              =   -5464.16116373 Ry
     estimated scf accuracy    <       0.00000002 Ry

     total magnetization       =    12.00 Bohr mag/cell
     absolute magnetization    =    14.55 Bohr mag/cell

     iteration #  7     ecut=    90.00 Ry     beta= 0.50
     Davidson diagonalization with overlap
     ethr =  1.64E-11,  avg # of iterations =  1.7

     negative rho (up, down):  3.058E-02 3.483E-02

     total cpu time spent up to now is     2467.9 secs

     total energy              =   -5464.16116374 Ry
     estimated scf accuracy    <          2.7E-09 Ry

     total magnetization       =    12.00 Bohr mag/cell
     absolute magnetization    =    14.55 Bohr mag/cell

     iteration #  8     ecut=    90.00 Ry     beta= 0.50
     Davidson diagonalization with overlap
     ethr =  1.91E-12,  avg # of iterations =  4.0

     negative rho (up, down):  3.058E-02 3.483E-02

     Magnetic moment per site  (integrated on atomic sphere of radius R)
     atom   1 (R=0.162)  charge= 12.4165  magn=  2.9527
     atom   2 (R=0.162)  charge= 12.4181  magn=  2.9575
     atom   3 (R=0.162)  charge=  4.0412  magn= -0.0603
     atom   4 (R=0.162)  charge=  4.0412  magn= -0.0603
     atom   5 (R=0.162)  charge=  4.0412  magn= -0.0603
     atom   6 (R=0.162)  charge=  4.0455  magn= -0.0583
     atom   7 (R=0.162)  charge=  4.0455  magn= -0.0583
     atom   8 (R=0.162)  charge=  4.0455  magn= -0.0583
     atom   9 (R=0.162)  charge= 12.4181  magn=  2.9575
     atom  10 (R=0.162)  charge= 12.4166  magn=  2.9527
     atom  11 (R=0.162)  charge=  4.0455  magn= -0.0583
     atom  12 (R=0.162)  charge=  4.0455  magn= -0.0583
     atom  13 (R=0.162)  charge=  4.0455  magn= -0.0583
     atom  14 (R=0.162)  charge=  4.0412  magn= -0.0603
     atom  15 (R=0.162)  charge=  4.0411  magn= -0.0602
     atom  16 (R=0.162)  charge=  4.0412  magn= -0.0602

     total cpu time spent up to now is     2550.3 secs

     End of self-consistent calculation

 ------ SPIN UP ------------


          k = 0.0000 0.0000 0.0000 (109591 PWs)   bands (ev):

   -77.9642 -77.9642 -77.9460 -77.9460 -49.3721 -49.3721 -49.3635 -49.3635
   -49.3635 -49.3635 -49.3540 -49.3540 -49.3455 -49.3455 -49.3455 -49.3455
   -18.5893 -18.4948 -17.7816 -17.6551 -17.4588 -17.4588 -17.4434 -17.4434
   -17.3121 -17.3121 -17.3029 -17.3029 -10.3301 -10.2793  -9.9428  -9.4737
    -9.2257  -9.2257  -9.1679  -9.1679  -9.0252  -9.0252  -9.0231  -9.0231
    -8.8465  -8.7569  -8.3418  -8.3418  -8.2920  -8.2920  -8.1910  -8.1337
    -7.8138  -7.8138  -7.8096  -7.8096  -7.2879  -7.2758  -6.9740  -6.8123
    -6.8123  -6.7491  -6.7491  -6.6023  -6.6016  -6.3287  -6.3079  -6.3079
    -6.2743  -6.2743  -6.2080  -6.0961  -6.0961  -6.0249  -6.0249  -5.9657
    -5.6350  -5.6350  -5.5804  -5.5804  -4.3803  -4.3803  -4.2486  -4.2486
    -3.8777  -3.8777  -3.8610  -3.8610  -1.1058  -0.7000  -0.6100  -0.2058
    -0.0457  -0.0020   0.7864   0.9094   0.9094   0.9520   0.9520   1.1378
     1.7005   1.7005   1.9855   1.9855

          k = 0.0000 0.1925 0.0000 (109722 PWs)   bands (ev):

   -77.9642 -77.9642 -77.9460 -77.9460 -49.3721 -49.3721 -49.3635 -49.3635
   -49.3635 -49.3634 -49.3540 -49.3540 -49.3455 -49.3455 -49.3455 -49.3455
   -18.5289 -18.4368 -17.7468 -17.6254 -17.5489 -17.5165 -17.4911 -17.4611
   -17.3321 -17.3256 -17.3074 -17.3052 -10.2828 -10.2554  -9.8988  -9.5009
    -9.2855  -9.2624  -9.1920  -9.1455  -9.0825  -9.0672  -8.9644  -8.9170
    -8.6454  -8.6024  -8.4297  -8.3645  -8.3452  -8.2994  -7.9346  -7.8831
    -7.8735  -7.8054  -7.7275  -7.6452  -7.2871  -7.2712  -7.1007  -6.9674
    -6.9212  -6.8349  -6.6879  -6.6241  -6.6133  -6.4919  -6.4697  -6.3623
    -6.3056  -6.2393  -6.1499  -6.1008  -6.0683  -6.0399  -6.0194  -5.9851
    -5.7273  -5.6176  -5.5935  -5.5638  -4.3782  -4.3467  -4.2498  -4.2362
    -4.0646  -4.0335  -3.9228  -3.9082  -0.9709  -0.6365  -0.2539   0.1341
     0.2101   0.3849   0.4970   0.6340   0.6784   0.9178   1.2692   1.3981
     1.5311   1.6250   1.6798   1.8188

          k = 0.0000 0.3849 0.0000 (109616 PWs)   bands (ev):

   -77.9642 -77.9642 -77.9460 -77.9460 -49.3721 -49.3721 -49.3635 -49.3635
   -49.3634 -49.3634 -49.3540 -49.3540 -49.3455 -49.3455 -49.3455 -49.3454
   -18.3625 -18.2802 -17.7612 -17.7108 -17.6516 -17.5489 -17.5396 -17.4970
   -17.3967 -17.3524 -17.3451 -17.3208 -10.2156 -10.1862  -9.7597  -9.5176
    -9.3609  -9.2774  -9.1655  -9.1109  -9.0733  -8.9457  -8.7638  -8.6837
    -8.6587  -8.5632  -8.3873  -8.3159  -8.3042  -8.2618  -7.9965  -7.8885
    -7.6319  -7.6284  -7.6057  -7.4880  -7.4428  -7.3381  -7.1496  -7.1266
    -7.0935  -6.9924  -6.9600  -6.8439  -6.5225  -6.5141  -6.4851  -6.3838
    -6.3034  -6.2456  -6.1254  -6.1045  -6.0769  -6.0515  -5.9821  -5.9423
    -5.8559  -5.6852  -5.5935  -5.5409  -4.3677  -4.2892  -4.2357  -4.2141
    -4.1899  -4.1147  -4.0528  -4.0402  -0.8952  -0.8056  -0.0160   0.0888
     0.3059   0.5165   0.7496   0.8203   0.8772   1.0038   1.0622   1.1595
     1.1719   1.3568   1.4323   1.5231

          k = 0.0000-0.5774 0.0000 (109602 PWs)   bands (ev):

   -77.9642 -77.9642 -77.9460 -77.9460 -49.3721 -49.3721 -49.3635 -49.3635
   -49.3634 -49.3634 -49.3540 -49.3540 -49.3456 -49.3455 -49.3455 -49.3454
   -18.1923 -18.1528 -17.9188 -17.8887 -17.5626 -17.5520 -17.5154 -17.5141
   -17.4335 -17.4116 -17.3654 -17.3300 -10.2108 -10.1588  -9.5893  -9.5299
    -9.3984  -9.1909  -9.1615  -9.0370  -8.9249  -8.8462  -8.7438  -8.7422
    -8.6444  -8.5573  -8.3804  -8.3252  -8.1454  -8.1357  -8.0810  -8.0405
    -7.8698  -7.7397  -7.7104  -7.7006  -7.5818  -7.1673  -7.0899  -7.0182
    -6.9472  -6.8751  -6.8432  -6.7767  -6.5988  -6.5940  -6.4803  -6.4780
    -6.3797  -6.3393  -6.1390  -6.0893  -6.0644  -6.0636  -5.8886  -5.8777
    -5.8647  -5.8005  -5.5996  -5.5326  -4.3339  -4.2841  -4.2621  -4.2103
    -4.1836  -4.1201  -4.0641  -4.0368  -1.1160  -0.9976  -0.0323   0.0774
     0.1722   0.2789   0.6633   0.7935   0.8162   1.0516   1.1426   1.1734
     1.2510   1.3223   1.4046   1.5644

          k = 0.1667 0.2887 0.0000 (109615 PWs)   bands (ev):

   -77.9642 -77.9642 -77.9460 -77.9460 -49.3721 -49.3721 -49.3635 -49.3635
   -49.3634 -49.3634 -49.3540 -49.3540 -49.3455 -49.3455 -49.3455 -49.3454
   -18.4147 -18.3282 -17.6841 -17.6751 -17.6504 -17.5725 -17.5344 -17.5139
   -17.3672 -17.3534 -17.3230 -17.3152 -10.1907 -10.1700  -9.8309  -9.5549
    -9.3443  -9.3243  -9.2006  -9.1279  -9.1020  -8.9921  -8.7758  -8.7326
    -8.6186  -8.5019  -8.4522  -8.4436  -8.2660  -8.2200  -7.9396  -7.9040
    -7.6843  -7.6488  -7.5917  -7.5089  -7.4042  -7.3679  -7.1440  -7.0382
    -6.9950  -6.8987  -6.8725  -6.8248  -6.6573  -6.6435  -6.5062  -6.3607
    -6.3172  -6.2109  -6.1367  -6.1134  -6.0732  -6.0435  -5.9650  -5.9172
    -5.8157  -5.6453  -5.6048  -5.5419  -4.3728  -4.2912  -4.2759  -4.2273
    -4.1992  -4.1523  -3.9652  -3.9304  -0.8274  -0.6541  -0.1939  -0.1225
     0.3749   0.4320   0.5590   0.7113   0.9698   1.0257   1.2150   1.2537
     1.3625   1.4010   1.5221   1.5562

          k = 0.1667 0.4811 0.0000 (109606 PWs)   bands (ev):

   -77.9642 -77.9642 -77.9460 -77.9460 -49.3721 -49.3721 -49.3635 -49.3635
   -49.3634 -49.3634 -49.3540 -49.3540 -49.3456 -49.3456 -49.3454 -49.3454
   -18.2201 -18.1533 -17.8794 -17.8433 -17.5992 -17.5768 -17.5581 -17.4931
   -17.4330 -17.3962 -17.3554 -17.3317 -10.0875 -10.0389  -9.6706  -9.5862
    -9.3572  -9.2658  -9.1535  -9.1309  -9.0039  -8.8551  -8.8361  -8.7427
    -8.6974  -8.6043  -8.3771  -8.3563  -8.2915  -8.2289  -7.9138  -7.8540
    -7.8137  -7.8117  -7.5361  -7.4295  -7.3631  -7.3263  -7.1375  -7.1168
    -6.9509  -6.8989  -6.8658  -6.7996  -6.7355  -6.6972  -6.5740  -6.4331
    -6.3601  -6.3348  -6.1158  -6.0718  -6.0256  -5.9764  -5.9201  -5.8574
    -5.8472  -5.7158  -5.6248  -5.5446  -4.3397  -4.2976  -4.2433  -4.1797
    -4.1419  -4.1212  -4.0088  -3.9716  -0.9599  -0.8864  -0.4505  -0.3241
     0.0999   0.3452   0.4944   0.5717   0.7200   0.7919   1.0305   1.1130
     1.1345   1.2343   1.2805   1.4394

          k = 0.3333 0.5774 0.0000 (109542 PWs)   bands (ev):

   -77.9642 -77.9642 -77.9460 -77.9460 -49.3721 -49.3721 -49.3635 -49.3635
   -49.3634 -49.3634 -49.3540 -49.3540 -49.3456 -49.3456 -49.3454 -49.3454
   -18.0496 -18.0141 -18.0141 -17.9751 -17.6298 -17.6298 -17.5020 -17.4665
   -17.4665 -17.4197 -17.3550 -17.3550  -9.8272  -9.7662  -9.7662  -9.6888
    -9.3094  -9.3094  -9.2372  -9.0577  -9.0577  -9.0016  -8.8425  -8.7346
    -8.7346  -8.5559  -8.5556  -8.5556  -8.3376  -8.3376  -7.8768  -7.8768
    -7.4496  -7.3526  -7.3526  -7.3159  -7.3159  -7.2791  -7.2556  -7.2556
    -7.2400  -7.2105  -6.8182  -6.8181  -6.7455  -6.5783  -6.5783  -6.5708
    -6.3880  -6.3880  -6.0529  -6.0529  -6.0189  -5.8831  -5.8830  -5.8587
    -5.7623  -5.6848  -5.6848  -5.5760  -4.3185  -4.3185  -4.2017  -4.1198
    -4.1197  -4.1032  -3.9159  -3.9159  -0.9369  -0.8131  -0.8130  -0.7194
     0.1223   0.1223   0.1461   0.3685   0.4427   0.4427   0.8191   0.8191
     1.0474   1.0955   1.2560   1.2560

          k = 0.1667 0.0962 0.0000 (109722 PWs)   bands (ev):

   -77.9642 -77.9642 -77.9460 -77.9460 -49.3721 -49.3721 -49.3635 -49.3635
   -49.3635 -49.3634 -49.3540 -49.3540 -49.3455 -49.3455 -49.3455 -49.3455
   -18.5289 -18.4368 -17.7468 -17.6254 -17.5489 -17.5165 -17.4911 -17.4611
   -17.3321 -17.3256 -17.3074 -17.3052 -10.2828 -10.2554  -9.8988  -9.5009
    -9.2855  -9.2624  -9.1920  -9.1455  -9.0825  -9.0672  -8.9644  -8.9170
    -8.6454  -8.6024  -8.4297  -8.3645  -8.3452  -8.2994  -7.9346  -7.8831
    -7.8735  -7.8054  -7.7275  -7.6452  -7.2871  -7.2712  -7.1007  -6.9674
    -6.9212  -6.8349  -6.6879  -6.6241  -6.6133  -6.4919  -6.4697  -6.3623
    -6.3056  -6.2393  -6.1499  -6.1008  -6.0683  -6.0399  -6.0194  -5.9851
    -5.7273  -5.6176  -5.5935  -5.5638  -4.3782  -4.3467  -4.2498  -4.2362
    -4.0646  -4.0335  -3.9228  -3.9082  -0.9709  -0.6365  -0.2539   0.1341
     0.2101   0.3849   0.4970   0.6340   0.6784   0.9178   1.2692   1.3981
     1.5311   1.6250   1.6798   1.8188

          k =-0.1667 0.0962 0.0000 (109722 PWs)   bands (ev):

   -77.9642 -77.9642 -77.9460 -77.9460 -49.3721 -49.3721 -49.3635 -49.3635
   -49.3635 -49.3634 -49.3540 -49.3540 -49.3455 -49.3455 -49.3455 -49.3455
   -18.5289 -18.4368 -17.7468 -17.6254 -17.5489 -17.5165 -17.4911 -17.4611
   -17.3321 -17.3256 -17.3074 -17.3052 -10.2828 -10.2554  -9.8988  -9.5009
    -9.2855  -9.2624  -9.1920  -9.1455  -9.0825  -9.0672  -8.9644  -8.9170
    -8.6454  -8.6024  -8.4297  -8.3645  -8.3452  -8.2994  -7.9346  -7.8831
    -7.8735  -7.8054  -7.7275  -7.6452  -7.2871  -7.2712  -7.1007  -6.9674
    -6.9212  -6.8349  -6.6879  -6.6241  -6.6133  -6.4919  -6.4697  -6.3623
    -6.3056  -6.2393  -6.1499  -6.1008  -6.0683  -6.0399  -6.0194  -5.9851
    -5.7273  -5.6176  -5.5935  -5.5638  -4.3782  -4.3467  -4.2498  -4.2362
    -4.0646  -4.0335  -3.9228  -3.9082  -0.9709  -0.6365  -0.2539   0.1341
     0.2101   0.3849   0.4970   0.6340   0.6784   0.9179   1.2692   1.3981
     1.5311   1.6250   1.6798   1.8188

          k = 0.3333 0.1925 0.0000 (109616 PWs)   bands (ev):

   -77.9642 -77.9642 -77.9460 -77.9460 -49.3721 -49.3721 -49.3635 -49.3635
   -49.3634 -49.3634 -49.3540 -49.3540 -49.3456 -49.3455 -49.3455 -49.3454
   -18.3625 -18.2802 -17.7612 -17.7108 -17.6516 -17.5489 -17.5396 -17.4970
   -17.3967 -17.3524 -17.3451 -17.3208 -10.2156 -10.1862  -9.7597  -9.5176
    -9.3609  -9.2774  -9.1655  -9.1109  -9.0733  -8.9457  -8.7638  -8.6837
    -8.6587  -8.5632  -8.3873  -8.3159  -8.3042  -8.2618  -7.9965  -7.8885
    -7.6319  -7.6284  -7.6057  -7.4880  -7.4428  -7.3381  -7.1496  -7.1266
    -7.0935  -6.9924  -6.9600  -6.8439  -6.5225  -6.5141  -6.4851  -6.3838
    -6.3034  -6.2456  -6.1254  -6.1045  -6.0769  -6.0515  -5.9821  -5.9423
    -5.8559  -5.6852  -5.5935  -5.5409  -4.3677  -4.2892  -4.2357  -4.2141
[...]
    -2.6464  -2.6212  -2.5722  -2.5722  -0.3444  -0.2687  -0.2687  -0.2261
     0.3663   0.3663   0.5038   0.6571   0.6571   0.6923   1.0656   1.0656
     1.2961   1.4401   1.5232   1.5232

          k = 0.1667 0.0962 0.0000 (109722 PWs)   bands (ev):

   -74.8997 -74.8997 -74.8782 -74.8782 -46.3520 -46.3520 -46.3289 -46.3289
   -46.3283 -46.3283 -46.3283 -46.3283 -46.3079 -46.3079 -46.3079 -46.3079
   -18.5481 -18.4577 -17.7894 -17.6705 -17.6028 -17.5725 -17.5494 -17.5217
   -17.3908 -17.3858 -17.3677 -17.3656  -9.9879  -9.9616  -9.6729  -9.2536
    -9.1512  -9.1334  -8.9868  -8.9734  -8.9283  -8.8679  -8.7506  -8.7190
    -8.3619  -8.3030  -7.9495  -7.8615  -7.8137  -7.7240  -7.7086  -7.6787
    -7.4162  -7.3882  -7.3151  -7.2195  -7.1839  -7.1172  -6.8464  -6.5129
    -6.4593  -6.4310  -6.3746  -6.3093  -6.1968  -6.0472  -5.9630  -5.8931
    -3.6659  -3.6577  -3.5459  -3.5252  -3.5068  -3.4873  -3.4054  -3.3749
    -3.3076  -3.2938  -3.2643  -3.2561  -2.8878  -2.8645  -2.7937  -2.7887
    -2.6795  -2.6443  -2.5841  -2.5518  -0.2786   0.0224   0.0981   0.3972
     0.5814   0.6022   0.6926   0.9034   0.9461   1.1552   1.4749   1.6983
     1.7730   1.8121   2.0037   2.0631

          k =-0.1667 0.0962 0.0000 (109722 PWs)   bands (ev):

   -74.8997 -74.8997 -74.8782 -74.8782 -46.3520 -46.3520 -46.3289 -46.3289
   -46.3283 -46.3283 -46.3283 -46.3283 -46.3079 -46.3079 -46.3079 -46.3079
   -18.5481 -18.4577 -17.7894 -17.6705 -17.6028 -17.5725 -17.5494 -17.5217
   -17.3908 -17.3858 -17.3677 -17.3656  -9.9879  -9.9616  -9.6729  -9.2536
    -9.1512  -9.1334  -8.9868  -8.9734  -8.9283  -8.8679  -8.7506  -8.7190
    -8.3619  -8.3030  -7.9495  -7.8615  -7.8137  -7.7240  -7.7086  -7.6787
    -7.4162  -7.3882  -7.3151  -7.2195  -7.1839  -7.1172  -6.8464  -6.5129
    -6.4593  -6.4310  -6.3746  -6.3093  -6.1968  -6.0472  -5.9630  -5.8931
    -3.6659  -3.6577  -3.5459  -3.5252  -3.5068  -3.4873  -3.4054  -3.3749
    -3.3076  -3.2938  -3.2643  -3.2561  -2.8878  -2.8645  -2.7937  -2.7887
    -2.6795  -2.6443  -2.5841  -2.5518  -0.2786   0.0224   0.0981   0.3972
     0.5814   0.6022   0.6926   0.9034   0.9461   1.1552   1.4749   1.6983
     1.7730   1.8121   2.0037   2.0631

          k = 0.3333 0.1925 0.0000 (109616 PWs)   bands (ev):

   -74.8997 -74.8997 -74.8782 -74.8782 -46.3520 -46.3520 -46.3290 -46.3290
   -46.3283 -46.3283 -46.3282 -46.3282 -46.3080 -46.3080 -46.3078 -46.3078
   -18.3851 -18.3044 -17.8091 -17.7593 -17.6965 -17.6023 -17.5931 -17.5601
   -17.4505 -17.4107 -17.3999 -17.3798  -9.9625  -9.9273  -9.5252  -9.2934
    -9.2654  -9.1006  -9.0715  -8.8898  -8.8731  -8.6715  -8.5285  -8.3797
    -8.3050  -8.1379  -7.9516  -7.8691  -7.8252  -7.7795  -7.5815  -7.4632
    -7.4115  -7.2337  -7.1924  -7.1518  -7.0922  -7.0783  -6.9509  -6.9279
    -6.8087  -6.7017  -6.5050  -6.4288  -6.3546  -6.0893  -6.0798  -6.0168
    -3.7131  -3.7060  -3.6716  -3.6119  -3.4553  -3.4365  -3.3399  -3.3071
    -3.2883  -3.2590  -3.2340  -3.2017  -2.8996  -2.8633  -2.7997  -2.7631
    -2.7208  -2.7049  -2.6725  -2.6146  -0.3108  -0.2456   0.4816   0.5650
     0.7560   0.8065   0.9289   1.0505   1.1578   1.2216   1.2795   1.3808
     1.4395   1.5978   1.6459   1.7541

          k =-0.3333 0.1925 0.0000 (109616 PWs)   bands (ev):

   -74.8997 -74.8997 -74.8782 -74.8782 -46.3520 -46.3520 -46.3290 -46.3290
   -46.3283 -46.3283 -46.3282 -46.3282 -46.3080 -46.3080 -46.3078 -46.3078
   -18.3851 -18.3044 -17.8091 -17.7593 -17.6965 -17.6023 -17.5931 -17.5601
   -17.4505 -17.4107 -17.3999 -17.3798  -9.9625  -9.9273  -9.5252  -9.2934
    -9.2654  -9.1006  -9.0715  -8.8898  -8.8731  -8.6715  -8.5285  -8.3798
    -8.3050  -8.1379  -7.9516  -7.8691  -7.8252  -7.7795  -7.5815  -7.4632
    -7.4115  -7.2337  -7.1924  -7.1518  -7.0922  -7.0783  -6.9509  -6.9279
    -6.8087  -6.7017  -6.5050  -6.4288  -6.3546  -6.0893  -6.0798  -6.0168
    -3.7131  -3.7060  -3.6716  -3.6119  -3.4553  -3.4365  -3.3399  -3.3071
    -3.2883  -3.2590  -3.2340  -3.2017  -2.8996  -2.8633  -2.7997  -2.7631
    -2.7208  -2.7049  -2.6725  -2.6146  -0.3108  -0.2456   0.4816   0.5650
     0.7560   0.8065   0.9289   1.0505   1.1578   1.2216   1.2795   1.3808
     1.4395   1.5978   1.6459   1.7541

          k =-0.5000-0.2887 0.0000 (109602 PWs)   bands (ev):

   -74.8997 -74.8997 -74.8782 -74.8782 -46.3520 -46.3520 -46.3290 -46.3290
   -46.3283 -46.3283 -46.3282 -46.3282 -46.3080 -46.3080 -46.3078 -46.3078
   -18.2152 -18.1789 -17.9645 -17.9337 -17.6237 -17.5981 -17.5782 -17.5634
   -17.4841 -17.4636 -17.4232 -17.3885  -9.9722  -9.9156  -9.3471  -9.3364
    -9.2874  -9.1218  -8.8969  -8.7645  -8.6784  -8.6297  -8.5030  -8.4907
    -8.2655  -8.1294  -7.9937  -7.9042  -7.7563  -7.7427  -7.5835  -7.5676
    -7.5257  -7.4637  -7.3859  -7.1061  -7.0588  -7.0406  -6.8399  -6.8196
    -6.7805  -6.6707  -6.5554  -6.4771  -6.3237  -6.2723  -5.9935  -5.9911
    -3.7906  -3.7701  -3.7228  -3.7200  -3.4931  -3.4611  -3.3053  -3.2798
    -3.2759  -3.2474  -3.1778  -3.1775  -2.9004  -2.8928  -2.7813  -2.7596
    -2.6979  -2.6556  -2.6451  -2.6121  -0.5830  -0.4523   0.1803   0.4910
     0.8179   0.8889   0.9054   1.0165   1.1904   1.2959   1.3734   1.4322
     1.4454   1.5979   1.6722   1.7632

          k = 0.5000-0.2887 0.0000 (109602 PWs)   bands (ev):

   -74.8997 -74.8997 -74.8782 -74.8782 -46.3520 -46.3520 -46.3290 -46.3290
   -46.3283 -46.3283 -46.3282 -46.3282 -46.3080 -46.3080 -46.3078 -46.3078
   -18.2152 -18.1789 -17.9645 -17.9337 -17.6237 -17.5981 -17.5782 -17.5634
   -17.4841 -17.4636 -17.4232 -17.3885  -9.9722  -9.9156  -9.3471  -9.3364
    -9.2874  -9.1218  -8.8969  -8.7645  -8.6784  -8.6297  -8.5030  -8.4907
    -8.2655  -8.1294  -7.9937  -7.9042  -7.7563  -7.7427  -7.5835  -7.5676
    -7.5257  -7.4637  -7.3859  -7.1061  -7.0588  -7.0406  -6.8399  -6.8196
    -6.7805  -6.6707  -6.5554  -6.4771  -6.3237  -6.2723  -5.9935  -5.9911
    -3.7906  -3.7701  -3.7228  -3.7200  -3.4931  -3.4611  -3.3053  -3.2798
    -3.2759  -3.2474  -3.1778  -3.1775  -2.9004  -2.8928  -2.7813  -2.7596
    -2.6979  -2.6556  -2.6451  -2.6121  -0.5830  -0.4523   0.1803   0.4910
     0.8179   0.8889   0.9053   1.0165   1.1904   1.2959   1.3734   1.4322
     1.4454   1.5979   1.6722   1.7632

          k = 0.3333 0.0000 0.0000 (109615 PWs)   bands (ev):

   -74.8997 -74.8997 -74.8782 -74.8782 -46.3520 -46.3520 -46.3290 -46.3290
   -46.3283 -46.3283 -46.3282 -46.3282 -46.3080 -46.3080 -46.3078 -46.3078
   -18.4363 -18.3515 -17.7269 -17.7236 -17.7008 -17.6184 -17.5962 -17.5775
   -17.4227 -17.4108 -17.3803 -17.3738  -9.9227  -9.8998  -9.6018  -9.3172
    -9.2115  -9.1993  -9.0382  -8.9679  -8.9230  -8.7462  -8.5461  -8.4723
    -8.2180  -8.0644  -7.9935  -7.9395  -7.8664  -7.7953  -7.5764  -7.4713
    -7.3296  -7.3069  -7.2395  -7.1795  -7.1194  -7.0601  -6.9964  -6.8342
    -6.5572  -6.5183  -6.4633  -6.4395  -6.3786  -6.1606  -6.0672  -6.0602
    -3.6721  -3.6439  -3.6248  -3.6124  -3.4411  -3.4204  -3.3701  -3.3654
    -3.2981  -3.2678  -3.2424  -3.2398  -2.8981  -2.8555  -2.8170  -2.7474
    -2.7345  -2.6990  -2.6099  -2.6049  -0.1941  -0.0397   0.3102   0.3902
     0.6072   0.6508   0.8383   0.9335   1.1518   1.1979   1.4577   1.5079
     1.5544   1.6735   1.7166   1.7809

          k =-0.1667 0.2887 0.0000 (109615 PWs)   bands (ev):

   -74.8997 -74.8997 -74.8782 -74.8782 -46.3520 -46.3520 -46.3290 -46.3290
   -46.3283 -46.3283 -46.3282 -46.3282 -46.3080 -46.3080 -46.3078 -46.3078
   -18.4363 -18.3515 -17.7269 -17.7236 -17.7008 -17.6184 -17.5962 -17.5775
   -17.4227 -17.4108 -17.3803 -17.3738  -9.9227  -9.8998  -9.6018  -9.3172
    -9.2115  -9.1993  -9.0382  -8.9679  -8.9230  -8.7462  -8.5461  -8.4723
    -8.2180  -8.0644  -7.9935  -7.9395  -7.8664  -7.7953  -7.5764  -7.4713
    -7.3296  -7.3069  -7.2395  -7.1795  -7.1194  -7.0601  -6.9964  -6.8342
    -6.5572  -6.5183  -6.4633  -6.4395  -6.3786  -6.1606  -6.0672  -6.0602
    -3.6721  -3.6439  -3.6248  -3.6124  -3.4411  -3.4204  -3.3701  -3.3654
    -3.2981  -3.2678  -3.2424  -3.2398  -2.8981  -2.8555  -2.8170  -2.7474
    -2.7345  -2.6990  -2.6099  -2.6049  -0.1941  -0.0397   0.3102   0.3902
     0.6072   0.6508   0.8383   0.9335   1.1518   1.1979   1.4576   1.5079
     1.5545   1.6735   1.7166   1.7809

          k = 0.5000 0.0962 0.0000 (109606 PWs)   bands (ev):

   -74.8997 -74.8997 -74.8782 -74.8782 -46.3520 -46.3520 -46.3290 -46.3290
   -46.3284 -46.3283 -46.3281 -46.3281 -46.3080 -46.3080 -46.3078 -46.3078
   -18.2453 -18.1801 -17.9210 -17.8847 -17.6617 -17.6323 -17.6157 -17.5413
   -17.4851 -17.4491 -17.4117 -17.3890  -9.8456  -9.7918  -9.4296  -9.3463
    -9.2588  -9.0824  -9.0391  -8.8882  -8.8126  -8.5751  -8.5681  -8.4723
    -8.3979  -8.2355  -7.9607  -7.8945  -7.7798  -7.7597  -7.5515  -7.5250
    -7.4934  -7.4367  -7.2730  -7.0737  -6.9905  -6.8743  -6.8093  -6.7910
    -6.7122  -6.6887  -6.5533  -6.4414  -6.3305  -6.2236  -6.1602  -6.0977
    -3.7688  -3.7212  -3.6778  -3.6696  -3.4772  -3.4505  -3.4146  -3.3902
    -3.2473  -3.2347  -3.2067  -3.1750  -2.8671  -2.8562  -2.7615  -2.7135
    -2.6686  -2.6580  -2.6286  -2.6167  -0.4277  -0.3248   0.1460   0.1724
     0.3631   0.6872   0.7365   0.7904   0.9842   1.0599   1.2641   1.3637
     1.4278   1.4566   1.5251   1.6632

          k =-0.3333 0.3849 0.0000 (109606 PWs)   bands (ev):

   -74.8997 -74.8997 -74.8782 -74.8782 -46.3520 -46.3520 -46.3290 -46.3290
   -46.3284 -46.3283 -46.3281 -46.3281 -46.3080 -46.3080 -46.3078 -46.3078
   -18.2453 -18.1801 -17.9210 -17.8847 -17.6617 -17.6323 -17.6157 -17.5413
   -17.4851 -17.4491 -17.4117 -17.3890  -9.8456  -9.7918  -9.4296  -9.3463
    -9.2588  -9.0824  -9.0391  -8.8882  -8.8126  -8.5751  -8.5681  -8.4723
    -8.3979  -8.2355  -7.9607  -7.8945  -7.7798  -7.7597  -7.5515  -7.5250
    -7.4934  -7.4367  -7.2730  -7.0737  -6.9905  -6.8743  -6.8093  -6.7910
    -6.7122  -6.6886  -6.5533  -6.4414  -6.3305  -6.2236  -6.1602  -6.0977
    -3.7688  -3.7212  -3.6778  -3.6696  -3.4772  -3.4505  -3.4146  -3.3902
    -3.2473  -3.2348  -3.2067  -3.1750  -2.8671  -2.8562  -2.7615  -2.7135
    -2.6686  -2.6580  -2.6286  -2.6168  -0.4277  -0.3248   0.1460   0.1724
     0.3631   0.6872   0.7365   0.7904   0.9842   1.0599   1.2641   1.3637
     1.4278   1.4566   1.5251   1.6632

          k = 0.1667-0.4811 0.0000 (109606 PWs)   bands (ev):

   -74.8997 -74.8997 -74.8782 -74.8782 -46.3520 -46.3520 -46.3290 -46.3290
   -46.3284 -46.3283 -46.3281 -46.3281 -46.3080 -46.3080 -46.3078 -46.3078
   -18.2454 -18.1797 -17.9240 -17.8815 -17.6620 -17.6353 -17.6128 -17.5409
   -17.4862 -17.4474 -17.4140 -17.3878  -9.8524  -9.7791  -9.4718  -9.2911
    -9.2610  -9.0943  -9.0566  -8.8520  -8.8195  -8.6319  -8.5468  -8.4567
    -8.4066  -8.2104  -7.9594  -7.9252  -7.7791  -7.7398  -7.5581  -7.5154
    -7.4803  -7.4619  -7.2777  -7.0373  -6.9838  -6.8987  -6.8525  -6.8008
    -6.7232  -6.6115  -6.5353  -6.4817  -6.3396  -6.2178  -6.1493  -6.1054
    -3.7678  -3.7188  -3.6986  -3.6519  -3.4604  -3.4522  -3.4329  -3.3842
    -3.2634  -3.2209  -3.1943  -3.1904  -2.8842  -2.8353  -2.7453  -2.7121
    -2.6868  -2.6641  -2.6296  -2.6104  -0.4262  -0.3262   0.1094   0.2160
     0.3808   0.6171   0.7329   0.8345   0.9642   1.0866   1.2617   1.3312
     1.4373   1.4550   1.6114   1.6818

          k =-0.3333-0.3849 0.0000 (109606 PWs)   bands (ev):

   -74.8997 -74.8997 -74.8782 -74.8782 -46.3520 -46.3520 -46.3290 -46.3290
   -46.3284 -46.3283 -46.3281 -46.3281 -46.3080 -46.3080 -46.3078 -46.3078
   -18.2454 -18.1797 -17.9240 -17.8815 -17.6620 -17.6353 -17.6128 -17.5409
   -17.4862 -17.4474 -17.4140 -17.3878  -9.8524  -9.7791  -9.4718  -9.2911
    -9.2610  -9.0943  -9.0566  -8.8520  -8.8195  -8.6319  -8.5468  -8.4567
    -8.4066  -8.2104  -7.9594  -7.9252  -7.7791  -7.7398  -7.5581  -7.5154
    -7.4803  -7.4619  -7.2777  -7.0373  -6.9838  -6.8987  -6.8525  -6.8008
    -6.7232  -6.6115  -6.5353  -6.4817  -6.3396  -6.2178  -6.1493  -6.1054
    -3.7678  -3.7188  -3.6986  -3.6519  -3.4604  -3.4522  -3.4329  -3.3842
    -3.2634  -3.2209  -3.1943  -3.1904  -2.8842  -2.8353  -2.7453  -2.7121
    -2.6868  -2.6641  -2.6296  -2.6104  -0.4262  -0.3262   0.1094   0.2160
     0.3808   0.6171   0.7329   0.8345   0.9642   1.0866   1.2617   1.3312
     1.4373   1.4550   1.6114   1.6818

          k = 0.5000-0.0962 0.0000 (109606 PWs)   bands (ev):

   -74.8997 -74.8997 -74.8782 -74.8782 -46.3520 -46.3520 -46.3290 -46.3290
   -46.3284 -46.3283 -46.3281 -46.3281 -46.3080 -46.3080 -46.3078 -46.3078
   -18.2454 -18.1797 -17.9240 -17.8815 -17.6620 -17.6353 -17.6128 -17.5409
   -17.4862 -17.4474 -17.4140 -17.3878  -9.8524  -9.7791  -9.4718  -9.2911
    -9.2610  -9.0943  -9.0566  -8.8520  -8.8195  -8.6319  -8.5468  -8.4567
    -8.4066  -8.2104  -7.9594  -7.9252  -7.7791  -7.7398  -7.5581  -7.5154
    -7.4803  -7.4619  -7.2777  -7.0373  -6.9838  -6.8987  -6.8525  -6.8008
    -6.7232  -6.6115  -6.5353  -6.4817  -6.3396  -6.2178  -6.1493  -6.1054
    -3.7678  -3.7188  -3.6987  -3.6519  -3.4604  -3.4522  -3.4329  -3.3842
    -3.2634  -3.2209  -3.1943  -3.1904  -2.8842  -2.8353  -2.7453  -2.7121
    -2.6868  -2.6641  -2.6296  -2.6104  -0.4262  -0.3262   0.1094   0.2160
     0.3808   0.6171   0.7329   0.8345   0.9642   1.0866   1.2617   1.3312
     1.4373   1.4550   1.6114   1.6818

     highest occupied, lowest unoccupied level (ev):    -5.5407   -4.3865

!    total energy              =   -5464.16158495 Ry
     total all-electron energy =     -5464.161585 Ry
     estimated scf accuracy    <          9.9E-12 Ry

     The total energy is the sum of the following terms:
     one-electron contribution =   -9588.71562482 Ry
     hartree contribution      =    4768.67182009 Ry
     xc contribution           =    -163.59017661 Ry
     ewald contribution        =    3989.39166456 Ry
     one-center paw contrib.   =   -4469.91926816 Ry

     total magnetization       =    12.00 Bohr mag/cell
     absolute magnetization    =    14.53 Bohr mag/cell

     convergence has been achieved in  12 iterations

     negative rho (up, down):  3.067E-02 3.486E-02

     Forces acting on atoms (cartesian axes, Ry/au):

     atom    1 type  1   force =     0.00000125    0.00000090   -0.00081856
     atom    2 type  1   force =     0.00000039    0.00000010   -0.00046031
     atom    3 type  2   force =     0.00043159    0.00031585   -0.00098003
     atom    4 type  2   force =     0.00005806   -0.00053139   -0.00098008
     atom    5 type  2   force =    -0.00048888    0.00021521   -0.00097857
     atom    6 type  2   force =    -0.00035348    0.00005561    0.00032389
     atom    7 type  2   force =     0.00022648    0.00027740    0.00032425
     atom    8 type  2   force =     0.00012801   -0.00033554    0.00032416
     atom    9 type  1   force =    -0.00000056   -0.00000146    0.00045783
     atom   10 type  1   force =     0.00000127    0.00000062    0.00081895
     atom   11 type  2   force =     0.00035288   -0.00006098   -0.00032373
     atom   12 type  2   force =    -0.00023045   -0.00027545   -0.00032301
     atom   13 type  2   force =    -0.00012414    0.00033764   -0.00032319
     atom   14 type  2   force =    -0.00043217   -0.00032021    0.00097992
     atom   15 type  2   force =    -0.00006294    0.00053386    0.00097941
     atom   16 type  2   force =     0.00049268   -0.00021215    0.00097906

     Total force =     0.003262     Total SCF correction =     0.000007


     Computing stress (Cartesian axis) and pressure


     negative rho (up, down):  3.067E-02 3.486E-02
          total   stress  (Ry/bohr**3)                   (kbar)     P=        1.54
   0.00000458  -0.00000000  -0.00000000            0.67       -0.00       -0.00
  -0.00000000   0.00000458  -0.00000000           -0.00        0.67       -0.00
  -0.00000000  -0.00000000   0.00002225           -0.00       -0.00        3.27

     Energy error            =      2.2E-05 Ry
     Gradient error          =      9.8E-04 Ry/Bohr

     bfgs converged in   9 scf cycles and   8 bfgs steps
     (criteria: energy <  1.0E-04 Ry, force <  1.0E-03 Ry/Bohr)

     End of BFGS Geometry Optimization

     Final energy             =   -5464.1615849451 Ry

     File ./lt_fm_qe/lt_fm_qe.bfgs deleted, as requested
Begin final coordinates

ATOMIC_POSITIONS (angstrom)
Cr               2.2923060264        3.9704089527       17.0352092873
Cr              -1.1461543812        5.9556534026       17.0436856200
I                3.2912782404        1.9792993324       15.5017290081
I                0.0684633548        4.1008826937       15.5017297965
I               -3.3597694168        5.8311262889       15.5017451494
I                1.2981529287        1.9881315323       18.5764757279
I                1.0726812740        5.8225513595       18.5764759532
I               -2.3708612369        4.1006192941       18.5764602713
Cr               5.7308070253        1.9852347327       10.4642369816
Cr               2.2922922882        3.9704225562       10.4727154905
I                6.7249777777       -0.0028951887        8.9314766294
I                3.5119694908        2.1183146460        8.9314530773
I                0.0784993012        3.8402462821        8.9314427848
I                4.7318615540        0.0059495782       12.0061978265
I                4.5161789993        3.8399883286       12.0061930223
I                1.0674059542        2.1097281485       12.0062010641
End final coordinates



     Writing all to output data dir ./lt_fm_qe/lt_fm_qe.save/ :
     XML data file, charge density, pseudopotentials, collected wavefunctions

     init_run     :     37.30s CPU     37.94s WALL (       1 calls)
     electrons    :   9085.59s CPU   9396.29s WALL (       9 calls)
     update_pot   :      8.18s CPU      8.28s WALL (       8 calls)
     forces       :     67.71s CPU     69.18s WALL (       9 calls)
     stress       :   1172.07s CPU   1187.58s WALL (       9 calls)

     Called by init_run:
     wfcinit      :     34.74s CPU     35.25s WALL (       1 calls)
     potinit      :      1.03s CPU      1.08s WALL (       1 calls)
     hinit0       :      0.91s CPU      0.92s WALL (       1 calls)

     Called by electrons:
     c_bands      :   7458.78s CPU   7724.16s WALL (     131 calls)
     sum_band     :   1442.23s CPU   1475.65s WALL (     131 calls)
     v_of_rho     :     28.29s CPU     28.77s WALL (     132 calls)
     newd         :     42.53s CPU     48.88s WALL (     132 calls)
     PAW_pot      :    113.39s CPU    114.34s WALL (     140 calls)
     mix_rho      :     13.25s CPU     13.65s WALL (     131 calls)

     Called by c_bands:
     init_us_2    :    129.29s CPU    130.71s WALL (   11560 calls)
     init_us_2:cp :    129.17s CPU    130.65s WALL (   11560 calls)
     cegterg      :   7176.89s CPU   7437.75s WALL (    5240 calls)

     Called by *egterg:
     cdiaghg      :    517.94s CPU    521.11s WALL (   18608 calls)
     h_psi        :   4885.64s CPU   5013.56s WALL (   19288 calls)
     s_psi        :    302.04s CPU    304.71s WALL (   19288 calls)
     g_psi        :     44.76s CPU     45.30s WALL (   14008 calls)

     Called by h_psi:
     h_psi:calbec :    351.18s CPU    358.57s WALL (   19288 calls)
     vloc_psi     :   4163.61s CPU   4222.53s WALL (   19288 calls)
     add_vuspsi   :    292.87s CPU    295.55s WALL (   19288 calls)

     General routines
     calbec       :    543.77s CPU    554.10s WALL (   26648 calls)
     fft          :     20.85s CPU     21.74s WALL (    3666 calls)
     ffts         :      1.83s CPU      1.95s WALL (     526 calls)
     fftw         :   3959.96s CPU   4017.73s WALL ( 3081522 calls)
     interpolate  :      2.92s CPU      3.27s WALL (     264 calls)

     Parallel routines

     PWSCF        :      2h53m CPU      2h59m WALL


   This run was terminated on:  17:15:19  17Oct2024            

=------------------------------------------------------------------------------=
   JOB DONE.
=------------------------------------------------------------------------------=
