
                                 *****************
                                 * O   R   C   A *
                                 *****************

                                            #,                                       
                                            ###                                      
                                            ####                                     
                                            #####                                    
                                            ######                                   
                                           ########,                                 
                                     ,,################,,,,,                         
                               ,,#################################,,                 
                          ,,##########################################,,             
                       ,#########################################, ''#####,          
                    ,#############################################,,   '####,        
                  ,##################################################,,,,####,       
                ,###########''''           ''''###############################       
              ,#####''   ,,,,##########,,,,          '''####'''          '####       
            ,##' ,,,,###########################,,,                        '##       
           ' ,,###''''                  '''############,,,                           
         ,,##''                                '''############,,,,        ,,,,,,###''
      ,#''                                            '''#######################'''  
     '                                                          ''''####''''         
             ,#######,   #######,   ,#######,      ##                                
            ,#'     '#,  ##    ##  ,#'     '#,    #''#        ######   ,####,        
            ##       ##  ##   ,#'  ##            #'  '#       #        #'  '#        
            ##       ##  #######   ##           ,######,      #####,   #    #        
            '#,     ,#'  ##    ##  '#,     ,#' ,#      #,         ##   #,  ,#        
             '#######'   ##     ##  '#######'  #'      '#     #####' # '####'        



                  #######################################################
                  #                        -***-                        #
                  #          Department of theory and spectroscopy      #
                  #    Directorship and core code : Frank Neese         #
                  #        Max Planck Institute fuer Kohlenforschung    #
                  #                Kaiser Wilhelm Platz 1               #
                  #                 D-45470 Muelheim/Ruhr               #
                  #                      Germany                        #
                  #                                                     #
                  #                  All rights reserved                #
                  #                        -***-                        #
                  #######################################################


                         Program Version 5.0.2 -  RELEASE  -


 With contributions from (in alphabetic order):
   Daniel Aravena         : Magnetic Suceptibility
   Michael Atanasov       : Ab Initio Ligand Field Theory (pilot matlab implementation)
   Alexander A. Auer      : GIAO ZORA, VPT2 properties, NMR spectrum
   Ute Becker             : Parallelization
   Giovanni Bistoni       : ED, misc. LED, open-shell LED, HFLD
   Martin Brehm           : Molecular dynamics
   Dmytro Bykov           : SCF Hessian
   Vijay G. Chilkuri      : MRCI spin determinant printing, contributions to CSF-ICE
   Dipayan Datta          : RHF DLPNO-CCSD density
   Achintya Kumar Dutta   : EOM-CC, STEOM-CC
   Dmitry Ganyushin       : Spin-Orbit,Spin-Spin,Magnetic field MRCI
   Miquel Garcia          : C-PCM and meta-GGA Hessian, CC/C-PCM, Gaussian charge scheme
   Yang Guo               : DLPNO-NEVPT2, F12-NEVPT2, CIM, IAO-localization
   Andreas Hansen         : Spin unrestricted coupled pair/coupled cluster methods
   Benjamin Helmich-Paris : MC-RPA, TRAH-SCF, COSX integrals
   Lee Huntington         : MR-EOM, pCC
   Robert Izsak           : Overlap fitted RIJCOSX, COSX-SCS-MP3, EOM
   Marcus Kettner         : VPT2
   Christian Kollmar      : KDIIS, OOCD, Brueckner-CCSD(T), CCSD density, CASPT2, CASPT2-K
   Simone Kossmann        : Meta GGA functionals, TD-DFT gradient, OOMP2, MP2 Hessian
   Martin Krupicka        : Initial AUTO-CI
   Lucas Lang             : DCDCAS
   Marvin Lechner         : AUTO-CI (C++ implementation), FIC-MRCC
   Dagmar Lenk            : GEPOL surface, SMD
   Dimitrios Liakos       : Extrapolation schemes; Compound Job, initial MDCI parallelization
   Dimitrios Manganas     : Further ROCIS development; embedding schemes
   Dimitrios Pantazis     : SARC Basis sets
   Anastasios Papadopoulos: AUTO-CI, single reference methods and gradients
   Taras Petrenko         : DFT Hessian,TD-DFT gradient, ASA, ECA, R-Raman, ABS, FL, XAS/XES, NRVS
   Peter Pinski           : DLPNO-MP2, DLPNO-MP2 Gradient
   Christoph Reimann      : Effective Core Potentials
   Marius Retegan         : Local ZFS, SOC
   Christoph Riplinger    : Optimizer, TS searches, QM/MM, DLPNO-CCSD(T), (RO)-DLPNO pert. Triples
   Tobias Risthaus        : Range-separated hybrids, TD-DFT gradient, RPA, STAB
   Michael Roemelt        : Original ROCIS implementation
   Masaaki Saitow         : Open-shell DLPNO-CCSD energy and density
   Barbara Sandhoefer     : DKH picture change effects
   Avijit Sen             : IP-ROCIS
   Kantharuban Sivalingam : CASSCF convergence, NEVPT2, FIC-MRCI
   Bernardo de Souza      : ESD, SOC TD-DFT
   Georgi Stoychev        : AutoAux, RI-MP2 NMR, DLPNO-MP2 response
   Willem Van den Heuvel  : Paramagnetic NMR
   Boris Wezisla          : Elementary symmetry handling
   Frank Wennmohs         : Technical directorship


 We gratefully acknowledge several colleagues who have allowed us to
 interface, adapt or use parts of their codes:
   Stefan Grimme, W. Hujo, H. Kruse, P. Pracht,  : VdW corrections, initial TS optimization,
                  C. Bannwarth, S. Ehlert          DFT functionals, gCP, sTDA/sTD-DF
   Ed Valeev, F. Pavosevic, A. Kumar             : LibInt (2-el integral package), F12 methods
   Garnet Chan, S. Sharma, J. Yang, R. Olivares  : DMRG
   Ulf Ekstrom                                   : XCFun DFT Library
   Mihaly Kallay                                 : mrcc  (arbitrary order and MRCC methods)
   Jiri Pittner, Ondrej Demel                    : Mk-CCSD
   Frank Weinhold                                : gennbo (NPA and NBO analysis)
   Christopher J. Cramer and Donald G. Truhlar   : smd solvation model
   Lars Goerigk                                  : TD-DFT with DH, B97 family of functionals
   V. Asgeirsson, H. Jonsson                     : NEB implementation
   FAccTs GmbH                                   : IRC, NEB, NEB-TS, DLPNO-Multilevel, CI-OPT
                                                   MM, QMMM, 2- and 3-layer-ONIOM, Crystal-QMMM,
                                                   LR-CPCM, SF, NACMEs, symmetry and pop. for TD-DFT,
                                                   nearIR, NL-DFT gradient (VV10), updates on ESD,
                                                   ML-optimized integration grids
   S Lehtola, MJT Oliveira, MAL Marques          : LibXC Library
   Liviu Ungur et al                             : ANISO software


 Your calculation uses the libint2 library for the computation of 2-el integrals
 For citations please refer to: http://libint.valeyev.net

 Your ORCA version has been built with support for libXC version: 5.1.0
 For citations please refer to: https://tddft.org/programs/libxc/

 This ORCA versions uses:
   CBLAS   interface :  Fast vector & matrix operations
   LAPACKE interface :  Fast linear algebra routines
   SCALAPACK package :  Parallel linear algebra routines
   Shared memory     :  Shared parallel matrices
   BLAS/LAPACK       :  OpenBLAS 0.3.15  USE64BITINT DYNAMIC_ARCH NO_AFFINITY Zen SINGLE_THREADED
        Core in use  :  Zen
   Copyright (c) 2011-2014, The OpenBLAS Project


================================================================================

----- Orbital basis set information -----
Your calculation utilizes the basis: def2-TZVP
   F. Weigend and R. Ahlrichs, Phys. Chem. Chem. Phys. 7, 3297 (2005).

----- AuxJ basis set information -----
Your calculation utilizes the auxiliary basis: def2/J
   F. Weigend, Phys. Chem. Chem. Phys. 8, 1057 (2006).

================================================================================
                                        WARNINGS
                       Please study these warnings very carefully!
================================================================================


WARNING: your system is open-shell and RHF/RKS was chosen
  ===> : WILL SWITCH to UHF/UKS


WARNING: Geometry Optimization
  ===> : Switching off AutoStart
         For restart on a previous wavefunction, please use MOREAD

INFO   : the flag for use of the SHARK integral package has been found!

================================================================================
                                       INPUT FILE
================================================================================
NAME = Fe2_tert-butoxide_6_HighSpin_Opt.inp
|  1> ! PBE0 OPT def2-TZVP
|  2> %pal nprocs 32 end
|  3> %maxcore 3000
|  4> 
|  5> * xyz 0 11
|  6> Fe         9.71899        3.40552        6.88840
|  7> O          9.66188        1.45599        6.71309
|  8> O         10.98919        4.12773        5.84173
|  9> O          8.13899        4.23181        6.83329
| 10> C          8.96430        0.63543        5.74901
| 11> C         11.08212        5.18968        4.90175
| 12> C          6.90142        4.51786        7.44935
| 13> C          9.72741       -0.63395        5.55880
| 14> H         10.64754       -0.42576        5.29475
| 15> H          9.29999       -1.17002        4.85723
| 16> H          9.73449       -1.14026        6.39700
| 17> C          7.55703        0.42358        6.25730
| 18> H          7.57671       -0.17536        7.03255
| 19> H          7.01084        0.02405        5.54805
| 20> H          7.17254        1.28591        6.51981
| 21> C          8.91314        1.39427        4.43814
| 22> H          8.46826        2.25718        4.57784
| 23> H          8.41267        0.87217        3.77802
| 24> H          9.82495        1.54600        4.11268
| 25> C         12.47403        5.33066        4.50568
| 26> H         12.99535        5.67943        5.25791
| 27> H         12.53760        5.95063        3.74885
| 28> H         12.82821        4.45528        4.24164
| 29> C         10.39224        6.37266        5.35923
| 30> H          9.45694        6.15056        5.55266
| 31> H         10.42711        7.06022        4.66227
| 32> H         10.82355        6.70853        6.17286
| 33> C         10.34342        4.72651        3.58459
| 34> H         10.64920        3.82863        3.33743
| 35> H         10.54788        5.35212        2.85846
| 36> H          9.37660        4.71142        3.74118
| 37> C          6.71982        3.60837        8.65982
| 38> H          6.75447        2.67131        8.37121
| 39> H          5.85215        3.78989        9.07738
| 40> H          7.43678        3.77759        9.30612
| 41> C          5.81448        4.29139        6.42309
| 42> H          6.00377        4.82444        5.62328
| 43> H          4.94985        4.56151        6.79767
| 44> H          5.78374        3.34212        6.18361
| 45> C          6.94996        5.98978        7.86614
| 46> H          7.63433        6.11183        8.55696
| 47> H          6.07617        6.25838        8.22076
| 48> H          7.17007        6.54264        7.08782
| 49> Fe        10.40455        0.98829        8.46316
| 50> O         10.46166        2.93783        8.63848
| 51> O          9.13435        0.26609        9.50983
| 52> O         11.98455        0.16201        8.51827
| 53> C         11.15924        3.75838        9.60256
| 54> C          9.04141       -0.79586       10.44981
| 55> C         13.22212       -0.12404        7.90222
| 56> C         10.39613        5.02777        9.79276
| 57> H          9.47600        4.81958       10.05681
| 58> H         10.82355        5.56383       10.49433
| 59> H         10.38905        5.53407        8.95457
| 60> C         12.56651        3.97024        9.09427
| 61> H         12.54683        4.56918        8.31901
| 62> H         13.11270        4.36977        9.80351
| 63> H         12.95100        3.10791        8.83175
| 64> C         11.21040        2.99955       10.91343
| 65> H         11.65527        2.13664       10.77373
| 66> H         11.71087        3.52165       11.57354
| 67> H         10.29859        2.84781       11.23888
| 68> C          7.64951       -0.93684       10.84588
| 69> H          7.12819       -1.28561       10.09365
| 70> H          7.58594       -1.55682       11.60271
| 71> H          7.29533       -0.06146       11.10993
| 72> C          9.73130       -1.97884        9.99233
| 73> H         10.66659       -1.75674        9.79890
| 74> H          9.69643       -2.66640       10.68929
| 75> H          9.29999       -2.31471        9.17870
| 76> C          9.78012       -0.33269       11.76697
| 77> H          9.47434        0.56518       12.01413
| 78> H          9.57566       -0.95830       12.49310
| 79> H         10.74693       -0.31760       11.61039
| 80> C         13.40372        0.78545        6.69175
| 81> H         13.36907        1.72251        6.98036
| 82> H         14.27139        0.60393        6.27418
| 83> H         12.68676        0.61623        6.04544
| 84> C         14.30906        0.10242        8.92847
| 85> H         14.11977       -0.43063        9.72828
| 86> H         15.17369       -0.16769        8.55389
| 87> H         14.33980        1.05170        9.16795
| 88> C         13.17358       -1.59596        7.48542
| 89> H         12.48921       -1.71801        6.79460
| 90> H         14.04737       -1.86457        7.13080
| 91> H         12.95347       -2.14883        8.26375
| 92> *
| 93> 
| 94>                          ****END OF INPUT****
================================================================================

                       *****************************
                       * Geometry Optimization Run *
                       *****************************

Geometry optimization settings:
Update method            Update   .... BFGS
Choice of coordinates    CoordSys .... Z-matrix Internals
Initial Hessian          InHess   .... Almoef's Model

Convergence Tolerances:
Energy Change            TolE     ....  5.0000e-06 Eh
Max. Gradient            TolMAXG  ....  3.0000e-04 Eh/bohr
RMS Gradient             TolRMSG  ....  1.0000e-04 Eh/bohr
Max. Displacement        TolMAXD  ....  4.0000e-03 bohr
RMS Displacement         TolRMSD  ....  2.0000e-03 bohr
Strict Convergence                ....  False
------------------------------------------------------------------------------
                        ORCA OPTIMIZATION COORDINATE SETUP
------------------------------------------------------------------------------

The optimization will be done in new redundant internal coordinates
Making redundant internal coordinates   ...  (new redundants) done
Evaluating the initial hessian          ...  (Almloef) done
Evaluating the coordinates              ...  done
Calculating the B-matrix                .... done
Calculating the G-matrix                .... done
Diagonalizing the G-matrix              .... done
Small eigenvalue found = 2.807e-03
Small eigenvalue found = 2.938e-03
Small eigenvalue found = 3.587e-03
Small eigenvalue found = 8.035e-03
Small eigenvalue found = 8.687e-03
Small eigenvalue found = 8.809e-03
Small eigenvalue found = 1.064e-02
Small eigenvalue found = 1.277e-02
Small eigenvalue found = 1.298e-02
Small eigenvalue found = 1.459e-02
Small eigenvalue found = 1.486e-02
Small eigenvalue found = 1.790e-02
Small eigenvalue found = 1.844e-02
Small eigenvalue found = 2.419e-02
Small eigenvalue found = 2.508e-02
The first mode is                       ....  253
The number of degrees of freedom        ....  252

    -----------------------------------------------------------------
                    Redundant Internal Coordinates


    -----------------------------------------------------------------
         Definition                    Initial Value    Approx d2E/dq
    -----------------------------------------------------------------
      1. B(O   1,Fe  0)                  1.9582         0.702145   
      2. B(O   2,Fe  0)                  1.7974         1.267882   
      3. B(O   3,Fe  0)                  1.7839         1.332311   
      4. B(C   4,O   1)                  1.4455         0.456431   
      5. B(C   5,O   2)                  1.4212         0.498915   
      6. B(C   6,O   3)                  1.4117         0.516694   
      7. B(C   7,C   4)                  1.4933         0.427548   
      8. B(H   8,C   7)                  0.9796         0.540116   
      9. B(H   9,C   7)                  0.9809         0.537537   
     10. B(H  10,C   7)                  0.9793         0.540852   
     11. B(C  11,C   4)                  1.5112         0.400325   
     12. B(H  12,C  11)                  0.9799         0.539687   
     13. B(H  13,C  11)                  0.9803         0.538823   
     14. B(H  14,C  11)                  0.9800         0.539456   
     15. B(C  15,C   4)                  1.5155         0.393968   
     16. B(H  16,C  15)                  0.9808         0.537750   
     17. B(H  17,C  15)                  0.9792         0.541016   
     18. B(H  18,C  15)                  0.9800         0.539470   
     19. B(C  19,C   5)                  1.4540         0.493863   
     20. B(H  20,C  19)                  0.9794         0.540562   
     21. B(H  21,C  19)                  0.9804         0.538609   
     22. B(H  22,C  19)                  0.9805         0.538352   
     23. B(C  23,C   5)                  1.4438         0.512679   
     24. B(H  24,C  23)                  0.9806         0.538272   
     25. B(H  25,C  23)                  0.9796         0.540113   
     26. B(H  26,C  23)                  0.9802         0.538977   
     27. B(C  27,C   5)                  1.5796         0.311354   
     28. B(H  28,C  27)                  0.9802         0.539031   
     29. B(H  29,C  27)                  0.9800         0.539355   
     30. B(H  30,C  27)                  0.9795         0.540335   
     31. B(C  31,C   6)                  1.5249         0.380609   
     32. B(H  32,C  31)                  0.9811         0.537217   
     33. B(H  33,C  31)                  0.9799         0.539658   
     34. B(H  34,C  31)                  0.9800         0.539442   
     35. B(C  35,C   6)                  1.5119         0.399213   
     36. B(H  36,C  35)                  0.9796         0.540152   
     37. B(H  37,C  35)                  0.9802         0.538948   
     38. B(H  38,C  35)                  0.9795         0.540416   
     39. B(C  39,C   6)                  1.5306         0.372805   
     40. B(H  40,C  39)                  0.9800         0.539321   
     41. B(H  41,C  39)                  0.9805         0.538392   
     42. B(H  42,C  39)                  0.9797         0.539934   
     43. B(Fe 43,O   1)                  1.9578         0.703209   
     44. B(Fe 43,Fe  0)                  2.9653         0.196217   
     45. B(O  44,Fe 43)                  1.9582         0.702117   
     46. B(O  44,Fe  0)                  1.9578         0.703192   
     47. B(O  45,Fe 43)                  1.7974         1.267900   
     48. B(O  46,Fe 43)                  1.7839         1.332334   
     49. B(C  47,O  44)                  1.4455         0.456440   
     50. B(C  48,O  45)                  1.4212         0.498914   
     51. B(C  49,O  46)                  1.4117         0.516702   
     52. B(C  50,C  47)                  1.4933         0.427537   
     53. B(H  51,C  50)                  0.9796         0.540116   
     54. B(H  52,C  50)                  0.9809         0.537548   
     55. B(H  53,C  50)                  0.9793         0.540879   
     56. B(C  54,C  47)                  1.5112         0.400323   
     57. B(H  55,C  54)                  0.9799         0.539671   
     58. B(H  56,C  54)                  0.9803         0.538838   
     59. B(H  57,C  54)                  0.9800         0.539451   
     60. B(C  58,C  47)                  1.5155         0.393975   
     61. B(H  59,C  58)                  0.9808         0.537759   
     62. B(H  60,C  58)                  0.9792         0.541029   
     63. B(H  61,C  58)                  0.9800         0.539473   
     64. B(C  62,C  48)                  1.4540         0.493880   
     65. B(H  63,C  62)                  0.9794         0.540562   
     66. B(H  64,C  62)                  0.9804         0.538597   
     67. B(H  65,C  62)                  0.9805         0.538346   
     68. B(C  66,C  48)                  1.4438         0.512670   
     69. B(H  67,C  66)                  0.9806         0.538291   
     70. B(H  68,C  66)                  0.9796         0.540113   
     71. B(H  69,C  66)                  0.9802         0.538977   
     72. B(C  70,C  48)                  1.5796         0.311349   
     73. B(H  71,C  70)                  0.9802         0.539049   
     74. B(H  72,C  70)                  0.9800         0.539355   
     75. B(H  73,C  70)                  0.9795         0.540357   
     76. B(C  74,C  49)                  1.5249         0.380609   
     77. B(H  75,C  74)                  0.9811         0.537217   
     78. B(H  76,C  74)                  0.9799         0.539650   
     79. B(H  77,C  74)                  0.9800         0.539429   
     80. B(C  78,C  49)                  1.5119         0.399225   
     81. B(H  79,C  78)                  0.9796         0.540152   
     82. B(H  80,C  78)                  0.9802         0.538953   
     83. B(H  81,C  78)                  0.9795         0.540396   
     84. B(C  82,C  49)                  1.5306         0.372801   
     85. B(H  83,C  82)                  0.9800         0.539321   
     86. B(H  84,C  82)                  0.9805         0.538387   
     87. B(H  85,C  82)                  0.9798         0.539907   
     88. A(O   1,Fe  0,O  44)           81.5623         0.570437   
     89. A(O   2,Fe  0,O  44)          110.3929         0.639338   
     90. A(O   1,Fe  0,Fe 43)           40.7758         0.492742   
     91. A(Fe 43,Fe  0,O  44)           40.7866         0.492879   
     92. A(O   2,Fe  0,Fe 43)          118.2569         0.550524   
     93. A(O   1,Fe  0,O   2)          111.6236         0.639152   
     94. A(O   1,Fe  0,O   3)          115.6293         0.645359   
     95. A(O   3,Fe  0,Fe 43)          126.7820         0.555731   
     96. A(O   2,Fe  0,O   3)          114.9498         0.724982   
     97. A(O   3,Fe  0,O  44)          118.3104         0.645547   
     98. A(Fe  0,O   1,Fe 43)           98.4380         0.570439   
     99. A(C   4,O   1,Fe 43)          130.0644         0.466226   
    100. A(Fe  0,O   1,C   4)          129.7128         0.466096   
    101. A(Fe  0,O   2,C   5)          137.0198         0.528836   
    102. A(Fe  0,O   3,C   6)          148.9627         0.537337   
    103. A(O   1,C   4,C   7)          108.7173         0.382545   
    104. A(O   1,C   4,C  15)          107.9958         0.377160   
    105. A(C   7,C   4,C  11)          113.5514         0.376323   
    106. A(C  11,C   4,C  15)          109.2500         0.371053   
    107. A(O   1,C   4,C  11)          107.7377         0.378206   
    108. A(C   7,C   4,C  15)          109.4334         0.375284   
    109. A(O   2,C   5,C  23)          111.8021         0.401085   
    110. A(C  23,C   5,C  27)          106.3202         0.371822   
    111. A(O   2,C   5,C  19)          108.3728         0.398454   
    112. A(C  19,C   5,C  23)          117.6629         0.402950   
    113. A(C  19,C   5,C  27)          104.4164         0.369438   
    114. A(O   2,C   5,C  27)          107.5672         0.367772   
    115. A(O   3,C   6,C  31)          109.2659         0.383058   
    116. A(O   3,C   6,C  35)          107.6778         0.386252   
    117. A(C  35,C   6,C  39)          110.5905         0.367374   
    118. A(C  31,C   6,C  35)          111.3371         0.368683   
    119. A(O   3,C   6,C  39)          106.6124         0.381683   
    120. A(C  31,C   6,C  39)          111.1729         0.364384   
    121. A(H   8,C   7,H  10)          109.4991         0.331571   
    122. A(C   4,C   7,H   9)          109.4497         0.354645   
    123. A(H   9,C   7,H  10)          109.4370         0.331309   
    124. A(C   4,C   7,H  10)          109.5223         0.355014   
    125. A(C   4,C   7,H   8)          109.4916         0.354933   
    126. A(H   8,C   7,H   9)          109.4276         0.331234   
    127. A(C   4,C  11,H  13)          109.4291         0.350860   
    128. A(C   4,C  11,H  12)          109.4573         0.350955   
    129. A(H  13,C  11,H  14)          109.5018         0.331298   
    130. A(H  12,C  11,H  14)          109.5003         0.331386   
    131. A(C   4,C  11,H  14)          109.3969         0.350929   
    132. A(H  12,C  11,H  13)          109.5418         0.331322   
    133. A(H  17,C  15,H  18)          109.5250         0.331522   
    134. A(H  16,C  15,H  18)          109.4576         0.331190   
    135. A(C   4,C  15,H  18)          109.4740         0.349984   
    136. A(H  16,C  15,H  17)          109.4681         0.331347   
    137. A(C   4,C  15,H  17)          109.4745         0.350153   
    138. A(C   4,C  15,H  16)          109.4281         0.349795   
    139. A(H  21,C  19,H  22)          109.4661         0.331164   
    140. A(H  20,C  19,H  22)          109.4184         0.331362   
    141. A(C   5,C  19,H  22)          109.4250         0.363551   
    142. A(H  20,C  19,H  21)          109.4628         0.331389   
    143. A(C   5,C  19,H  21)          109.4912         0.363581   
    144. A(C   5,C  19,H  20)          109.5637         0.363806   
    145. A(H  25,C  23,H  26)          109.5350         0.331381   
    146. A(H  24,C  23,H  26)          109.4856         0.331193   
    147. A(C   5,C  23,H  26)          109.4813         0.365958   
    148. A(H  24,C  23,H  25)          109.4667         0.331309   
    149. A(C   5,C  23,H  25)          109.4276         0.366090   
    150. A(C   5,C  23,H  24)          109.4311         0.365876   
    151. A(H  29,C  27,H  30)          109.5238         0.331442   
    152. A(H  28,C  27,H  30)          109.5183         0.331408   
    153. A(C   5,C  27,H  30)          109.4386         0.336536   
    154. A(H  28,C  27,H  29)          109.4413         0.331309   
    155. A(C   5,C  27,H  29)          109.4561         0.336434   
    156. A(C   5,C  27,H  28)          109.4492         0.336400   
    157. A(H  33,C  31,H  34)          109.5605         0.331382   
    158. A(H  32,C  31,H  34)          109.4563         0.331133   
    159. A(C   6,C  31,H  34)          109.4748         0.347951   
    160. A(H  32,C  31,H  33)          109.4849         0.331155   
    161. A(C   6,C  31,H  33)          109.4649         0.347974   
    162. A(C   6,C  31,H  32)          109.3857         0.347709   
    163. A(H  37,C  35,H  38)          109.4394         0.331408   
    164. A(H  36,C  35,H  38)          109.4992         0.331531   
    165. A(C   6,C  35,H  38)          109.4925         0.350870   
    166. A(H  36,C  35,H  37)          109.4195         0.331382   
    167. A(C   6,C  35,H  37)          109.4792         0.350709   
    168. A(C   6,C  35,H  36)          109.4973         0.350841   
    169. A(H  41,C  39,H  42)          109.4474         0.331303   
    170. A(H  40,C  39,H  42)          109.4398         0.331397   
    171. A(C   6,C  39,H  42)          109.4795         0.346793   
    172. A(H  40,C  39,H  41)          109.4660         0.331240   
    173. A(C   6,C  39,H  41)          109.4915         0.346626   
    174. A(C   6,C  39,H  40)          109.5031         0.346726   
    175. A(O  45,Fe 43,O  46)          114.9503         0.724987   
    176. A(O  44,Fe 43,O  46)          115.6290         0.645356   
    177. A(O   1,Fe 43,O  46)          118.3107         0.645552   
    178. A(Fe  0,Fe 43,O  46)          126.7818         0.555733   
    179. A(O  44,Fe 43,O  45)          111.6232         0.639149   
    180. A(O   1,Fe 43,O  45)          110.3929         0.639342   
    181. A(Fe  0,Fe 43,O  45)          118.2566         0.550525   
    182. A(O   1,Fe 43,O  44)           81.5622         0.570435   
    183. A(Fe  0,Fe 43,O  44)           40.7760         0.492739   
    184. A(Fe  0,Fe 43,O   1)           40.7862         0.492881   
    185. A(Fe 43,O  44,C  47)          129.7126         0.466095   
    186. A(Fe  0,O  44,C  47)          130.0650         0.466225   
    187. A(Fe  0,O  44,Fe 43)           98.4374         0.570432   
    188. A(Fe 43,O  45,C  48)          137.0200         0.528837   
    189. A(Fe 43,O  46,C  49)          148.9631         0.537341   
    190. A(C  54,C  47,C  58)          109.2501         0.371053   
    191. A(C  50,C  47,C  58)          109.4336         0.375283   
    192. A(O  44,C  47,C  58)          107.9964         0.377163   
    193. A(C  50,C  47,C  54)          113.5507         0.376321   
    194. A(O  44,C  47,C  54)          107.7379         0.378207   
    195. A(O  44,C  47,C  50)          108.7168         0.382545   
    196. A(O  45,C  48,C  62)          108.3733         0.398457   
    197. A(C  66,C  48,C  70)          106.3197         0.371820   
    198. A(C  62,C  48,C  70)          104.4166         0.369440   
    199. A(O  45,C  48,C  70)          107.5670         0.367771   
    200. A(C  62,C  48,C  66)          117.6633         0.402951   
    201. A(O  45,C  48,C  66)          111.8018         0.401083   
    202. A(C  78,C  49,C  82)          110.5904         0.367376   
    203. A(C  74,C  49,C  82)          111.1726         0.364383   
    204. A(O  46,C  49,C  82)          106.6125         0.381683   
    205. A(C  74,C  49,C  78)          111.3372         0.368685   
    206. A(O  46,C  49,C  78)          107.6785         0.386255   
    207. A(O  46,C  49,C  74)          109.2656         0.383059   
    208. A(H  52,C  50,H  53)          109.4376         0.331313   
    209. A(H  51,C  50,H  53)          109.4991         0.331574   
    210. A(C  47,C  50,H  53)          109.5226         0.355016   
    211. A(H  51,C  50,H  52)          109.4276         0.331235   
    212. A(C  47,C  50,H  52)          109.4491         0.354644   
    213. A(C  47,C  50,H  51)          109.4913         0.354931   
    214. A(H  56,C  54,H  57)          109.5022         0.331299   
    215. A(H  55,C  54,H  57)          109.4994         0.331384   
    216. A(C  47,C  54,H  57)          109.3967         0.350929   
    217. A(H  55,C  54,H  56)          109.5417         0.331321   
    218. A(C  47,C  54,H  56)          109.4296         0.350861   
    219. A(C  47,C  54,H  55)          109.4576         0.350953   
    220. A(H  60,C  58,H  61)          109.5261         0.331524   
    221. A(H  59,C  58,H  61)          109.4565         0.331191   
    222. A(C  47,C  58,H  61)          109.4738         0.349985   
    223. A(H  59,C  58,H  60)          109.4686         0.331349   
    224. A(C  47,C  58,H  60)          109.4744         0.350155   
    225. A(C  47,C  58,H  59)          109.4278         0.349797   
    226. A(H  64,C  62,H  65)          109.4660         0.331162   
    227. A(H  63,C  62,H  65)          109.4188         0.331362   
    228. A(C  48,C  62,H  65)          109.4251         0.363553   
    229. A(H  63,C  62,H  64)          109.4624         0.331387   
    230. A(C  48,C  62,H  64)          109.4913         0.363582   
    231. A(C  48,C  62,H  63)          109.5636         0.363808   
    232. A(H  68,C  66,H  69)          109.5350         0.331381   
    233. A(H  67,C  66,H  69)          109.4855         0.331195   
    234. A(C  48,C  66,H  69)          109.4811         0.365956   
    235. A(H  67,C  66,H  68)          109.4668         0.331311   
    236. A(C  48,C  66,H  68)          109.4275         0.366088   
    237. A(C  48,C  66,H  67)          109.4313         0.365877   
    238. A(H  72,C  70,H  73)          109.5234         0.331444   
    239. A(H  71,C  70,H  73)          109.5184         0.331413   
    240. A(C  48,C  70,H  73)          109.4394         0.336537   
    241. A(H  71,C  70,H  72)          109.4411         0.331311   
    242. A(C  48,C  70,H  72)          109.4560         0.336433   
    243. A(C  48,C  70,H  71)          109.4490         0.336401   
    244. A(H  76,C  74,H  77)          109.5596         0.331379   
    245. A(H  75,C  74,H  77)          109.4564         0.331132   
    246. A(C  49,C  74,H  77)          109.4752         0.347949   
    247. A(H  75,C  74,H  76)          109.4850         0.331154   
    248. A(C  49,C  74,H  76)          109.4653         0.347973   
    249. A(C  49,C  74,H  75)          109.3857         0.347709   
    250. A(H  80,C  78,H  81)          109.4389         0.331407   
    251. A(H  79,C  78,H  81)          109.4994         0.331529   
    252. A(C  49,C  78,H  81)          109.4921         0.350870   
    253. A(H  79,C  78,H  80)          109.4199         0.331382   
    254. A(C  49,C  78,H  80)          109.4797         0.350711   
    255. A(C  49,C  78,H  79)          109.4973         0.350843   
    256. A(H  84,C  82,H  85)          109.4468         0.331299   
    257. A(H  83,C  82,H  85)          109.4399         0.331395   
    258. A(C  49,C  82,H  85)          109.4793         0.346789   
    259. A(H  83,C  82,H  84)          109.4659         0.331240   
    260. A(C  49,C  82,H  84)          109.4921         0.346625   
    261. A(C  49,C  82,H  83)          109.5034         0.346726   
    262. D(Fe 43,O   1,Fe  0,O   2)    108.6709         0.003931   
    263. D(Fe 43,O   1,Fe  0,O  44)     -0.0001         0.003931   
    264. D(C   4,O   1,Fe  0,Fe 43)    165.7159         0.003931   
    265. D(C   4,O   1,Fe  0,O   3)     48.2905         0.003931   
    266. D(Fe 43,O   1,Fe  0,O   3)   -117.4254         0.003931   
    267. D(C   4,O   1,Fe  0,O   2)    -85.6132         0.003931   
    268. D(C   4,O   1,Fe  0,O  44)    165.7157         0.003931   
    269. D(C   5,O   2,Fe  0,O  44)   -140.0623         0.009049   
    270. D(C   5,O   2,Fe  0,Fe 43)    175.7655         0.009049   
    271. D(C   5,O   2,Fe  0,O   3)     -3.0927         0.009049   
    272. D(C   5,O   2,Fe  0,O   1)    131.1426         0.009049   
    273. D(C   6,O   3,Fe  0,O  44)    -23.7475         0.009866   
    274. D(C   6,O   3,Fe  0,O   1)     70.4718         0.009866   
    275. D(C   6,O   3,Fe  0,Fe 43)     24.1033         0.009866   
    276. D(C   6,O   3,Fe  0,O   2)   -157.1525         0.009866   
    277. D(C  11,C   4,O   1,Fe 43)     75.9476         0.017779   
    278. D(C  15,C   4,O   1,Fe 43)   -166.1572         0.017779   
    279. D(C   7,C   4,O   1,Fe 43)    -47.5097         0.017779   
    280. D(C   7,C   4,O   1,Fe  0)    151.0866         0.017779   
    281. D(C  11,C   4,O   1,Fe  0)    -85.4561         0.017779   
    282. D(C  15,C   4,O   1,Fe  0)     32.4391         0.017779   
    283. D(C  23,C   5,O   2,Fe  0)     42.7683         0.019676   
    284. D(C  27,C   5,O   2,Fe  0)    -73.5974         0.019676   
    285. D(C  19,C   5,O   2,Fe  0)    174.0491         0.019676   
    286. D(C  31,C   6,O   3,Fe  0)    -10.8511         0.021155   
    287. D(C  35,C   6,O   3,Fe  0)   -131.9116         0.021155   
    288. D(C  39,C   6,O   3,Fe  0)    109.3846         0.021155   
    289. D(H   9,C   7,C   4,O   1)   -175.7945         0.014453   
    290. D(H   8,C   7,C   4,C  15)     61.8903         0.014453   
    291. D(H   8,C   7,C   4,O   1)    -55.8487         0.014453   
    292. D(H   8,C   7,C   4,C  11)   -175.7551         0.014453   
    293. D(H  10,C   7,C   4,C  15)   -178.0317         0.014453   
    294. D(H  10,C   7,C   4,O   1)     64.2293         0.014453   
    295. D(H   9,C   7,C   4,C  11)     64.2991         0.014453   
    296. D(H  10,C   7,C   4,C  11)    -55.6771         0.014453   
    297. D(H   9,C   7,C   4,C  15)    -58.0555         0.014453   
    298. D(H  13,C  11,C   4,C  15)     51.8309         0.012715   
    299. D(H  14,C  11,C   4,C  15)    -68.1354         0.012715   
    300. D(H  14,C  11,C   4,O   1)     48.9475         0.012715   
    301. D(H  13,C  11,C   4,C   7)    -70.6252         0.012715   
    302. D(H  13,C  11,C   4,O   1)    168.9138         0.012715   
    303. D(H  14,C  11,C   4,C   7)    169.4085         0.012715   
    304. D(H  12,C  11,C   4,C  15)    171.8830         0.012715   
    305. D(H  12,C  11,C   4,C   7)     49.4269         0.012715   
    306. D(H  12,C  11,C   4,O   1)    -71.0341         0.012715   
    307. D(H  18,C  15,C   4,C   7)    -56.0056         0.012329   
    308. D(H  18,C  15,C   4,C  11)    179.1039         0.012329   
    309. D(H  18,C  15,C   4,O   1)     62.1842         0.012329   
    310. D(H  17,C  15,C   4,C  11)    -60.8266         0.012329   
    311. D(H  17,C  15,C   4,C   7)     64.0639         0.012329   
    312. D(H  17,C  15,C   4,O   1)   -177.7462         0.012329   
    313. D(H  16,C  15,C   4,C  11)     59.1452         0.012329   
    314. D(H  16,C  15,C   4,C   7)   -175.9643         0.012329   
    315. D(H  16,C  15,C   4,O   1)    -57.7744         0.012329   
    316. D(H  21,C  19,C   5,C  27)     55.9635         0.019302   
    317. D(H  21,C  19,C   5,C  23)    -61.5743         0.019302   
    318. D(H  21,C  19,C   5,O   2)    170.4044         0.019302   
    319. D(H  22,C  19,C   5,O   2)     50.4266         0.019302   
    320. D(H  22,C  19,C   5,C  23)    178.4480         0.019302   
    321. D(H  20,C  19,C   5,O   2)    -69.5369         0.019302   
    322. D(H  20,C  19,C   5,C  23)     58.4844         0.019302   
    323. D(H  20,C  19,C   5,C  27)    176.0222         0.019302   
    324. D(H  22,C  19,C   5,C  27)    -64.0142         0.019302   
    325. D(H  26,C  23,C   5,C  27)   -179.1960         0.020841   
    326. D(H  26,C  23,C   5,O   2)     63.6844         0.020841   
    327. D(H  25,C  23,C   5,C  19)     57.3735         0.020841   
    328. D(H  25,C  23,C   5,C  27)    -59.1384         0.020841   
    329. D(H  25,C  23,C   5,O   2)   -176.2581         0.020841   
    330. D(H  24,C  23,C   5,C  27)     60.8048         0.020841   
    331. D(H  26,C  23,C   5,C  19)    -62.6841         0.020841   
    332. D(H  24,C  23,C   5,C  19)    177.3167         0.020841   
    333. D(H  24,C  23,C   5,O   2)    -56.3148         0.020841   
    334. D(H  30,C  27,C   5,C  23)    -48.2049         0.007999   
    335. D(H  30,C  27,C   5,C  19)   -173.2876         0.007999   
    336. D(H  30,C  27,C   5,O   2)     71.7042         0.007999   
    337. D(H  29,C  27,C   5,C  23)     71.8303         0.007999   
    338. D(H  29,C  27,C   5,C  19)    -53.2524         0.007999   
    339. D(H  29,C  27,C   5,O   2)   -168.2607         0.007999   
    340. D(H  28,C  27,C   5,C  23)   -168.2291         0.007999   
    341. D(H  28,C  27,C   5,C  19)     66.6883         0.007999   
    342. D(H  28,C  27,C   5,O   2)    -48.3200         0.007999   
    343. D(H  34,C  31,C   6,C  35)   -179.9777         0.011544   
    344. D(H  34,C  31,C   6,O   3)     61.2136         0.011544   
    345. D(H  34,C  31,C   6,C  39)    -56.1840         0.011544   
    346. D(H  33,C  31,C   6,C  39)     63.9237         0.011544   
    347. D(H  33,C  31,C   6,C  35)    -59.8699         0.011544   
    348. D(H  33,C  31,C   6,O   3)   -178.6786         0.011544   
    349. D(H  32,C  31,C   6,C  39)   -176.1157         0.011544   
    350. D(H  32,C  31,C   6,C  35)     60.0906         0.011544   
    351. D(H  32,C  31,C   6,O   3)    -58.7180         0.011544   
    352. D(H  38,C  35,C   6,C  39)   -178.6885         0.012647   
    353. D(H  38,C  35,C   6,C  31)    -54.5649         0.012647   
    354. D(H  38,C  35,C   6,O   3)     65.1898         0.012647   
    355. D(H  37,C  35,C   6,C  39)    -58.7095         0.012647   
    356. D(H  37,C  35,C   6,O   3)   -174.8312         0.012647   
    357. D(H  37,C  35,C   6,C  31)     65.4141         0.012647   
    358. D(H  36,C  35,C   6,C  31)   -174.6283         0.012647   
    359. D(H  36,C  35,C   6,C  39)     61.2481         0.012647   
    360. D(H  36,C  35,C   6,O   3)    -54.8736         0.012647   
    361. D(H  42,C  39,C   6,C  35)    -62.2830         0.011100   
    362. D(H  42,C  39,C   6,O   3)     54.4993         0.011100   
    363. D(H  41,C  39,C   6,C  35)     57.7053         0.011100   
    364. D(H  41,C  39,C   6,C  31)    -66.5124         0.011100   
    365. D(H  41,C  39,C   6,O   3)    174.4876         0.011100   
    366. D(H  40,C  39,C   6,C  35)    177.7308         0.011100   
    367. D(H  42,C  39,C   6,C  31)    173.4993         0.011100   
    368. D(H  40,C  39,C   6,C  31)     53.5132         0.011100   
    369. D(H  40,C  39,C   6,O   3)    -65.4869         0.011100   
    370. D(O  45,Fe 43,O   1,Fe  0)    110.0169         0.003938   
    371. D(O  44,Fe 43,O   1,C   4)   -165.6407         0.003938   
    372. D(O  44,Fe 43,O   1,Fe  0)      0.0001         0.003938   
    373. D(O  46,Fe 43,Fe  0,O  44)    -87.7116         0.001528   
    374. D(O  46,Fe 43,Fe  0,O   3)   -179.9998         0.001528   
    375. D(O  46,Fe 43,Fe  0,O   2)      1.2929         0.001528   
    376. D(O  46,Fe 43,Fe  0,O   1)     92.2886         0.001528   
    377. D(O  45,Fe 43,Fe  0,O  44)     90.9953         0.001528   
    378. D(O  45,Fe 43,Fe  0,O   2)    179.9998         0.001528   
    379. D(O  45,Fe 43,Fe  0,O   1)    -89.0045         0.001528   
    380. D(O  44,Fe 43,Fe  0,O   3)    -92.2882         0.001528   
    381. D(O  44,Fe 43,Fe  0,O   2)     89.0044         0.001528   
    382. D(O  44,Fe 43,Fe  0,O   1)   -179.9998         0.001528   
    383. D(Fe  0,Fe 43,O   1,C   4)   -165.6408         0.003938   
    384. D(O  45,Fe 43,Fe  0,O   3)     -1.2929         0.001528   
    385. D(O   1,Fe 43,Fe  0,O  44)    179.9998         0.001528   
    386. D(O   1,Fe 43,Fe  0,O   3)     87.7116         0.001528   
    387. D(O  45,Fe 43,O   1,C   4)    -55.6239         0.003938   
    388. D(O   1,Fe 43,Fe  0,O   2)    -90.9957         0.001528   
    389. D(O  46,Fe 43,O   1,C   4)     79.7282         0.003938   
    390. D(O  46,Fe 43,O   1,Fe  0)   -114.6310         0.003938   
    391. D(C  47,O  44,Fe 43,O  45)     85.6133         0.003931   
    392. D(C  47,O  44,Fe 43,O   1)   -165.7157         0.003931   
    393. D(C  47,O  44,Fe 43,Fe  0)   -165.7156         0.003931   
    394. D(Fe  0,O  44,Fe 43,O  46)    117.4253         0.003931   
    395. D(Fe  0,O  44,Fe 43,O  45)   -108.6711         0.003931   
    396. D(Fe  0,O  44,Fe 43,O   1)     -0.0001         0.003931   
    397. D(C  47,O  44,Fe  0,Fe 43)    165.6404         0.003938   
    398. D(C  47,O  44,Fe  0,O   3)    -79.7280         0.003938   
    399. D(C  47,O  44,Fe  0,O   2)     55.6232         0.003938   
    400. D(C  47,O  44,Fe  0,O   1)    165.6405         0.003938   
    401. D(Fe 43,O  44,Fe  0,O   3)    114.6316         0.003938   
    402. D(Fe 43,O  44,Fe  0,O   2)   -110.0173         0.003938   
    403. D(C  47,O  44,Fe 43,O  46)    -48.2903         0.003931   
    404. D(Fe 43,O  44,Fe  0,O   1)      0.0001         0.003938   
    405. D(C  48,O  45,Fe 43,O  46)      3.0920         0.009049   
    406. D(C  48,O  45,Fe 43,O  44)   -131.1428         0.009049   
    407. D(C  48,O  45,Fe 43,O   1)    140.0625         0.009049   
    408. D(C  48,O  45,Fe 43,Fe  0)   -175.7657         0.009049   
    409. D(C  49,O  46,Fe 43,O  45)    157.1527         0.009866   
    410. D(C  49,O  46,Fe 43,O  44)    -70.4721         0.009866   
    411. D(C  49,O  46,Fe 43,O   1)     23.7470         0.009866   
    412. D(C  49,O  46,Fe 43,Fe  0)    -24.1035         0.009866   
    413. D(C  58,C  47,O  44,Fe 43)    -32.4395         0.017780   
    414. D(C  58,C  47,O  44,Fe  0)    166.1574         0.017780   
    415. D(C  54,C  47,O  44,Fe 43)     85.4563         0.017780   
    416. D(C  54,C  47,O  44,Fe  0)    -75.9468         0.017780   
    417. D(C  50,C  47,O  44,Fe 43)   -151.0874         0.017780   
    418. D(C  50,C  47,O  44,Fe  0)     47.5095         0.017780   
    419. D(C  70,C  48,O  45,Fe 43)     73.5974         0.019676   
    420. D(C  66,C  48,O  45,Fe 43)    -42.7674         0.019676   
    421. D(C  62,C  48,O  45,Fe 43)   -174.0487         0.019676   
    422. D(C  82,C  49,O  46,Fe 43)   -109.3839         0.021156   
    423. D(C  78,C  49,O  46,Fe 43)    131.9120         0.021156   
    424. D(C  74,C  49,O  46,Fe 43)     10.8512         0.021156   
    425. D(H  53,C  50,C  47,C  58)    178.0316         0.014452   
    426. D(H  53,C  50,C  47,C  54)     55.6771         0.014452   
    427. D(H  53,C  50,C  47,O  44)    -64.2289         0.014452   
    428. D(H  52,C  50,C  47,C  58)     58.0549         0.014452   
    429. D(H  52,C  50,C  47,C  54)    -64.2997         0.014452   
    430. D(H  52,C  50,C  47,O  44)    175.7944         0.014452   
    431. D(H  51,C  50,C  47,C  58)    -61.8904         0.014452   
    432. D(H  51,C  50,C  47,C  54)    175.7551         0.014452   
    433. D(H  51,C  50,C  47,O  44)     55.8491         0.014452   
    434. D(H  57,C  54,C  47,C  58)     68.1364         0.012714   
    435. D(H  57,C  54,C  47,C  50)   -169.4076         0.012714   
    436. D(H  57,C  54,C  47,O  44)    -48.9474         0.012714   
    437. D(H  56,C  54,C  47,C  58)    -51.8305         0.012714   
    438. D(H  56,C  54,C  47,C  50)     70.6255         0.012714   
    439. D(H  56,C  54,C  47,O  44)   -168.9143         0.012714   
    440. D(H  55,C  54,C  47,C  58)   -171.8830         0.012714   
    441. D(H  55,C  54,C  47,C  50)    -49.4270         0.012714   
    442. D(H  55,C  54,C  47,O  44)     71.0332         0.012714   
    443. D(H  61,C  58,C  47,C  54)   -179.1034         0.012329   
    444. D(H  61,C  58,C  47,C  50)     56.0068         0.012329   
    445. D(H  61,C  58,C  47,O  44)    -62.1831         0.012329   
    446. D(H  60,C  58,C  47,C  54)     60.8259         0.012329   
    447. D(H  60,C  58,C  47,C  50)    -64.0640         0.012329   
    448. D(H  60,C  58,C  47,O  44)    177.7462         0.012329   
    449. D(H  59,C  58,C  47,C  54)    -59.1463         0.012329   
    450. D(H  59,C  58,C  47,C  50)    175.9638         0.012329   
    451. D(H  59,C  58,C  47,O  44)     57.7740         0.012329   
    452. D(H  65,C  62,C  48,C  66)   -178.4487         0.019303   
    453. D(H  65,C  62,C  48,O  45)    -50.4271         0.019303   
    454. D(H  64,C  62,C  48,C  70)    -55.9639         0.019303   
    455. D(H  64,C  62,C  48,C  66)     61.5736         0.019303   
    456. D(H  64,C  62,C  48,O  45)   -170.4048         0.019303   
    457. D(H  63,C  62,C  48,C  70)   -176.0222         0.019303   
    458. D(H  63,C  62,C  48,C  66)    -58.4846         0.019303   
    459. D(H  65,C  62,C  48,C  70)     64.0138         0.019303   
    460. D(H  63,C  62,C  48,O  45)     69.5370         0.019303   
    461. D(H  69,C  66,C  48,C  70)    179.1962         0.020840   
    462. D(H  69,C  66,C  48,C  62)     62.6842         0.020840   
    463. D(H  69,C  66,C  48,O  45)    -63.6849         0.020840   
    464. D(H  68,C  66,C  48,C  70)     59.1388         0.020840   
    465. D(H  68,C  66,C  48,C  62)    -57.3732         0.020840   
    466. D(H  68,C  66,C  48,O  45)    176.2577         0.020840   
    467. D(H  67,C  66,C  48,C  70)    -60.8047         0.020840   
    468. D(H  67,C  66,C  48,C  62)   -177.3167         0.020840   
    469. D(H  67,C  66,C  48,O  45)     56.3142         0.020840   
    470. D(H  73,C  70,C  48,C  66)     48.2044         0.007998   
    471. D(H  73,C  70,C  48,C  62)    173.2873         0.007998   
    472. D(H  73,C  70,C  48,O  45)    -71.7038         0.007998   
    473. D(H  72,C  70,C  48,C  66)    -71.8307         0.007998   
    474. D(H  72,C  70,C  48,C  62)     53.2522         0.007998   
    475. D(H  72,C  70,C  48,O  45)    168.2610         0.007998   
    476. D(H  71,C  70,C  48,C  66)    168.2291         0.007998   
    477. D(H  71,C  70,C  48,C  62)    -66.6880         0.007998   
    478. D(H  71,C  70,C  48,O  45)     48.3208         0.007998   
    479. D(H  77,C  74,C  49,C  82)     56.1837         0.011544   
    480. D(H  77,C  74,C  49,C  78)    179.9769         0.011544   
    481. D(H  77,C  74,C  49,O  46)    -61.2137         0.011544   
    482. D(H  76,C  74,C  49,C  82)    -63.9234         0.011544   
    483. D(H  76,C  74,C  49,C  78)     59.8698         0.011544   
    484. D(H  76,C  74,C  49,O  46)    178.6792         0.011544   
    485. D(H  75,C  74,C  49,C  82)    176.1157         0.011544   
    486. D(H  75,C  74,C  49,C  78)    -60.0911         0.011544   
    487. D(H  75,C  74,C  49,O  46)     58.7183         0.011544   
    488. D(H  81,C  78,C  49,C  74)     54.5651         0.012647   
    489. D(H  81,C  78,C  49,O  46)    -65.1898         0.012647   
    490. D(H  80,C  78,C  49,C  82)     58.7098         0.012647   
    491. D(H  80,C  78,C  49,C  74)    -65.4133         0.012647   
    492. D(H  80,C  78,C  49,O  46)    174.8319         0.012647   
    493. D(H  79,C  78,C  49,C  82)    -61.2486         0.012647   
    494. D(H  79,C  78,C  49,C  74)    174.6284         0.012647   
    495. D(H  81,C  78,C  49,C  82)    178.6881         0.012647   
    496. D(H  79,C  78,C  49,O  46)     54.8735         0.012647   
    497. D(H  85,C  82,C  49,C  78)     62.2832         0.011100   
    498. D(H  85,C  82,C  49,C  74)   -173.4995         0.011100   
    499. D(H  85,C  82,C  49,O  46)    -54.4999         0.011100   
    500. D(H  84,C  82,C  49,C  78)    -57.7047         0.011100   
    501. D(H  84,C  82,C  49,C  74)     66.5127         0.011100   
    502. D(H  84,C  82,C  49,O  46)   -174.4878         0.011100   
    503. D(H  83,C  82,C  49,C  78)   -177.7306         0.011100   
    504. D(H  83,C  82,C  49,C  74)    -53.5133         0.011100   
    505. D(H  83,C  82,C  49,O  46)     65.4863         0.011100   
    -----------------------------------------------------------------

Number of atoms                         .... 86
Number of degrees of freedom            .... 505

         *************************************************************
         *                GEOMETRY OPTIMIZATION CYCLE   1            *
         *************************************************************
---------------------------------
CARTESIAN COORDINATES (ANGSTROEM)
---------------------------------
  Fe     9.718990    3.405520    6.888400
  O      9.661880    1.455990    6.713090
  O     10.989190    4.127730    5.841730
  O      8.138990    4.231810    6.833290
  C      8.964300    0.635430    5.749010
  C     11.082120    5.189680    4.901750
  C      6.901420    4.517860    7.449350
  C      9.727410   -0.633950    5.558800
  H     10.647540   -0.425760    5.294750
  H      9.299990   -1.170020    4.857230
  H      9.734490   -1.140260    6.397000
  C      7.557030    0.423580    6.257300
  H      7.576710   -0.175360    7.032550
  H      7.010840    0.024050    5.548050
  H      7.172540    1.285910    6.519810
  C      8.913140    1.394270    4.438140
  H      8.468260    2.257180    4.577840
  H      8.412670    0.872170    3.778020
  H      9.824950    1.546000    4.112680
  C     12.474030    5.330660    4.505680
  H     12.995350    5.679430    5.257910
  H     12.537600    5.950630    3.748850
  H     12.828210    4.455280    4.241640
  C     10.392240    6.372660    5.359230
  H      9.456940    6.150560    5.552660
  H     10.427110    7.060220    4.662270
  H     10.823550    6.708530    6.172860
  C     10.343420    4.726510    3.584590
  H     10.649200    3.828630    3.337430
  H     10.547880    5.352120    2.858460
  H      9.376600    4.711420    3.741180
  C      6.719820    3.608370    8.659820
  H      6.754470    2.671310    8.371210
  H      5.852150    3.789890    9.077380
  H      7.436780    3.777590    9.306120
  C      5.814480    4.291390    6.423090
  H      6.003770    4.824440    5.623280
  H      4.949850    4.561510    6.797670
  H      5.783740    3.342120    6.183610
  C      6.949960    5.989780    7.866140
  H      7.634330    6.111830    8.556960
  H      6.076170    6.258380    8.220760
  H      7.170070    6.542640    7.087820
  Fe    10.404550    0.988290    8.463160
  O     10.461660    2.937830    8.638480
  O      9.134350    0.266090    9.509830
  O     11.984550    0.162010    8.518270
  C     11.159240    3.758380    9.602560
  C      9.041410   -0.795860   10.449810
  C     13.222120   -0.124040    7.902220
  C     10.396130    5.027770    9.792760
  H      9.476000    4.819580   10.056810
  H     10.823550    5.563830   10.494330
  H     10.389050    5.534070    8.954570
  C     12.566510    3.970240    9.094270
  H     12.546830    4.569180    8.319010
  H     13.112700    4.369770    9.803510
  H     12.951000    3.107910    8.831750
  C     11.210400    2.999550   10.913430
  H     11.655270    2.136640   10.773730
  H     11.710870    3.521650   11.573540
  H     10.298590    2.847810   11.238880
  C      7.649510   -0.936840   10.845880
  H      7.128190   -1.285610   10.093650
  H      7.585940   -1.556820   11.602710
  H      7.295330   -0.061460   11.109930
  C      9.731300   -1.978840    9.992330
  H     10.666590   -1.756740    9.798900
  H      9.696430   -2.666400   10.689290
  H      9.299990   -2.314710    9.178700
  C      9.780120   -0.332690   11.766970
  H      9.474340    0.565180   12.014130
  H      9.575660   -0.958300   12.493100
  H     10.746930   -0.317600   11.610390
  C     13.403720    0.785450    6.691750
  H     13.369070    1.722510    6.980360
  H     14.271390    0.603930    6.274180
  H     12.686760    0.616230    6.045440
  C     14.309060    0.102420    8.928470
  H     14.119770   -0.430630    9.728280
  H     15.173690   -0.167690    8.553890
  H     14.339800    1.051700    9.167950
  C     13.173580   -1.595960    7.485420
  H     12.489210   -1.718010    6.794600
  H     14.047370   -1.864570    7.130800
  H     12.953470   -2.148830    8.263750

----------------------------
CARTESIAN COORDINATES (A.U.)
----------------------------
  NO LB      ZA    FRAG     MASS         X           Y           Z
   0 Fe   26.0000    0    55.850   18.366229    6.435500   13.017190
   1 O     8.0000    0    15.999   18.258307    2.751422   12.685902
   2 O     8.0000    0    15.999   20.766560    7.800279   11.039270
   3 O     8.0000    0    15.999   15.380462    7.996962   12.913047
   4 C     6.0000    0    12.011   16.940072    1.200789   10.864054
   5 C     6.0000    0    12.011   20.942172    9.807074    9.262965
   6 C     6.0000    0    12.011   13.041794    8.537518   14.077231
   7 C     6.0000    0    12.011   18.382141   -1.197992   10.504610
   8 H     1.0000    0     1.008   20.120935   -0.804570   10.005627
   9 H     1.0000    0     1.008   17.574434   -2.211017    9.178834
  10 H     1.0000    0     1.008   18.395520   -2.154779   12.088578
  11 C     6.0000    0    12.011   14.280717    0.800450   11.824583
  12 H     1.0000    0     1.008   14.317907   -0.331382   13.289594
  13 H     1.0000    0     1.008   13.248568    0.045448   10.484295
  14 H     1.0000    0     1.008   13.554136    2.430018   12.320655
  15 C     6.0000    0    12.011   16.843394    2.634788    8.386869
  16 H     1.0000    0     1.008   16.002692    4.265452    8.650864
  17 H     1.0000    0     1.008   15.897642    1.648162    7.139423
  18 H     1.0000    0     1.008   18.566465    2.921517    7.771839
  19 C     6.0000    0    12.011   23.572500   10.073488    8.514501
  20 H     1.0000    0     1.008   24.557653   10.732567    9.936010
  21 H     1.0000    0     1.008   23.692630   11.245061    7.084300
  22 H     1.0000    0     1.008   24.241804    8.419259    8.015538
  23 C     6.0000    0    12.011   19.638488   12.042582   10.127477
  24 H     1.0000    0     1.008   17.871027   11.622874   10.493007
  25 H     1.0000    0     1.008   19.704382   13.341882    8.810413
  26 H     1.0000    0     1.008   20.453545   12.677284   11.665015
  27 C     6.0000    0    12.011   19.546231    8.931809    6.773893
  28 H     1.0000    0     1.008   20.124072    7.235062    6.306829
  29 H     1.0000    0     1.008   19.932604   10.114041    5.401707
  30 H     1.0000    0     1.008   17.719206    8.903294    7.069806
  31 C     6.0000    0    12.011   12.698619    6.818831   16.364688
  32 H     1.0000    0     1.008   12.764098    5.048044   15.819294
  33 H     1.0000    0     1.008   11.058961    7.161854   17.153762
  34 H     1.0000    0     1.008   14.053478    7.138611   17.586018
  35 C     6.0000    0    12.011   10.987775    8.109552   12.137881
  36 H     1.0000    0     1.008   11.345481    9.116870   10.626459
  37 H     1.0000    0     1.008    9.353861    8.620005   12.845735
  38 H     1.0000    0     1.008   10.929685    6.315692   11.685329
  39 C     6.0000    0    12.011   13.133521   11.319044   14.864850
  40 H     1.0000    0     1.008   14.426793   11.549685   16.170311
  41 H     1.0000    0     1.008   11.482297   11.826624   15.534985
  42 H     1.0000    0     1.008   13.549469   12.363798   13.394039
  43 Fe   26.0000    0    55.850   19.661750    1.867597   15.993055
  44 O     8.0000    0    15.999   19.769672    5.551694   16.324361
  45 O     8.0000    0    15.999   17.261420    0.502837   17.970974
  46 O     8.0000    0    15.999   22.647517    0.306155   16.097197
  47 C     6.0000    0    12.011   21.087907    7.102309   18.146209
  48 C     6.0000    0    12.011   17.085789   -1.503957   19.747279
  49 C     6.0000    0    12.011   24.986186   -0.234402   14.933032
  50 C     6.0000    0    12.011   19.645839    9.501108   18.505634
  51 H     1.0000    0     1.008   17.907045    9.107686   19.004617
  52 H     1.0000    0     1.008   20.453545   10.514115   19.831410
  53 H     1.0000    0     1.008   19.632459   10.457877   16.921685
  54 C     6.0000    0    12.011   23.747262    7.502666   17.185680
  55 H     1.0000    0     1.008   23.710073    8.634499   15.720651
  56 H     1.0000    0     1.008   24.779412    8.257669   18.525949
  57 H     1.0000    0     1.008   24.473843    5.873099   16.689589
  58 C     6.0000    0    12.011   21.184586    5.668328   20.623394
  59 H     1.0000    0     1.008   22.025268    4.037664   20.359399
  60 H     1.0000    0     1.008   22.130337    6.654954   21.870821
  61 H     1.0000    0     1.008   19.461515    5.381581   21.238405
  62 C     6.0000    0    12.011   14.455479   -1.770371   20.495743
  63 H     1.0000    0     1.008   13.470327   -2.429451   19.074234
  64 H     1.0000    0     1.008   14.335349   -2.941963   21.925944
  65 H     1.0000    0     1.008   13.786176   -0.116143   20.994725
  66 C     6.0000    0    12.011   18.389492   -3.739466   18.882767
  67 H     1.0000    0     1.008   20.156934   -3.319757   18.517237
  68 H     1.0000    0     1.008   18.323597   -5.038766   20.199831
  69 H     1.0000    0     1.008   17.574434   -4.374168   17.345229
  70 C     6.0000    0    12.011   18.481748   -0.628693   22.236351
  71 H     1.0000    0     1.008   17.903908    1.068035   22.703415
  72 H     1.0000    0     1.008   18.095375   -1.810925   23.608538
  73 H     1.0000    0     1.008   20.308754   -0.600177   21.940457
  74 C     6.0000    0    12.011   25.329360    1.484285   12.645575
  75 H     1.0000    0     1.008   25.263881    3.255072   13.190969
  76 H     1.0000    0     1.008   26.969019    1.141262   11.856482
  77 H     1.0000    0     1.008   23.974502    1.164506   11.424226
  78 C     6.0000    0    12.011   27.040205    0.193546   16.872363
  79 H     1.0000    0     1.008   26.682498   -0.813773   18.383785
  80 H     1.0000    0     1.008   28.674119   -0.316888   16.164509
  81 H     1.0000    0     1.008   27.098295    1.987425   17.324915
  82 C     6.0000    0    12.011   24.894458   -3.015927   14.145394
  83 H     1.0000    0     1.008   23.601187   -3.246568   12.839933
  84 H     1.0000    0     1.008   26.545682   -3.523527   13.475259
  85 H     1.0000    0     1.008   24.478511   -4.060700   15.616224

--------------------------------
INTERNAL COORDINATES (ANGSTROEM)
--------------------------------
 Fe     0   0   0     0.000000000000     0.00000000     0.00000000
 O      1   0   0     1.958229396445     0.00000000     0.00000000
 O      1   2   0     1.797362905203   111.62364338     0.00000000
 O      1   2   3     1.783870027833   115.62925839   133.90371681
 C      2   1   3     1.445471139940   129.71275446   274.38678251
 C      3   1   2     1.421244591124   137.01980401   131.14264887
 C      4   1   2     1.411713154646   148.96266682    70.47177564
 C      5   2   1     1.493265649709   108.71725088   151.08662977
 H      8   5   2     0.979645188576   109.49156237   304.15133307
 H      8   5   2     0.980948197511   109.44971533   184.20549561
 H      8   5   2     0.979274824807   109.52232174    64.22933473
 C      5   2   1     1.511174377595   107.73771046   274.54394030
 H     12   5   2     0.979861719071   109.45733072   288.96592136
 H     12   5   2     0.980297556612   109.42906958   168.91381038
 H     12   5   2     0.979978106439   109.39690337    48.94752100
 C      5   2   1     1.515531473807   107.99581303    32.43908560
 H     16   5   2     0.980840441917   109.42805298   302.22561259
 H     16   5   2     0.979192036988   109.47448592   182.25380913
 H     16   5   2     0.979971265191   109.47397224    62.18423659
 C      6   3   1     1.454015217733   108.37281311   174.04905078
 H     20   6   3     0.979420761573   109.56371319   290.46305822
 H     20   6   3     0.980405831633   109.49124762   170.40438512
 H     20   6   3     0.980535944471   109.42501607    50.42663682
 C      6   3   1     1.443836571500   111.80209099    42.76825573
 H     24   6   3     0.980576190258   109.43107774   303.68515434
 H     24   6   3     0.979646830291   109.42761933   183.74193600
 H     24   6   3     0.980219745720   109.48134451    63.68435899
 C      6   3   1     1.579593176897   107.56724193   286.40258566
 H     28   6   3     0.980192822051   109.44919077   311.67997685
 H     28   6   3     0.980028846820   109.45612233   191.73932973
 H     28   6   3     0.979535118615   109.43860164    71.70416661
 C      7   4   1     1.524922372123   109.26586485   349.14892615
 H     32   7   4     0.981110492350   109.38572852   301.28195257
 H     32   7   4     0.979876059969   109.46486769   181.32137963
 H     32   7   4     0.979985071315   109.47484838    61.21363634
 C      7   4   1     1.511931483930   107.67781333   228.08844831
 H     36   7   4     0.979626991615   109.49734575   305.12639747
 H     36   7   4     0.980234679911   109.47919604   185.16882883
 H     36   7   4     0.979494334287   109.49254775    65.18981682
 C      7   4   1     1.530561505494   106.61239432   109.38457416
 H     40   7   4     0.980046311049   109.50310686   294.51314937
 H     40   7   4     0.980515307632   109.49145635   174.48758130
 H     40   7   4     0.979737012723   109.47951197    54.49925228
 Fe     2   1   3     1.957816902522    98.43800189   108.67092237
 O      1   2   3     1.957823452562    81.56234757   251.32896495
 O     44   2   1     1.797358887062   110.39286437   110.01693693
 O     44   2   1     1.783865395847   118.31065198   245.36899033
 C     45   1   2     1.445465463199   130.06501127   165.64052862
 C     46  44   2     1.421245245023   137.01998169   140.06248303
 C     47  44   2     1.411708790757   148.96310649    23.74699105
 C     48  45   1     1.493272876671   108.71683717    47.50950135
 H     51  48  45     0.979645188576   109.49126801    55.84912412
 H     51  48  45     0.980942732732   109.44913491   175.79440312
 H     51  48  45     0.979261095163   109.52261854   295.77113915
 C     48  45   1     1.511175779517   107.73793307   284.05315123
 H     55  48  45     0.979869630920   109.45760288    71.03315471
 H     55  48  45     0.980290321588   109.42957231   191.08567158
 H     55  48  45     0.979980785220   109.39668429   311.05259494
 C     48  45   1     1.515526466743   107.99638195   166.15735570
 H     59  48  45     0.980835906255   109.42783960    57.77400865
 H     59  48  45     0.979185295539   109.47436933   177.74617514
 H     59  48  45     0.979969492484   109.47378784   297.81694980
 C     49  46  44     1.454005644865   108.37330914   185.95127049
 H     63  49  46     0.979420761573   109.56362464    69.53699792
 H     63  49  46     0.980412155269   109.49128334   189.59520774
 H     63  49  46     0.980538637332   109.42511146   309.57289999
 C     49  46  44     1.443841349630   111.80176919   317.23263987
 H     67  49  46     0.980566651993   109.43131277    56.31416043
 H     67  49  46     0.979646830291   109.42753747   176.25768627
 H     67  49  46     0.980219745720   109.48109223   296.31505867
 C     49  46  44     1.579597853442   107.56695725    73.59738086
 H     71  49  46     0.980183661821   109.44901817    48.32082618
 H     71  49  46     0.980028846820   109.45598216   168.26102919
 H     71  49  46     0.979523649842   109.43938534   288.29615592
 C     50  47  44     1.524922372123   109.26558547    10.85119496
 H     75  50  47     0.981110492350   109.38572852    58.71829654
 H     75  50  47     0.979880321366   109.46527191   178.67923137
 H     75  50  47     0.979991666342   109.47520429   298.78633929
 C     50  47  44     1.511923198347   107.67851316   131.91198113
 H     79  50  47     0.979626991615   109.49734745    54.87349249
 H     79  50  47     0.980231924291   109.47972131   174.83186656
 H     79  50  47     0.979504025719   109.49206329   294.81020174
 C     50  47  44     1.530564228642   106.61247189   250.61608279
 H     83  50  47     0.980046311049   109.50335068    65.48628226
 H     83  50  47     0.980518047055   109.49210335   185.51223303
 H     83  50  47     0.979750599847   109.47930704   305.50005821

---------------------------
INTERNAL COORDINATES (A.U.)
---------------------------
 Fe     0   0   0     0.000000000000     0.00000000     0.00000000
 O      1   0   0     3.700517266674     0.00000000     0.00000000
 O      1   2   0     3.396523654103   111.62364338     0.00000000
 O      1   2   3     3.371025811114   115.62925839   133.90371681
 C      2   1   3     2.731544588974   129.71275446   274.38678251
 C      3   1   2     2.685763046542   137.01980401   131.14264887
 C      4   1   2     2.667751241935   148.96266682    70.47177564
 C      5   2   1     2.821863123141   108.71725088   151.08662977
 H      8   5   2     1.851261114822   109.49156237   304.15133307
 H      8   5   2     1.853723444859   109.44971533   184.20549561
 H      8   5   2     1.850561228728   109.52232174    64.22933473
 C      5   2   1     2.855705714254   107.73771046   274.54394030
 H     12   5   2     1.851670298157   109.45733072   288.96592136
 H     12   5   2     1.852493911749   109.42906958   168.91381038
 H     12   5   2     1.851890238409   109.39690337    48.94752100
 C      5   2   1     2.863939432834   107.99581303    32.43908560
 H     16   5   2     1.853519816297   109.42805298   302.22561259
 H     16   5   2     1.850404782423   109.47448592   182.25380913
 H     16   5   2     1.851877310323   109.47397224    62.18423659
 C      6   3   1     2.747690556070   108.37281311   174.04905078
 H     20   6   3     1.850837009249   109.56371319   290.46305822
 H     20   6   3     1.852698521886   109.49124762   170.40438512
 H     20   6   3     1.852944399516   109.42501607    50.42663682
 C      6   3   1     2.728455702274   111.80209099    42.76825573
 H     24   6   3     1.853020453031   109.43107774   303.68515434
 H     24   6   3     1.851264217215   109.42761933   183.74193600
 H     24   6   3     1.852346870473   109.48134451    63.68435899
 C      6   3   1     2.984998507346   107.56724193   286.40258566
 H     28   6   3     1.852295992112   109.44919077   311.67997685
 H     28   6   3     1.851986123833   109.45612233   191.73932973
 H     28   6   3     1.851053112740   109.43860164    71.70416661
 C      7   4   1     2.881685658801   109.26586485   349.14892615
 H     32   7   4     1.854030137659   109.38572852   301.28195257
 H     32   7   4     1.851697398527   109.46486769   181.32137963
 H     32   7   4     1.851903400116   109.47484838    61.21363634
 C      7   4   1     2.857136437882   107.67781333   228.08844831
 H     36   7   4     1.851226727549   109.49734575   305.12639747
 H     36   7   4     1.852375092004   109.47919604   185.16882883
 H     36   7   4     1.850976041530   109.49254775    65.18981682
 C      7   4   1     2.892342076506   106.61239432   109.38457416
 H     40   7   4     1.852019126442   109.50310686   294.51314937
 H     40   7   4     1.852905401541   109.49145635   174.48758130
 H     40   7   4     1.851434637313   109.47951197    54.49925228
 Fe     2   1   3     3.699737766128    98.43800189   108.67092237
 O      1   2   3     3.699750143909    81.56234757   251.32896495
 O     44   2   1     3.396516060916   110.39286437   110.01693693
 O     44   2   1     3.371017057930   118.31065198   245.36899033
 C     45   1   2     2.731533861487   130.06501127   165.64052862
 C     46  44   2     2.685764282231   137.01998169   140.06248303
 C     47  44   2     2.667742995379   148.96310649    23.74699105
 C     48  45   1     2.821876780120   108.71683717    47.50950135
 H     51  48  45     1.851261114822   109.49126801    55.84912412
 H     51  48  45     1.853713117924   109.44913491   175.79440312
 H     51  48  45     1.850535283462   109.52261854   295.77113915
 C     48  45   1     2.855708363503   107.73793307   284.05315123
 H     55  48  45     1.851685249386   109.45760288    71.03315471
 H     55  48  45     1.852480239536   109.42957231   191.08567158
 H     55  48  45     1.851895300571   109.39668429   311.05259494
 C     48  45   1     2.863929970855   107.99638195   166.15735570
 H     59  48  45     1.853511245139   109.42783960    57.77400865
 H     59  48  45     1.850392042932   109.47436933   177.74617514
 H     59  48  45     1.851873960393   109.47378784   297.81694980
 C     49  46  44     2.747672465971   108.37330914   185.95127049
 H     63  49  46     1.850837009249   109.56362464    69.53699792
 H     63  49  46     1.852710471827   109.49128334   189.59520774
 H     63  49  46     1.852949488285   109.42511146   309.57289999
 C     49  46  44     2.728464731631   111.80176919   317.23263987
 H     67  49  46     1.853002428322   109.43131277    56.31416043
 H     67  49  46     1.851264217215   109.42753747   176.25768627
 H     67  49  46     1.852346870473   109.48109223   296.31505867
 C     49  46  44     2.985007344736   107.56695725    73.59738086
 H     71  49  46     1.852278681785   109.44901817    48.32082618
 H     71  49  46     1.851986123833   109.45598216   168.26102919
 H     71  49  46     1.851031439901   109.43938534   288.29615592
 C     50  47  44     2.881685658801   109.26558547    10.85119496
 H     75  50  47     1.854030137659   109.38572852    58.71829654
 H     75  50  47     1.851705451400   109.46527191   178.67923137
 H     75  50  47     1.851915862912   109.47520429   298.78633929
 C     50  47  44     2.857120780398   107.67851316   131.91198113
 H     79  50  47     1.851226727549   109.49734745    54.87349249
 H     79  50  47     1.852369884637   109.47972131   174.83186656
 H     79  50  47     1.850994355683   109.49206329   294.81020174
 C     50  47  44     2.892347222511   106.61247189   250.61608279
 H     83  50  47     1.852019126442   109.50335068    65.48628226
 H     83  50  47     1.852910578301   109.49210335   185.51223303
 H     83  50  47     1.851460313255   109.47930704   305.50005821

---------------------
BASIS SET INFORMATION
---------------------
There are 4 groups of distinct atoms

 Group   1 Type Fe  : 17s11p7d1f contracted to 6s4p4d1f pattern {842111/6311/4111/1}
 Group   2 Type O   : 11s6p2d1f contracted to 5s3p2d1f pattern {62111/411/11/1}
 Group   3 Type C   : 11s6p2d1f contracted to 5s3p2d1f pattern {62111/411/11/1}
 Group   4 Type H   : 5s1p contracted to 3s1p pattern {311/1}

Atom   0Fe   basis set group =>   1
Atom   1O    basis set group =>   2
Atom   2O    basis set group =>   2
Atom   3O    basis set group =>   2
Atom   4C    basis set group =>   3
Atom   5C    basis set group =>   3
Atom   6C    basis set group =>   3
Atom   7C    basis set group =>   3
Atom   8H    basis set group =>   4
Atom   9H    basis set group =>   4
Atom  10H    basis set group =>   4
Atom  11C    basis set group =>   3
Atom  12H    basis set group =>   4
Atom  13H    basis set group =>   4
Atom  14H    basis set group =>   4
Atom  15C    basis set group =>   3
Atom  16H    basis set group =>   4
Atom  17H    basis set group =>   4
Atom  18H    basis set group =>   4
Atom  19C    basis set group =>   3
Atom  20H    basis set group =>   4
Atom  21H    basis set group =>   4
Atom  22H    basis set group =>   4
Atom  23C    basis set group =>   3
Atom  24H    basis set group =>   4
Atom  25H    basis set group =>   4
Atom  26H    basis set group =>   4
Atom  27C    basis set group =>   3
Atom  28H    basis set group =>   4
Atom  29H    basis set group =>   4
Atom  30H    basis set group =>   4
Atom  31C    basis set group =>   3
Atom  32H    basis set group =>   4
Atom  33H    basis set group =>   4
Atom  34H    basis set group =>   4
Atom  35C    basis set group =>   3
Atom  36H    basis set group =>   4
Atom  37H    basis set group =>   4
Atom  38H    basis set group =>   4
Atom  39C    basis set group =>   3
Atom  40H    basis set group =>   4
Atom  41H    basis set group =>   4
Atom  42H    basis set group =>   4
Atom  43Fe   basis set group =>   1
Atom  44O    basis set group =>   2
Atom  45O    basis set group =>   2
Atom  46O    basis set group =>   2
Atom  47C    basis set group =>   3
Atom  48C    basis set group =>   3
Atom  49C    basis set group =>   3
Atom  50C    basis set group =>   3
Atom  51H    basis set group =>   4
Atom  52H    basis set group =>   4
Atom  53H    basis set group =>   4
Atom  54C    basis set group =>   3
Atom  55H    basis set group =>   4
Atom  56H    basis set group =>   4
Atom  57H    basis set group =>   4
Atom  58C    basis set group =>   3
Atom  59H    basis set group =>   4
Atom  60H    basis set group =>   4
Atom  61H    basis set group =>   4
Atom  62C    basis set group =>   3
Atom  63H    basis set group =>   4
Atom  64H    basis set group =>   4
Atom  65H    basis set group =>   4
Atom  66C    basis set group =>   3
Atom  67H    basis set group =>   4
Atom  68H    basis set group =>   4
Atom  69H    basis set group =>   4
Atom  70C    basis set group =>   3
Atom  71H    basis set group =>   4
Atom  72H    basis set group =>   4
Atom  73H    basis set group =>   4
Atom  74C    basis set group =>   3
Atom  75H    basis set group =>   4
Atom  76H    basis set group =>   4
Atom  77H    basis set group =>   4
Atom  78C    basis set group =>   3
Atom  79H    basis set group =>   4
Atom  80H    basis set group =>   4
Atom  81H    basis set group =>   4
Atom  82C    basis set group =>   3
Atom  83H    basis set group =>   4
Atom  84H    basis set group =>   4
Atom  85H    basis set group =>   4
---------------------------------
AUXILIARY/J BASIS SET INFORMATION
---------------------------------
There are 4 groups of distinct atoms

 Group   1 Type Fe  : 19s5p5d3f3g contracted to 8s5p5d2f3g pattern {121111111/11111/11111/21/111}
 Group   2 Type O   : 12s5p4d2f1g contracted to 6s4p3d1f1g pattern {711111/2111/211/2/1}
 Group   3 Type C   : 12s5p4d2f1g contracted to 6s4p3d1f1g pattern {711111/2111/211/2/1}
 Group   4 Type H   : 5s2p1d contracted to 3s1p1d pattern {311/2/1}

Atom   0Fe   basis set group =>   1
Atom   1O    basis set group =>   2
Atom   2O    basis set group =>   2
Atom   3O    basis set group =>   2
Atom   4C    basis set group =>   3
Atom   5C    basis set group =>   3
Atom   6C    basis set group =>   3
Atom   7C    basis set group =>   3
Atom   8H    basis set group =>   4
Atom   9H    basis set group =>   4
Atom  10H    basis set group =>   4
Atom  11C    basis set group =>   3
Atom  12H    basis set group =>   4
Atom  13H    basis set group =>   4
Atom  14H    basis set group =>   4
Atom  15C    basis set group =>   3
Atom  16H    basis set group =>   4
Atom  17H    basis set group =>   4
Atom  18H    basis set group =>   4
Atom  19C    basis set group =>   3
Atom  20H    basis set group =>   4
Atom  21H    basis set group =>   4
Atom  22H    basis set group =>   4
Atom  23C    basis set group =>   3
Atom  24H    basis set group =>   4
Atom  25H    basis set group =>   4
Atom  26H    basis set group =>   4
Atom  27C    basis set group =>   3
Atom  28H    basis set group =>   4
Atom  29H    basis set group =>   4
Atom  30H    basis set group =>   4
Atom  31C    basis set group =>   3
Atom  32H    basis set group =>   4
Atom  33H    basis set group =>   4
Atom  34H    basis set group =>   4
Atom  35C    basis set group =>   3
Atom  36H    basis set group =>   4
Atom  37H    basis set group =>   4
Atom  38H    basis set group =>   4
Atom  39C    basis set group =>   3
Atom  40H    basis set group =>   4
Atom  41H    basis set group =>   4
Atom  42H    basis set group =>   4
Atom  43Fe   basis set group =>   1
Atom  44O    basis set group =>   2
Atom  45O    basis set group =>   2
Atom  46O    basis set group =>   2
Atom  47C    basis set group =>   3
Atom  48C    basis set group =>   3
Atom  49C    basis set group =>   3
Atom  50C    basis set group =>   3
Atom  51H    basis set group =>   4
Atom  52H    basis set group =>   4
Atom  53H    basis set group =>   4
Atom  54C    basis set group =>   3
Atom  55H    basis set group =>   4
Atom  56H    basis set group =>   4
Atom  57H    basis set group =>   4
Atom  58C    basis set group =>   3
Atom  59H    basis set group =>   4
Atom  60H    basis set group =>   4
Atom  61H    basis set group =>   4
Atom  62C    basis set group =>   3
Atom  63H    basis set group =>   4
Atom  64H    basis set group =>   4
Atom  65H    basis set group =>   4
Atom  66C    basis set group =>   3
Atom  67H    basis set group =>   4
Atom  68H    basis set group =>   4
Atom  69H    basis set group =>   4
Atom  70C    basis set group =>   3
Atom  71H    basis set group =>   4
Atom  72H    basis set group =>   4
Atom  73H    basis set group =>   4
Atom  74C    basis set group =>   3
Atom  75H    basis set group =>   4
Atom  76H    basis set group =>   4
Atom  77H    basis set group =>   4
Atom  78C    basis set group =>   3
Atom  79H    basis set group =>   4
Atom  80H    basis set group =>   4
Atom  81H    basis set group =>   4
[...]
      px      :     0.000209
      py      :     0.000727
      dz2     :     0.000301  d :     0.000853
      dxz     :     0.000256
      dyz     :     0.000135
      dx2y2   :     0.000114
      dxy     :     0.000047
      f0      :     0.000028  f :     0.000067
      f+1     :     0.000006
      f-1     :     0.000003
      f+2     :     0.000020
      f-2     :     0.000009
      f+3     :     0.000000
      f-3     :     0.000001
 59 H s       :    -0.000122  s :    -0.000122
      pz      :     0.000058  p :     0.000057
      px      :    -0.000000
      py      :    -0.000000
 60 H s       :     0.000862  s :     0.000862
      pz      :     0.000055  p :     0.000086
      px      :     0.000002
      py      :     0.000029
 61 H s       :    -0.000147  s :    -0.000147
      pz      :     0.000054  p :     0.000074
      px      :     0.000005
      py      :     0.000014
 62 C s       :     0.001234  s :     0.001234
      pz      :     0.001206  p :     0.004945
      px      :     0.003485
      py      :     0.000254
      dz2     :     0.000055  d :     0.001251
      dxz     :     0.000302
      dyz     :     0.000612
      dx2y2   :     0.000089
      dxy     :     0.000194
      f0      :     0.000008  f :     0.000061
      f+1     :    -0.000001
      f-1     :     0.000005
      f+2     :     0.000010
      f-2     :     0.000008
      f+3     :     0.000008
      f-3     :     0.000023
 63 H s       :    -0.000038  s :    -0.000038
      pz      :     0.000007  p :     0.000115
      px      :     0.000108
      py      :    -0.000000
 64 H s       :     0.001493  s :     0.001493
      pz      :     0.000004  p :     0.000100
      px      :     0.000108
      py      :    -0.000012
 65 H s       :    -0.000041  s :    -0.000041
      pz      :     0.000023  p :     0.000111
      px      :     0.000069
      py      :     0.000019
 66 C s       :     0.000553  s :     0.000553
      pz      :     0.000422  p :     0.005085
      px      :     0.000516
      py      :     0.004146
      dz2     :     0.000120  d :     0.000249
      dxz     :     0.000117
      dyz     :    -0.000053
      dx2y2   :     0.000175
      dxy     :    -0.000111
      f0      :     0.000002  f :     0.000046
      f+1     :    -0.000002
      f-1     :     0.000037
      f+2     :     0.000001
      f-2     :     0.000018
      f+3     :    -0.000013
      f-3     :     0.000003
 67 H s       :    -0.000499  s :    -0.000499
      pz      :    -0.000008  p :     0.000088
      px      :    -0.000025
      py      :     0.000121
 68 H s       :     0.000399  s :     0.000399
      pz      :     0.000044  p :     0.000105
      px      :     0.000014
      py      :     0.000048
 69 H s       :    -0.000162  s :    -0.000162
      pz      :     0.000041  p :     0.000111
      px      :     0.000002
      py      :     0.000068
 70 C s       :     0.000526  s :     0.000526
      pz      :     0.002902  p :     0.005222
      px      :     0.002259
      py      :     0.000061
      dz2     :     0.000018  d :     0.000063
      dxz     :     0.000024
      dyz     :    -0.000062
      dx2y2   :    -0.000034
      dxy     :     0.000116
      f0      :    -0.000000  f :     0.000051
      f+1     :     0.000017
      f-1     :     0.000002
      f+2     :     0.000002
      f-2     :     0.000018
      f+3     :     0.000006
      f-3     :     0.000006
 71 H s       :    -0.000185  s :    -0.000185
      pz      :     0.000061  p :     0.000109
      px      :     0.000032
      py      :     0.000016
 72 H s       :     0.000334  s :     0.000334
      pz      :     0.000029  p :     0.000108
      px      :     0.000063
      py      :     0.000016
 73 H s       :    -0.000486  s :    -0.000486
      pz      :     0.000062  p :     0.000069
      px      :     0.000006
      py      :     0.000001
 74 C s       :     0.000422  s :     0.000422
      pz      :     0.003449  p :     0.004582
      px      :     0.000250
      py      :     0.000883
      dz2     :     0.000032  d :     0.000204
      dxz     :     0.000217
      dyz     :    -0.000038
      dx2y2   :    -0.000029
      dxy     :     0.000023
      f0      :    -0.000001  f :     0.000076
      f+1     :     0.000036
      f-1     :     0.000001
      f+2     :     0.000006
      f-2     :     0.000022
      f+3     :     0.000003
      f-3     :     0.000009
 75 H s       :    -0.000247  s :    -0.000247
      pz      :     0.000067  p :     0.000096
      px      :     0.000006
      py      :     0.000023
 76 H s       :     0.000204  s :     0.000204
      pz      :     0.000061  p :     0.000108
      px      :     0.000004
      py      :     0.000042
 77 H s       :    -0.000336  s :    -0.000336
      pz      :     0.000078  p :     0.000103
      px      :     0.000006
      py      :     0.000019
 78 C s       :     0.001301  s :     0.001301
      pz      :     0.001371  p :     0.005642
      px      :     0.003957
      py      :     0.000313
      dz2     :     0.000404  d :     0.001311
      dxz     :     0.000051
      dyz     :     0.000061
      dx2y2   :     0.000823
      dxy     :    -0.000028
      f0      :     0.000028  f :     0.000085
      f+1     :     0.000025
      f-1     :     0.000005
      f+2     :     0.000015
      f-2     :     0.000008
      f+3     :     0.000014
      f-3     :    -0.000009
 79 H s       :    -0.000023  s :    -0.000023
      pz      :     0.000082  p :     0.000127
      px      :     0.000040
      py      :     0.000004
 80 H s       :     0.001481  s :     0.001481
      pz      :     0.000060  p :     0.000105
      px      :     0.000037
      py      :     0.000008
 81 H s       :    -0.000105  s :    -0.000105
      pz      :     0.000038  p :     0.000134
      px      :     0.000064
      py      :     0.000032
 82 C s       :     0.001016  s :     0.001016
      pz      :     0.000843  p :     0.005797
      px      :     0.000033
      py      :     0.004922
      dz2     :     0.000003  d :     0.000940
      dxz     :     0.000277
      dyz     :     0.000211
      dx2y2   :    -0.000004
      dxy     :     0.000453
      f0      :     0.000004  f :     0.000077
      f+1     :     0.000002
      f-1     :    -0.000008
      f+2     :     0.000007
      f-2     :     0.000008
      f+3     :     0.000050
      f-3     :     0.000012
 83 H s       :    -0.000267  s :    -0.000267
      pz      :     0.000024  p :     0.000140
      px      :     0.000006
      py      :     0.000110
 84 H s       :     0.001066  s :     0.001066
      pz      :     0.000008  p :     0.000110
      px      :    -0.000003
      py      :     0.000106
 85 H s       :    -0.000092  s :    -0.000092
      pz      :     0.000014  p :     0.000126
      px      :    -0.000000
      py      :     0.000112


                      *****************************
                      * MAYER POPULATION ANALYSIS *
                      *****************************

  NA   - Mulliken gross atomic population
  ZA   - Total nuclear charge
  QA   - Mulliken gross atomic charge
  VA   - Mayer's total valence
  BVA  - Mayer's bonded valence
  FA   - Mayer's free valence

  ATOM       NA         ZA         QA         VA         BVA        FA
  0 Fe    24.8110    26.0000     1.1890     6.5653     2.9957     3.5696
  1 O      8.6748     8.0000    -0.6748     1.6765     1.6582     0.0183
  2 O      8.5663     8.0000    -0.5663     1.8966     1.8597     0.0369
  3 O      8.5649     8.0000    -0.5649     1.8878     1.8508     0.0370
  4 C      5.6923     6.0000     0.3077     3.7539     3.7538     0.0001
  5 C      5.7383     6.0000     0.2617     3.8274     3.8273     0.0001
  6 C      5.8021     6.0000     0.1979     3.9308     3.9306     0.0002
  7 C      6.3924     6.0000    -0.3924     3.8888     3.8887     0.0000
  8 H      0.8790     1.0000     0.1210     0.9841     0.9841     0.0000
  9 H      0.8767     1.0000     0.1233     0.9792     0.9792     0.0000
 10 H      0.8639     1.0000     0.1361     0.9933     0.9933    -0.0000
 11 C      6.3965     6.0000    -0.3965     3.9219     3.9219     0.0000
 12 H      0.8535     1.0000     0.1465     1.0030     1.0030     0.0000
 13 H      0.8849     1.0000     0.1151     0.9770     0.9770     0.0000
 14 H      0.9024     1.0000     0.0976     1.0147     1.0147     0.0000
 15 C      6.3914     6.0000    -0.3914     3.8690     3.8690     0.0000
 16 H      0.8554     1.0000     0.1446     0.9936     0.9936    -0.0000
 17 H      0.8772     1.0000     0.1228     0.9744     0.9744     0.0000
 18 H      0.8757     1.0000     0.1243     0.9876     0.9876     0.0000
 19 C      6.3389     6.0000    -0.3389     3.8620     3.8620     0.0001
 20 H      0.8846     1.0000     0.1154     0.9802     0.9802     0.0000
 21 H      0.8912     1.0000     0.1088     0.9767     0.9767     0.0000
 22 H      0.8845     1.0000     0.1155     0.9853     0.9853     0.0000
 23 C      6.4103     6.0000    -0.4103     3.9337     3.9336     0.0001
 24 H      0.8701     1.0000     0.1299     0.9879     0.9879     0.0000
 25 H      0.8832     1.0000     0.1168     0.9766     0.9766     0.0000
 26 H      0.8830     1.0000     0.1170     0.9779     0.9779     0.0000
 27 C      6.4102     6.0000    -0.4102     3.9033     3.9032     0.0001
 28 H      0.8809     1.0000     0.1191     0.9784     0.9784     0.0000
 29 H      0.8833     1.0000     0.1167     0.9753     0.9753     0.0000
 30 H      0.8641     1.0000     0.1359     0.9957     0.9957     0.0000
 31 C      6.3689     6.0000    -0.3689     3.9297     3.9296     0.0001
 32 H      0.8659     1.0000     0.1341     0.9785     0.9785     0.0000
 33 H      0.8845     1.0000     0.1155     0.9743     0.9743     0.0000
 34 H      0.8894     1.0000     0.1106     0.9983     0.9983     0.0000
 35 C      6.3499     6.0000    -0.3499     3.8586     3.8585     0.0001
 36 H      0.8812     1.0000     0.1188     0.9827     0.9827     0.0000
 37 H      0.8883     1.0000     0.1117     0.9775     0.9775     0.0000
 38 H      0.8782     1.0000     0.1218     0.9797     0.9797     0.0000
 39 C      6.3716     6.0000    -0.3716     3.8802     3.8801     0.0001
 40 H      0.8775     1.0000     0.1225     0.9800     0.9800     0.0000
 41 H      0.8820     1.0000     0.1180     0.9756     0.9756     0.0000
 42 H      0.8795     1.0000     0.1205     0.9801     0.9801     0.0000
 43 Fe    24.8110    26.0000     1.1890     6.5652     2.9956     3.5696
 44 O      8.6748     8.0000    -0.6748     1.6765     1.6582     0.0183
 45 O      8.5663     8.0000    -0.5663     1.8966     1.8597     0.0369
 46 O      8.5649     8.0000    -0.5649     1.8878     1.8508     0.0370
 47 C      5.6922     6.0000     0.3078     3.7536     3.7536     0.0001
 48 C      5.7383     6.0000     0.2617     3.8275     3.8275     0.0001
 49 C      5.8021     6.0000     0.1979     3.9309     3.9307     0.0002
 50 C      6.3925     6.0000    -0.3925     3.8888     3.8887     0.0000
 51 H      0.8790     1.0000     0.1210     0.9841     0.9841     0.0000
 52 H      0.8767     1.0000     0.1233     0.9792     0.9792     0.0000
 53 H      0.8639     1.0000     0.1361     0.9933     0.9933    -0.0000
 54 C      6.3965     6.0000    -0.3965     3.9218     3.9218     0.0000
 55 H      0.8535     1.0000     0.1465     1.0030     1.0030     0.0000
 56 H      0.8849     1.0000     0.1151     0.9770     0.9770     0.0000
 57 H      0.9024     1.0000     0.0976     1.0147     1.0147     0.0000
 58 C      6.3914     6.0000    -0.3914     3.8690     3.8690     0.0000
 59 H      0.8554     1.0000     0.1446     0.9936     0.9936    -0.0000
 60 H      0.8772     1.0000     0.1228     0.9744     0.9744     0.0000
 61 H      0.8757     1.0000     0.1243     0.9876     0.9876     0.0000
 62 C      6.3389     6.0000    -0.3389     3.8620     3.8619     0.0001
 63 H      0.8846     1.0000     0.1154     0.9802     0.9802     0.0000
 64 H      0.8912     1.0000     0.1088     0.9767     0.9767     0.0000
 65 H      0.8845     1.0000     0.1155     0.9853     0.9853     0.0000
 66 C      6.4103     6.0000    -0.4103     3.9337     3.9336     0.0001
 67 H      0.8701     1.0000     0.1299     0.9879     0.9879     0.0000
 68 H      0.8832     1.0000     0.1168     0.9766     0.9766     0.0000
 69 H      0.8830     1.0000     0.1170     0.9779     0.9779     0.0000
 70 C      6.4102     6.0000    -0.4102     3.9033     3.9032     0.0001
 71 H      0.8809     1.0000     0.1191     0.9784     0.9784     0.0000
 72 H      0.8833     1.0000     0.1167     0.9753     0.9753     0.0000
 73 H      0.8641     1.0000     0.1359     0.9957     0.9957     0.0000
 74 C      6.3689     6.0000    -0.3689     3.9297     3.9296     0.0001
 75 H      0.8659     1.0000     0.1341     0.9784     0.9784     0.0000
 76 H      0.8845     1.0000     0.1155     0.9743     0.9743     0.0000
 77 H      0.8894     1.0000     0.1106     0.9983     0.9983     0.0000
 78 C      6.3498     6.0000    -0.3498     3.8585     3.8584     0.0001
 79 H      0.8813     1.0000     0.1187     0.9827     0.9827     0.0000
 80 H      0.8883     1.0000     0.1117     0.9775     0.9775     0.0000
 81 H      0.8782     1.0000     0.1218     0.9797     0.9797     0.0000
 82 C      6.3716     6.0000    -0.3716     3.8803     3.8802     0.0001
 83 H      0.8775     1.0000     0.1225     0.9800     0.9800     0.0000
 84 H      0.8821     1.0000     0.1179     0.9756     0.9756     0.0000
 85 H      0.8795     1.0000     0.1205     0.9801     0.9801     0.0000

  Mayer bond orders larger than 0.100000
B(  0-Fe,  1-O ) :   0.4427 B(  0-Fe,  2-O ) :   0.8830 B(  0-Fe,  3-O ) :   0.8471 
B(  0-Fe, 44-O ) :   0.4496 B(  1-O ,  4-C ) :   0.7570 B(  1-O , 43-Fe) :   0.4496 
B(  2-O ,  5-C ) :   0.8803 B(  3-O ,  6-C ) :   0.9194 B(  4-C ,  7-C ) :   0.9769 
B(  4-C , 11-C ) :   0.9883 B(  4-C , 15-C ) :   0.9831 B(  5-C , 19-C ) :   0.9627 
B(  5-C , 23-C ) :   0.9697 B(  5-C , 27-C ) :   0.9690 B(  6-C , 31-C ) :   1.0078 
B(  6-C , 35-C ) :   0.9641 B(  6-C , 39-C ) :   0.9604 B(  7-C ,  8-H ) :   0.9715 
B(  7-C ,  9-H ) :   0.9578 B(  7-C , 10-H ) :   0.9617 B( 11-C , 12-H ) :   0.9571 
B( 11-C , 13-H ) :   0.9603 B( 11-C , 14-H ) :   0.9725 B( 15-C , 16-H ) :   0.9563 
B( 15-C , 17-H ) :   0.9571 B( 15-C , 18-H ) :   0.9674 B( 19-C , 20-H ) :   0.9708 
B( 19-C , 21-H ) :   0.9710 B( 19-C , 22-H ) :   0.9731 B( 23-C , 24-H ) :   0.9723 
B( 23-C , 25-H ) :   0.9587 B( 23-C , 26-H ) :   0.9717 B( 27-C , 28-H ) :   0.9737 
B( 27-C , 29-H ) :   0.9579 B( 27-C , 30-H ) :   0.9656 B( 31-C , 32-H ) :   0.9654 
B( 31-C , 33-H ) :   0.9573 B( 31-C , 34-H ) :   0.9651 B( 35-C , 36-H ) :   0.9710 
B( 35-C , 37-H ) :   0.9647 B( 35-C , 38-H ) :   0.9699 B( 39-C , 40-H ) :   0.9741 
B( 39-C , 41-H ) :   0.9615 B( 39-C , 42-H ) :   0.9714 B( 43-Fe, 44-O ) :   0.4427 
B( 43-Fe, 45-O ) :   0.8830 B( 43-Fe, 46-O ) :   0.8471 B( 44-O , 47-C ) :   0.7570 
B( 45-O , 48-C ) :   0.8804 B( 46-O , 49-C ) :   0.9194 B( 47-C , 50-C ) :   0.9768 
B( 47-C , 54-C ) :   0.9882 B( 47-C , 58-C ) :   0.9831 B( 48-C , 62-C ) :   0.9627 
B( 48-C , 66-C ) :   0.9697 B( 48-C , 70-C ) :   0.9690 B( 49-C , 74-C ) :   1.0078 
B( 49-C , 78-C ) :   0.9641 B( 49-C , 82-C ) :   0.9604 B( 50-C , 51-H ) :   0.9715 
B( 50-C , 52-H ) :   0.9579 B( 50-C , 53-H ) :   0.9618 B( 54-C , 55-H ) :   0.9570 
B( 54-C , 56-H ) :   0.9602 B( 54-C , 57-H ) :   0.9726 B( 58-C , 59-H ) :   0.9563 
B( 58-C , 60-H ) :   0.9571 B( 58-C , 61-H ) :   0.9674 B( 62-C , 63-H ) :   0.9708 
B( 62-C , 64-H ) :   0.9710 B( 62-C , 65-H ) :   0.9731 B( 66-C , 67-H ) :   0.9723 
B( 66-C , 68-H ) :   0.9587 B( 66-C , 69-H ) :   0.9717 B( 70-C , 71-H ) :   0.9737 
B( 70-C , 72-H ) :   0.9579 B( 70-C , 73-H ) :   0.9656 B( 74-C , 75-H ) :   0.9654 
B( 74-C , 76-H ) :   0.9573 B( 74-C , 77-H ) :   0.9651 B( 78-C , 79-H ) :   0.9710 
B( 78-C , 80-H ) :   0.9647 B( 78-C , 81-H ) :   0.9699 B( 82-C , 83-H ) :   0.9741 
B( 82-C , 84-H ) :   0.9615 B( 82-C , 85-H ) :   0.9714 

-------
TIMINGS
-------

Total SCF time: 0 days 0 hours 3 min 11 sec 

Total time                  ....     191.494 sec
Sum of individual times     ....     181.366 sec  ( 94.7%)

Fock matrix formation       ....     150.487 sec  ( 78.6%)
  Split-RI-J                ....      12.164 sec  (  8.1% of F)
  Chain of spheres X        ....     111.363 sec  ( 74.0% of F)
  XC integration            ....      16.916 sec  ( 11.2% of F)
    Basis function eval.    ....       1.160 sec  (  6.9% of XC)
    Density eval.           ....       8.875 sec  ( 52.5% of XC)
    XC-Functional eval.     ....       0.076 sec  (  0.5% of XC)
    XC-Potential eval.      ....       2.103 sec  ( 12.4% of XC)
Diagonalization             ....       9.229 sec  (  4.8%)
Density matrix formation    ....       1.180 sec  (  0.6%)
Population analysis         ....       2.301 sec  (  1.2%)
Initial guess               ....       2.552 sec  (  1.3%)
Orbital Transformation      ....       0.000 sec  (  0.0%)
Orbital Orthonormalization  ....       2.301 sec  (  1.2%)
DIIS solution               ....       9.076 sec  (  4.7%)
Grid generation             ....       6.542 sec  (  3.4%)

Maximum memory used throughout the entire SCF-calculation: 510.8 MB

-------------------------   --------------------
FINAL SINGLE POINT ENERGY     -3924.514662338806
-------------------------   --------------------

                                *** OPTIMIZATION RUN DONE ***

                            ***************************************
                            *     ORCA property calculations      *
                            ***************************************

                                    ---------------------
                                    Active property flags
                                    ---------------------
   (+) Dipole Moment


------------------------------------------------------------------------------
                       ORCA ELECTRIC PROPERTIES CALCULATION
------------------------------------------------------------------------------

Dipole Moment Calculation                       ... on
Quadrupole Moment Calculation                   ... off
Polarizability Calculation                      ... off
GBWName                                         ... Fe2_tert-butoxide_6_HighSpin_Opt.gbw
Electron density                                ... Fe2_tert-butoxide_6_HighSpin_Opt.scfp
The origin for moment calculation is the CENTER OF MASS  = (19.013956,  4.151521 14.505128)

-------------
DIPOLE MOMENT
-------------
                                X             Y             Z
Electronic contribution:     -0.00141      -0.00146       0.00012
Nuclear contribution   :      0.00145       0.00153      -0.00016
                        -----------------------------------------
Total Dipole Moment    :      0.00004       0.00008      -0.00004
                        -----------------------------------------
Magnitude (a.u.)       :      0.00009
Magnitude (Debye)      :      0.00024



--------------------
Rotational spectrum 
--------------------
 
Rotational constants in cm-1:     0.004895     0.003291     0.002885 
Rotational constants in MHz :   146.756375    98.666265    86.500147 

 Dipole components along the rotational axes: 
x,y,z [a.u.] :    -0.000074     0.000056    -0.000018 
x,y,z [Debye]:    -0.000188     0.000142    -0.000047 

 

Timings for individual modules:

Sum of individual times         ...     7449.684 sec (= 124.161 min)
GTO integral calculation        ...      105.887 sec (=   1.765 min)   1.4 %
SCF iterations                  ...     5914.323 sec (=  98.572 min)  79.4 %
SCF Gradient evaluation         ...     1419.796 sec (=  23.663 min)  19.1 %
Geometry relaxation             ...        9.678 sec (=   0.161 min)   0.1 %
                             ****ORCA TERMINATED NORMALLY****
TOTAL RUN TIME: 0 days 2 hours 4 minutes 31 seconds 624 msec
