
                                 *****************
                                 * O   R   C   A *
                                 *****************

                                            #,                                       
                                            ###                                      
                                            ####                                     
                                            #####                                    
                                            ######                                   
                                           ########,                                 
                                     ,,################,,,,,                         
                               ,,#################################,,                 
                          ,,##########################################,,             
                       ,#########################################, ''#####,          
                    ,#############################################,,   '####,        
                  ,##################################################,,,,####,       
                ,###########''''           ''''###############################       
              ,#####''   ,,,,##########,,,,          '''####'''          '####       
            ,##' ,,,,###########################,,,                        '##       
           ' ,,###''''                  '''############,,,                           
         ,,##''                                '''############,,,,        ,,,,,,###''
      ,#''                                            '''#######################'''  
     '                                                          ''''####''''         
             ,#######,   #######,   ,#######,      ##                                
            ,#'     '#,  ##    ##  ,#'     '#,    #''#        ######   ,####,        
            ##       ##  ##   ,#'  ##            #'  '#       #        #'  '#        
            ##       ##  #######   ##           ,######,      #####,   #    #        
            '#,     ,#'  ##    ##  '#,     ,#' ,#      #,         ##   #,  ,#        
             '#######'   ##     ##  '#######'  #'      '#     #####' # '####'        



                  #######################################################
                  #                        -***-                        #
                  #          Department of theory and spectroscopy      #
                  #    Directorship and core code : Frank Neese         #
                  #        Max Planck Institute fuer Kohlenforschung    #
                  #                Kaiser Wilhelm Platz 1               #
                  #                 D-45470 Muelheim/Ruhr               #
                  #                      Germany                        #
                  #                                                     #
                  #                  All rights reserved                #
                  #                        -***-                        #
                  #######################################################


                         Program Version 5.0.2 -  RELEASE  -


 With contributions from (in alphabetic order):
   Daniel Aravena         : Magnetic Suceptibility
   Michael Atanasov       : Ab Initio Ligand Field Theory (pilot matlab implementation)
   Alexander A. Auer      : GIAO ZORA, VPT2 properties, NMR spectrum
   Ute Becker             : Parallelization
   Giovanni Bistoni       : ED, misc. LED, open-shell LED, HFLD
   Martin Brehm           : Molecular dynamics
   Dmytro Bykov           : SCF Hessian
   Vijay G. Chilkuri      : MRCI spin determinant printing, contributions to CSF-ICE
   Dipayan Datta          : RHF DLPNO-CCSD density
   Achintya Kumar Dutta   : EOM-CC, STEOM-CC
   Dmitry Ganyushin       : Spin-Orbit,Spin-Spin,Magnetic field MRCI
   Miquel Garcia          : C-PCM and meta-GGA Hessian, CC/C-PCM, Gaussian charge scheme
   Yang Guo               : DLPNO-NEVPT2, F12-NEVPT2, CIM, IAO-localization
   Andreas Hansen         : Spin unrestricted coupled pair/coupled cluster methods
   Benjamin Helmich-Paris : MC-RPA, TRAH-SCF, COSX integrals
   Lee Huntington         : MR-EOM, pCC
   Robert Izsak           : Overlap fitted RIJCOSX, COSX-SCS-MP3, EOM
   Marcus Kettner         : VPT2
   Christian Kollmar      : KDIIS, OOCD, Brueckner-CCSD(T), CCSD density, CASPT2, CASPT2-K
   Simone Kossmann        : Meta GGA functionals, TD-DFT gradient, OOMP2, MP2 Hessian
   Martin Krupicka        : Initial AUTO-CI
   Lucas Lang             : DCDCAS
   Marvin Lechner         : AUTO-CI (C++ implementation), FIC-MRCC
   Dagmar Lenk            : GEPOL surface, SMD
   Dimitrios Liakos       : Extrapolation schemes; Compound Job, initial MDCI parallelization
   Dimitrios Manganas     : Further ROCIS development; embedding schemes
   Dimitrios Pantazis     : SARC Basis sets
   Anastasios Papadopoulos: AUTO-CI, single reference methods and gradients
   Taras Petrenko         : DFT Hessian,TD-DFT gradient, ASA, ECA, R-Raman, ABS, FL, XAS/XES, NRVS
   Peter Pinski           : DLPNO-MP2, DLPNO-MP2 Gradient
   Christoph Reimann      : Effective Core Potentials
   Marius Retegan         : Local ZFS, SOC
   Christoph Riplinger    : Optimizer, TS searches, QM/MM, DLPNO-CCSD(T), (RO)-DLPNO pert. Triples
   Tobias Risthaus        : Range-separated hybrids, TD-DFT gradient, RPA, STAB
   Michael Roemelt        : Original ROCIS implementation
   Masaaki Saitow         : Open-shell DLPNO-CCSD energy and density
   Barbara Sandhoefer     : DKH picture change effects
   Avijit Sen             : IP-ROCIS
   Kantharuban Sivalingam : CASSCF convergence, NEVPT2, FIC-MRCI
   Bernardo de Souza      : ESD, SOC TD-DFT
   Georgi Stoychev        : AutoAux, RI-MP2 NMR, DLPNO-MP2 response
   Willem Van den Heuvel  : Paramagnetic NMR
   Boris Wezisla          : Elementary symmetry handling
   Frank Wennmohs         : Technical directorship


 We gratefully acknowledge several colleagues who have allowed us to
 interface, adapt or use parts of their codes:
   Stefan Grimme, W. Hujo, H. Kruse, P. Pracht,  : VdW corrections, initial TS optimization,
                  C. Bannwarth, S. Ehlert          DFT functionals, gCP, sTDA/sTD-DF
   Ed Valeev, F. Pavosevic, A. Kumar             : LibInt (2-el integral package), F12 methods
   Garnet Chan, S. Sharma, J. Yang, R. Olivares  : DMRG
   Ulf Ekstrom                                   : XCFun DFT Library
   Mihaly Kallay                                 : mrcc  (arbitrary order and MRCC methods)
   Jiri Pittner, Ondrej Demel                    : Mk-CCSD
   Frank Weinhold                                : gennbo (NPA and NBO analysis)
   Christopher J. Cramer and Donald G. Truhlar   : smd solvation model
   Lars Goerigk                                  : TD-DFT with DH, B97 family of functionals
   V. Asgeirsson, H. Jonsson                     : NEB implementation
   FAccTs GmbH                                   : IRC, NEB, NEB-TS, DLPNO-Multilevel, CI-OPT
                                                   MM, QMMM, 2- and 3-layer-ONIOM, Crystal-QMMM,
                                                   LR-CPCM, SF, NACMEs, symmetry and pop. for TD-DFT,
                                                   nearIR, NL-DFT gradient (VV10), updates on ESD,
                                                   ML-optimized integration grids
   S Lehtola, MJT Oliveira, MAL Marques          : LibXC Library
   Liviu Ungur et al                             : ANISO software


 Your calculation uses the libint2 library for the computation of 2-el integrals
 For citations please refer to: http://libint.valeyev.net

 Your ORCA version has been built with support for libXC version: 5.1.0
 For citations please refer to: https://tddft.org/programs/libxc/

 This ORCA versions uses:
   CBLAS   interface :  Fast vector & matrix operations
   LAPACKE interface :  Fast linear algebra routines
   SCALAPACK package :  Parallel linear algebra routines
   Shared memory     :  Shared parallel matrices
   BLAS/LAPACK       :  OpenBLAS 0.3.15  USE64BITINT DYNAMIC_ARCH NO_AFFINITY Zen SINGLE_THREADED
        Core in use  :  Zen
   Copyright (c) 2011-2014, The OpenBLAS Project


================================================================================

----- Orbital basis set information -----
Your calculation utilizes the basis: def2-TZVP
   F. Weigend and R. Ahlrichs, Phys. Chem. Chem. Phys. 7, 3297 (2005).

----- AuxJ basis set information -----
Your calculation utilizes the auxiliary basis: def2/J
   F. Weigend, Phys. Chem. Chem. Phys. 8, 1057 (2006).

================================================================================
                                        WARNINGS
                       Please study these warnings very carefully!
================================================================================


WARNING: your system is open-shell and RHF/RKS was chosen
  ===> : WILL SWITCH to UHF/UKS


WARNING: Geometry Optimization
  ===> : Switching off AutoStart
         For restart on a previous wavefunction, please use MOREAD

INFO   : the flag for use of the SHARK integral package has been found!

================================================================================
                                       INPUT FILE
================================================================================
NAME = Fe_EtOH_3_LowSpin.inp
|  1> ! PBE0 OPT FREQ def2-TZVP
|  2> %pal nprocs 32 end
|  3> %maxcore 3000
|  4> 
|  5> * xyz 3 2
|  6> Fe         0.10890       -0.32640       -0.17818
|  7> O         -0.47868        1.47592       -0.58066
|  8> O         -0.44020       -1.26474        1.42531
|  9> O          1.34476       -1.15268       -1.42433
| 10> H         -1.33267        2.02913       -0.52454
| 11> C          2.81502       -0.98723       -1.41295
| 12> H         -1.03576       -1.09853        2.23540
| 13> C          0.37082        2.53516       -1.16925
| 14> H          1.30281       -1.77356       -2.23125
| 15> C         -0.00949       -2.62787        1.80883
| 16> H          1.39565        2.15408       -1.17745
| 17> H          0.31750        3.41183       -0.51699
| 18> C         -0.11076        2.83537       -2.57205
| 19> H         -0.08942        1.92991       -3.18728
| 20> H          0.51375        3.59910       -3.04352
| 21> H         -1.14777        3.18620       -2.55913
| 22> H          0.74784       -2.93884        1.08436
| 23> C         -1.20508       -3.55526        1.77965
| 24> H          0.44443       -2.57014        2.80251
| 25> H         -1.66645       -3.55599        0.78675
| 26> H         -1.97211       -3.22155        2.48602
| 27> H         -0.91185       -4.57720        2.03512
| 28> H          3.04568       -0.24271       -0.64610
| 29> H          3.11730       -0.60222       -2.39130
| 30> C          3.46513       -2.31673       -1.09650
| 31> H          3.11161       -2.69789       -0.13306
| 32> H          4.55365       -2.21942       -1.06084
| 33> H          3.20259       -3.06618       -1.85018
| 34> *
| 35> 
| 36>                          ****END OF INPUT****
================================================================================

                       *****************************
                       * Geometry Optimization Run *
                       *****************************

Geometry optimization settings:
Update method            Update   .... BFGS
Choice of coordinates    CoordSys .... Z-matrix Internals
Initial Hessian          InHess   .... Almoef's Model

Convergence Tolerances:
Energy Change            TolE     ....  5.0000e-06 Eh
Max. Gradient            TolMAXG  ....  3.0000e-04 Eh/bohr
RMS Gradient             TolRMSG  ....  1.0000e-04 Eh/bohr
Max. Displacement        TolMAXD  ....  4.0000e-03 bohr
RMS Displacement         TolRMSD  ....  2.0000e-03 bohr
Strict Convergence                ....  False
------------------------------------------------------------------------------
                        ORCA OPTIMIZATION COORDINATE SETUP
------------------------------------------------------------------------------

The optimization will be done in new redundant internal coordinates
Making redundant internal coordinates   ...  (new redundants) done
Evaluating the initial hessian          ...  (Almloef) done
Evaluating the coordinates              ...  done
Calculating the B-matrix                .... done
Calculating the G-matrix                .... done
Diagonalizing the G-matrix              .... done
Small eigenvalue found = 6.842e-03
Small eigenvalue found = 9.444e-03
Small eigenvalue found = 1.899e-02
Small eigenvalue found = 2.717e-02
The first mode is                       ....   54
The number of degrees of freedom        ....   78

    -----------------------------------------------------------------
                    Redundant Internal Coordinates


    -----------------------------------------------------------------
         Definition                    Initial Value    Approx d2E/dq
    -----------------------------------------------------------------
      1. B(O   1,Fe  0)                  1.9379         0.756489   
      2. B(O   2,Fe  0)                  1.9373         0.758230   
      3. B(O   3,Fe  0)                  1.9398         0.751218   
      4. B(H   4,O   1)                  1.0191         0.418538   
      5. B(C   5,O   3)                  1.4796         0.402671   
      6. B(H   6,O   2)                  1.0191         0.418483   
      7. B(C   7,O   1)                  1.4799         0.402216   
      8. B(H   8,O   3)                  1.0190         0.418627   
      9. B(C   9,O   2)                  1.4801         0.401895   
     10. B(H  10,C   7)                  1.0934         0.355605   
     11. B(H  11,C   7)                  1.0940         0.354847   
     12. B(C  12,C   7)                  1.5132         0.397300   
     13. B(H  13,C  12)                  1.0949         0.353667   
     14. B(H  14,C  12)                  1.0934         0.355596   
     15. B(H  15,C  12)                  1.0948         0.353775   
     16. B(H  16,C   9)                  1.0932         0.355879   
     17. B(C  17,C   9)                  1.5134         0.397085   
     18. B(H  18,C   9)                  1.0940         0.354883   
     19. B(H  19,C  17)                  1.0949         0.353731   
     20. B(H  20,C  17)                  1.0948         0.353765   
     21. B(H  21,C  17)                  1.0934         0.355578   
     22. B(H  22,C   5)                  1.0934         0.355601   
     23. B(H  23,C   5)                  1.0940         0.354884   
     24. B(C  24,C   5)                  1.5134         0.397077   
     25. B(H  25,C  24)                  1.0947         0.353872   
     26. B(H  26,C  24)                  1.0934         0.355575   
     27. B(H  27,C  24)                  1.0948         0.353777   
     28. A(O   2,Fe  0,O   3)          120.3957         0.586264   
     29. A(O   1,Fe  0,O   3)          117.1225         0.586005   
     30. A(O   1,Fe  0,O   2)          122.4402         0.587052   
     31. A(Fe  0,O   1,H   4)          138.3760         0.413130   
     32. A(H   4,O   1,C   7)           96.5685         0.331673   
     33. A(Fe  0,O   1,C   7)          125.0453         0.461693   
     34. A(Fe  0,O   2,C   9)          125.3142         0.461819   
     35. A(H   6,O   2,C   9)           96.5627         0.331622   
     36. A(Fe  0,O   2,H   6)          138.1230         0.413289   
     37. A(C   5,O   3,H   8)           96.6112         0.331747   
     38. A(Fe  0,O   3,C   5)          125.4862         0.461199   
     39. A(Fe  0,O   3,H   8)          137.9022         0.412633   
     40. A(O   3,C   5,H  23)          107.8815         0.325595   
     41. A(H  23,C   5,C  24)          112.1775         0.326804   
     42. A(O   3,C   5,C  24)          109.2832         0.369601   
     43. A(H  22,C   5,C  24)          111.1557         0.326913   
     44. A(O   3,C   5,H  22)          106.9273         0.325704   
     45. A(H  22,C   5,H  23)          109.2251         0.289602   
     46. A(O   1,C   7,H  11)          107.9664         0.325529   
     47. A(O   1,C   7,H  10)          106.9506         0.325644   
     48. A(H  10,C   7,H  11)          109.2347         0.289598   
     49. A(H  11,C   7,C  12)          112.2231         0.326829   
     50. A(H  10,C   7,C  12)          111.1292         0.326944   
     51. A(O   1,C   7,C  12)          109.1483         0.369565   
     52. A(C  17,C   9,H  18)          112.1881         0.326805   
     53. A(H  16,C   9,H  18)          109.2391         0.289638   
     54. A(O   2,C   9,H  18)          107.9089         0.325492   
     55. A(H  16,C   9,C  17)          111.1122         0.326956   
     56. A(O   2,C   9,C  17)          109.2367         0.369479   
     57. A(O   2,C   9,H  16)          106.9687         0.325642   
     58. A(H  14,C  12,H  15)          108.7994         0.289460   
     59. A(H  13,C  12,H  15)          106.8634         0.289213   
     60. A(C   7,C  12,H  15)          110.7366         0.326666   
     61. A(H  13,C  12,H  14)          108.9174         0.289446   
     62. A(C   7,C  12,H  14)          110.8867         0.326942   
     63. A(C   7,C  12,H  13)          110.5257         0.326650   
     64. A(C   9,C  17,H  19)          110.5364         0.326630   
     65. A(H  20,C  17,H  21)          108.7847         0.289456   
     66. A(H  19,C  17,H  21)          108.9211         0.289452   
     67. A(C   9,C  17,H  21)          110.8767         0.326911   
     68. A(H  19,C  17,H  20)          106.8627         0.289220   
     69. A(C   9,C  17,H  20)          110.7476         0.326635   
     70. A(H  26,C  24,H  27)          108.7895         0.289457   
     71. A(H  25,C  24,H  27)          106.8615         0.289239   
     72. A(C   5,C  24,H  27)          110.7570         0.326636   
     73. A(H  25,C  24,H  26)          108.8901         0.289469   
     74. A(C   5,C  24,H  26)          110.8717         0.326909   
     75. A(C   5,C  24,H  25)          110.5586         0.326651   
     76. D(H   4,O   1,Fe  0,O   3)    141.0414         0.003899   
     77. D(C   7,O   1,Fe  0,O   3)    -37.4970         0.003899   
     78. D(H   4,O   1,Fe  0,O   2)    -41.2997         0.003899   
     79. D(C   7,O   1,Fe  0,O   2)    140.1619         0.003899   
     80. D(H   6,O   2,Fe  0,O   3)    179.0348         0.003911   
     81. D(C   9,O   2,Fe  0,O   1)   -178.6894         0.003911   
     82. D(H   6,O   2,Fe  0,O   1)      1.4506         0.003911   
     83. D(C   9,O   2,Fe  0,O   3)     -1.1051         0.003911   
     84. D(H   8,O   3,Fe  0,O   1)    -94.9462         0.003866   
     85. D(C   5,O   3,Fe  0,O   2)    -92.9156         0.003866   
     86. D(H   8,O   3,Fe  0,O   2)     87.3444         0.003866   
     87. D(C   5,O   3,Fe  0,O   1)     84.7938         0.003866   
     88. D(H  23,C   5,O   3,Fe  0)   -123.0296         0.013840   
     89. D(H  22,C   5,O   3,Fe  0)     -5.6519         0.013840   
     90. D(H  22,C   5,O   3,H   8)    174.1726         0.013840   
     91. D(C  24,C   5,O   3,H   8)    -65.4197         0.013840   
     92. D(C  24,C   5,O   3,Fe  0)    114.7558         0.013840   
     93. D(H  23,C   5,O   3,H   8)     56.7949         0.013840   
     94. D(C  12,C   7,O   1,H   4)    -67.3860         0.013809   
     95. D(C  12,C   7,O   1,Fe  0)    111.6369         0.013809   
     96. D(H  11,C   7,O   1,H   4)     54.8552         0.013809   
     97. D(H  11,C   7,O   1,Fe  0)   -126.1220         0.013809   
     98. D(H  10,C   7,O   1,H   4)    172.2996         0.013809   
     99. D(H  10,C   7,O   1,Fe  0)     -8.6775         0.013809   
    100. D(H  18,C   9,O   2,H   6)    -56.3874         0.013788   
    101. D(H  18,C   9,O   2,Fe  0)    123.7067         0.013788   
    102. D(C  17,C   9,O   2,H   6)     65.8290         0.013788   
    103. D(C  17,C   9,O   2,Fe  0)   -114.0770         0.013788   
    104. D(H  16,C   9,O   2,H   6)   -173.8171         0.013788   
    105. D(H  16,C   9,O   2,Fe  0)      6.2769         0.013788   
    106. D(H  13,C  12,C   7,O   1)    -57.7375         0.012530   
    107. D(H  15,C  12,C   7,H  10)    178.2027         0.012530   
    108. D(H  15,C  12,C   7,O   1)     60.4890         0.012530   
    109. D(H  14,C  12,C   7,H  11)     61.7293         0.012530   
    110. D(H  14,C  12,C   7,H  10)    -60.9143         0.012530   
    111. D(H  14,C  12,C   7,O   1)   -178.6280         0.012530   
    112. D(H  13,C  12,C   7,H  11)   -177.3802         0.012530   
    113. D(H  15,C  12,C   7,H  11)    -59.1536         0.012530   
    114. D(H  13,C  12,C   7,H  10)     59.9762         0.012530   
    115. D(H  21,C  17,C   9,H  18)    -61.8062         0.012517   
    116. D(H  21,C  17,C   9,O   2)    178.5862         0.012517   
    117. D(H  20,C  17,C   9,H  18)     59.0588         0.012517   
    118. D(H  20,C  17,C   9,H  16)   -178.3293         0.012517   
    119. D(H  20,C  17,C   9,O   2)    -60.5487         0.012517   
    120. D(H  19,C  17,C   9,H  18)    177.2982         0.012517   
    121. D(H  21,C  17,C   9,H  16)     60.8056         0.012517   
    122. D(H  19,C  17,C   9,H  16)    -60.0900         0.012517   
    123. D(H  19,C  17,C   9,O   2)     57.6906         0.012517   
    124. D(H  27,C  24,C   5,H  23)    -59.2873         0.012517   
    125. D(H  27,C  24,C   5,H  22)    178.0948         0.012517   
    126. D(H  27,C  24,C   5,O   3)     60.3103         0.012517   
    127. D(H  26,C  24,C   5,H  23)     61.5868         0.012517   
    128. D(H  26,C  24,C   5,H  22)    -61.0310         0.012517   
    129. D(H  26,C  24,C   5,O   3)   -178.8156         0.012517   
    130. D(H  25,C  24,C   5,H  23)   -177.5451         0.012517   
    131. D(H  25,C  24,C   5,H  22)     59.8371         0.012517   
    132. D(H  25,C  24,C   5,O   3)    -57.9475         0.012517   
    -----------------------------------------------------------------

Number of atoms                         .... 28
Number of degrees of freedom            .... 132

         *************************************************************
         *                GEOMETRY OPTIMIZATION CYCLE   1            *
         *************************************************************
---------------------------------
CARTESIAN COORDINATES (ANGSTROEM)
---------------------------------
  Fe     0.108900   -0.326400   -0.178180
  O     -0.478680    1.475920   -0.580660
  O     -0.440200   -1.264740    1.425310
  O      1.344760   -1.152680   -1.424330
  H     -1.332670    2.029130   -0.524540
  C      2.815020   -0.987230   -1.412950
  H     -1.035760   -1.098530    2.235400
  C      0.370820    2.535160   -1.169250
  H      1.302810   -1.773560   -2.231250
  C     -0.009490   -2.627870    1.808830
  H      1.395650    2.154080   -1.177450
  H      0.317500    3.411830   -0.516990
  C     -0.110760    2.835370   -2.572050
  H     -0.089420    1.929910   -3.187280
  H      0.513750    3.599100   -3.043520
  H     -1.147770    3.186200   -2.559130
  H      0.747840   -2.938840    1.084360
  C     -1.205080   -3.555260    1.779650
  H      0.444430   -2.570140    2.802510
  H     -1.666450   -3.555990    0.786750
  H     -1.972110   -3.221550    2.486020
  H     -0.911850   -4.577200    2.035120
  H      3.045680   -0.242710   -0.646100
  H      3.117300   -0.602220   -2.391300
  C      3.465130   -2.316730   -1.096500
  H      3.111610   -2.697890   -0.133060
  H      4.553650   -2.219420   -1.060840
  H      3.202590   -3.066180   -1.850180

----------------------------
CARTESIAN COORDINATES (A.U.)
----------------------------
  NO LB      ZA    FRAG     MASS         X           Y           Z
   0 Fe   26.0000    0    55.850    0.205791   -0.616807   -0.336711
   1 O     8.0000    0    15.999   -0.904574    2.789085   -1.097288
   2 O     8.0000    0    15.999   -0.831857   -2.390012    2.693446
   3 O     8.0000    0    15.999    2.541228   -2.178250   -2.691594
   4 H     1.0000    0     1.008   -2.518381    3.834500   -0.991237
   5 C     6.0000    0    12.011    5.319617   -1.865594   -2.670089
   6 H     1.0000    0     1.008   -1.957303   -2.075921    4.224294
   7 C     6.0000    0    12.011    0.700748    4.790758   -2.209562
   8 H     1.0000    0     1.008    2.461954   -3.351543   -4.216451
   9 C     6.0000    0    12.011   -0.017934   -4.965955    3.418193
  10 H     1.0000    0     1.008    2.637396    4.070621   -2.225058
  11 H     1.0000    0     1.008    0.599988    6.447424   -0.976970
  12 C     6.0000    0    12.011   -0.209306    5.358073   -4.860470
  13 H     1.0000    0     1.008   -0.168979    3.647001   -6.023086
  14 H     1.0000    0     1.008    0.970847    6.801313   -5.751419
  15 H     1.0000    0     1.008   -2.168971    6.021045   -4.836055
  16 H     1.0000    0     1.008    1.413213   -5.553603    2.049143
  17 C     6.0000    0    12.011   -2.277271   -6.718468    3.363051
  18 H     1.0000    0     1.008    0.839851   -4.856861    5.295976
  19 H     1.0000    0     1.008   -3.149134   -6.719847    1.486742
  20 H     1.0000    0     1.008   -3.726748   -6.087847    4.697897
  21 H     1.0000    0     1.008   -1.723147   -8.649654    3.845819
  22 H     1.0000    0     1.008    5.755501   -0.458655   -1.220952
  23 H     1.0000    0     1.008    5.890843   -1.138031   -4.518902
  24 C     6.0000    0    12.011    6.548147   -4.377985   -2.072085
  25 H     1.0000    0     1.008    5.880091   -5.098273   -0.251447
  26 H     1.0000    0     1.008    8.605151   -4.194096   -2.004697
  27 H     1.0000    0     1.008    6.052018   -5.794240   -3.496333

--------------------------------
INTERNAL COORDINATES (ANGSTROEM)
--------------------------------
 Fe     0   0   0     0.000000000000     0.00000000     0.00000000
 O      1   0   0     1.937936477081     0.00000000     0.00000000
 O      1   2   0     1.937310750938   122.44015755     0.00000000
 O      1   2   3     1.939839787328   117.12248894   182.34111894
 H      2   1   3     1.019063137691   138.37599357   318.70032414
 C      4   1   2     1.479583615245   125.48623832    84.79377504
 H      3   1   2     1.019099252183   138.12297315     1.45055492
 C      2   1   3     1.479891149950   125.04527722   140.16187290
 H      4   1   2     1.019005232224   137.90220492   265.05380029
 C      3   1   2     1.480108810662   125.31420950   181.31061717
 H      8   2   1     1.093419286139   106.95059673   351.32245214
 H      8   2   1     1.094000191453   107.96636434   233.87801254
 C      8   2   1     1.513239300474   109.14833372   111.63685323
 H     13   8   2     1.094906918464   110.52570948   302.26250667
 H     13   8   2     1.093425906909   110.88672735   181.37199844
 H     13   8   2     1.094823435719   110.73658466    60.48902351
 H     10   3   1     1.093209884103   106.96873788     6.27692389
 C     10   3   1     1.513386643459   109.23672515   245.92302618
 H     10   3   1     1.093972605553   107.90889381   123.70666317
 H     18  10   3     1.094857625356   110.53638755    57.69057458
 H     18  10   3     1.094831476484   110.74764087   299.45125520
 H     18  10   3     1.093439581047   110.87667261   178.58618356
 H      6   4   1     1.093422602885   106.92727377   354.34808251
 H      6   4   1     1.093971947081   107.88147588   236.97037697
 C      6   4   1     1.513391510681   109.28324247   114.75581782
 H     25   6   4     1.094749272482   110.55863547   302.05253569
 H     25   6   4     1.093442573755   110.87169681   181.18439328
 H     25   6   4     1.094822404091   110.75698303    60.31026397

---------------------------
INTERNAL COORDINATES (A.U.)
---------------------------
 Fe     0   0   0     0.000000000000     0.00000000     0.00000000
 O      1   0   0     3.662169206619     0.00000000     0.00000000
 O      1   2   0     3.660986755574   122.44015755     0.00000000
 O      1   2   3     3.665765941734   117.12248894   182.34111894
 H      2   1   3     1.925750243410   138.37599357   318.70032414
 C      4   1   2     2.796007825049   125.48623832    84.79377504
 H      3   1   2     1.925818489910   138.12297315     1.45055492
 C      2   1   3     2.796588981419   125.04527722   140.16187290
 H      4   1   2     1.925640817936   137.90220492   265.05380029
 C      3   1   2     2.797000300556   125.31420950   181.31061717
 H      8   2   1     2.066263000350   106.95059673   351.32245214
 H      8   2   1     2.067360752304   107.96636434   233.87801254
 C      8   2   1     2.859607852983   109.14833372   111.63685323
 H     13   8   2     2.069074218032   110.52570948   302.26250667
 H     13   8   2     2.066275511793   110.88672735   181.37199844
 H     13   8   2     2.068916458508   110.73658466    60.48902351
 H     10   3   1     2.065867287850   106.96873788     6.27692389
 C     10   3   1     2.859886290872   109.23672515   245.92302618
 H     10   3   1     2.067308622507   107.90889381   123.70666317
 H     18  10   3     2.068981067558   110.53638755    57.69057458
 H     18  10   3     2.068931653351   110.74764087   299.45125520
 H     18  10   3     2.066301352168   110.87667261   178.58618356
 H      6   4   1     2.066269268092   106.92727377   354.34808251
 H      6   4   1     2.067307378176   107.88147588   236.97037697
 C      6   4   1     2.859895488588   109.28324247   114.75581782
 H     25   6   4     2.068776310301   110.55863547   302.05253569
 H     25   6   4     2.066307007567   110.87169681   181.18439328
 H     25   6   4     2.068914509014   110.75698303    60.31026397

---------------------
BASIS SET INFORMATION
---------------------
There are 4 groups of distinct atoms

 Group   1 Type Fe  : 17s11p7d1f contracted to 6s4p4d1f pattern {842111/6311/4111/1}
 Group   2 Type O   : 11s6p2d1f contracted to 5s3p2d1f pattern {62111/411/11/1}
 Group   3 Type H   : 5s1p contracted to 3s1p pattern {311/1}
 Group   4 Type C   : 11s6p2d1f contracted to 5s3p2d1f pattern {62111/411/11/1}

Atom   0Fe   basis set group =>   1
Atom   1O    basis set group =>   2
Atom   2O    basis set group =>   2
Atom   3O    basis set group =>   2
Atom   4H    basis set group =>   3
Atom   5C    basis set group =>   4
Atom   6H    basis set group =>   3
Atom   7C    basis set group =>   4
Atom   8H    basis set group =>   3
Atom   9C    basis set group =>   4
Atom  10H    basis set group =>   3
Atom  11H    basis set group =>   3
Atom  12C    basis set group =>   4
Atom  13H    basis set group =>   3
Atom  14H    basis set group =>   3
Atom  15H    basis set group =>   3
Atom  16H    basis set group =>   3
Atom  17C    basis set group =>   4
Atom  18H    basis set group =>   3
Atom  19H    basis set group =>   3
Atom  20H    basis set group =>   3
Atom  21H    basis set group =>   3
Atom  22H    basis set group =>   3
Atom  23H    basis set group =>   3
Atom  24C    basis set group =>   4
Atom  25H    basis set group =>   3
Atom  26H    basis set group =>   3
Atom  27H    basis set group =>   3
---------------------------------
AUXILIARY/J BASIS SET INFORMATION
---------------------------------
There are 4 groups of distinct atoms

 Group   1 Type Fe  : 19s5p5d3f3g contracted to 8s5p5d2f3g pattern {121111111/11111/11111/21/111}
 Group   2 Type O   : 12s5p4d2f1g contracted to 6s4p3d1f1g pattern {711111/2111/211/2/1}
 Group   3 Type H   : 5s2p1d contracted to 3s1p1d pattern {311/2/1}
 Group   4 Type C   : 12s5p4d2f1g contracted to 6s4p3d1f1g pattern {711111/2111/211/2/1}

Atom   0Fe   basis set group =>   1
Atom   1O    basis set group =>   2
Atom   2O    basis set group =>   2
Atom   3O    basis set group =>   2
Atom   4H    basis set group =>   3
Atom   5C    basis set group =>   4
Atom   6H    basis set group =>   3
Atom   7C    basis set group =>   4
Atom   8H    basis set group =>   3
Atom   9C    basis set group =>   4
Atom  10H    basis set group =>   3
Atom  11H    basis set group =>   3
Atom  12C    basis set group =>   4
Atom  13H    basis set group =>   3
Atom  14H    basis set group =>   3
Atom  15H    basis set group =>   3
Atom  16H    basis set group =>   3
Atom  17C    basis set group =>   4
Atom  18H    basis set group =>   3
Atom  19H    basis set group =>   3
Atom  20H    basis set group =>   3
Atom  21H    basis set group =>   3
Atom  22H    basis set group =>   3
Atom  23H    basis set group =>   3
Atom  24C    basis set group =>   4
Atom  25H    basis set group =>   3
Atom  26H    basis set group =>   3
Atom  27H    basis set group =>   3


           ************************************************************
           *        Program running with 32 parallel MPI-processes    *
           *              working on a common directory               *
           ************************************************************
------------------------------------------------------------------------------
                           ORCA GTO INTEGRAL CALCULATION
                           -- RI-GTO INTEGRALS CHOSEN --
------------------------------------------------------------------------------
------------------------------------------------------------------------------
                   ___                                                        
                  /   \      - P O W E R E D   B Y -                         
                 /     \                                                     
                 |  |  |   _    _      __       _____    __    __             
                 |  |  |  | |  | |    /  \     |  _  \  |  |  /  |          
                  \  \/   | |  | |   /    \    | | | |  |  | /  /          
                 / \  \   | |__| |  /  /\  \   | |_| |  |  |/  /          
                |  |  |   |  __  | /  /__\  \  |    /   |      \           
                |  |  |   | |  | | |   __   |  |    \   |  |\   \          
                \     /   | |  | | |  |  |  |  | |\  \  |  | \   \       
                 \___/    |_|  |_| |__|  |__|  |_| \__\ |__|  \__/        
                                                                              
                      - O R C A' S   B I G   F R I E N D -                    
                                      &                                       
                       - I N T E G R A L  F E E D E R -                       
                                                                              
 v1 FN, 2020, v2 2021                                                         
------------------------------------------------------------------------------


Reading SHARK input file Fe_EtOH_3_LowSpin.SHARKINP.tmp ... ok
----------------------
SHARK INTEGRAL PACKAGE
----------------------

Number of atoms                             ...     28
Number of basis functions                   ...    432
Number of shells                            ...    186
Maximum angular momentum                    ...      3
Integral batch strategy                     ... SHARK/LIBINT Hybrid
RI-J (if used) integral strategy            ... SPLIT-RIJ (Revised 2003 algorithm where possible)
Printlevel                                  ...      1
Contraction scheme used                     ... SEGMENTED contraction
Coulomb Range Separation                    ... NOT USED
Exchange Range Separation                   ... NOT USED
Finite Nucleus Model                        ... NOT USED
Auxiliary Coulomb fitting basis             ... AVAILABLE
   # of basis functions in Aux-J            ...    728
   # of shells in Aux-J                     ...    248
   Maximum angular momentum in Aux-J        ...      4
Auxiliary J/K fitting basis                 ... NOT available
Auxiliary Correlation fitting basis         ... NOT available
Auxiliary 'external' fitting basis          ... NOT available
Integral threshold                          ...     2.500000e-11
Primitive cut-off                           ...     2.500000e-12
Primitive pair pre-selection threshold      ...     2.500000e-12

Calculating pre-screening integrals         ... done (  0.0 sec) Dimension = 186
Organizing shell pair data                  ... done (  0.1 sec)
Shell pair information
Total number of shell pairs                 ...     17391
Shell pairs after pre-screening             ...     13178
Total number of primitive shell pairs       ...     52961
Primitive shell pairs kept                  ...     27933
          la=0 lb=0:   4232 shell pairs
          la=1 lb=0:   3909 shell pairs
          la=1 lb=1:    931 shell pairs
          la=2 lb=0:   1778 shell pairs
          la=2 lb=1:    829 shell pairs
          la=2 lb=2:    210 shell pairs
          la=3 lb=0:    732 shell pairs
          la=3 lb=1:    351 shell pairs
          la=3 lb=2:    166 shell pairs
          la=3 lb=3:     40 shell pairs

Calculating one electron integrals          ... done (  0.0 sec)
Calculating RI/J V-Matrix + Cholesky decomp.... done (  0.1 sec)
Calculating Nuclear repulsion               ... done (  0.0 sec) ENN=    843.804493048187 Eh

SHARK setup successfully completed in   0.5 seconds

Maximum memory used throughout the entire GTOINT-calculation: 29.1 MB


           ************************************************************
           *        Program running with 32 parallel MPI-processes    *
           *              working on a common directory               *
           ************************************************************
-------------------------------------------------------------------------------
                                 ORCA SCF
-------------------------------------------------------------------------------

------------
SCF SETTINGS
------------
Hamiltonian:
 Density Functional     Method          .... DFT(GTOs)
 Exchange Functional    Exchange        .... PBE
   PBE kappa parameter   XKappa         ....  0.804000
   PBE mue parameter    XMuePBE         ....  0.219520
 Correlation Functional Correlation     .... PBE
   PBE beta parameter  CBetaPBE         ....  0.066725
 LDA part of GGA corr.  LDAOpt          .... PW91-LDA
 Gradients option       PostSCFGGA      .... off
 Hybrid DFT is turned on
   Fraction HF Exchange ScalHFX         ....  0.250000
   Scaling of DF-GGA-X  ScalDFX         ....  0.750000
   Scaling of DF-GGA-C  ScalDFC         ....  1.000000
   Scaling of DF-LDA-C  ScalLDAC        ....  1.000000
   Perturbative correction              ....  0.000000
   Density functional embedding theory  .... OFF
   NL short-range parameter             ....  6.900000
 RI-approximation to the Coulomb term is turned on
   Number of AuxJ basis functions       .... 728
   RIJ-COSX (HFX calculated with COS-X)).... on


General Settings:
 Integral files         IntName         .... Fe_EtOH_3_LowSpin
 Hartree-Fock type      HFTyp           .... UHF
 Total Charge           Charge          ....    3
 Multiplicity           Mult            ....    2
 Number of Electrons    NEL             ....  101
 Basis Dimension        Dim             ....  432
 Nuclear Repulsion      ENuc            ....    843.8044930482 Eh

Convergence Acceleration:
 DIIS                   CNVDIIS         .... on
   Start iteration      DIISMaxIt       ....    12
   Startup error        DIISStart       ....  0.200000
   # of expansion vecs  DIISMaxEq       ....     5
   Bias factor          DIISBfac        ....   1.050
   Max. coefficient     DIISMaxC        ....  10.000
 Trust-Rad. Augm. Hess. CNVTRAH         .... auto
   Auto Start mean grad. ratio tolernc. ....  1.125000
   Auto Start start iteration           ....    20
   Auto Start num. interpolation iter.  ....    10
   Max. Number of Micro iterations      ....    16
   Max. Number of Macro iterations      .... Maxiter - #DIIS iter
   Number of Davidson start vectors     ....     2
   Converg. threshold I  (grad. norm)   ....   1.000e-05
   Converg. threshold II (energy diff.) ....   1.000e-08
   Grad. Scal. Fac. for Micro threshold ....   0.100
   Minimum threshold for Micro iter.    ....   0.010
   NR start threshold (gradient norm)   ....   0.001
   Initial trust radius                 ....   0.400
   Minimum AH scaling param. (alpha)    ....   1.000
   Maximum AH scaling param. (alpha)    .... 1000.000
   Orbital update algorithm             .... Taylor
   White noise on init. David. guess    .... on
   Maximum white noise                  ....   0.010
   Quad. conv. algorithm                .... NR
 SOSCF                  CNVSOSCF        .... off
 Level Shifting         CNVShift        .... on
   Level shift para.    LevelShift      ....    0.2500
   Turn off err/grad.   ShiftErr        ....    0.0010
 Zerner damping         CNVZerner       .... off
 Static damping         CNVDamp         .... on
   Fraction old density DampFac         ....    0.7000
   Max. Damping (<1)    DampMax         ....    0.9800
   Min. Damping (>=0)   DampMin         ....    0.0000
   Turn off err/grad.   DampErr         ....    0.1000
 Fernandez-Rico         CNVRico         .... off

SCF Procedure:
 Maximum # iterations   MaxIter         ....   125
 SCF integral mode      SCFMode         .... Direct
   Integral package                     .... SHARK and LIBINT hybrid scheme
 Reset frequency        DirectResetFreq ....    20
 Integral Threshold     Thresh          ....  2.500e-11 Eh
 Primitive CutOff       TCut            ....  2.500e-12 Eh

Convergence Tolerance:
 Convergence Check Mode ConvCheckMode   .... Total+1el-Energy
 Convergence forced     ConvForced      .... 0
 Energy Change          TolE            ....  1.000e-08 Eh
 1-El. energy change                    ....  1.000e-05 Eh
 DIIS Error             TolErr          ....  5.000e-07


Diagonalization of the overlap matrix:
Smallest eigenvalue                        ... 3.626e-04
Time for diagonalization                   ...    0.022 sec
Threshold for overlap eigenvalues          ... 1.000e-08
Number of eigenvalues below threshold      ... 0
Time for construction of square roots      ...    0.063 sec
Total time needed                          ...    0.087 sec

Time for model grid setup =    0.134 sec

------------------------------
INITIAL GUESS: MODEL POTENTIAL
------------------------------
Loading Hartree-Fock densities                     ... done
Calculating cut-offs                               ... done
Initializing the effective Hamiltonian             ... done
Setting up the integral package (SHARK)            ... done
Starting the Coulomb interaction                   ... done (   0.1 sec)
Reading the grid                                   ... done
Mapping shells                                     ... done
Starting the XC term evaluation                    ... done (   0.0 sec)
  promolecular density results
     # of electrons  =    103.993917729
     EX              =   -114.611900862
     EC              =     -3.704657887
     EX+EC           =   -118.316558749
Transforming the Hamiltonian                       ... done (   0.0 sec)
Diagonalizing the Hamiltonian                      ... done (   0.0 sec)
Back transforming the eigenvectors                 ... done (   0.0 sec)
Now organizing SCF variables                       ... done
                      ------------------
                      INITIAL GUESS DONE (   0.3 sec)
                      ------------------
-------------------
DFT GRID GENERATION
-------------------

General Integration Accuracy     IntAcc      ... 4.388
Radial Grid Type                 RadialGrid  ... OptM3 with GC (2021)
Angular Grid (max. ang.)         AngularGrid ... 4 (Lebedev-302)
Angular grid pruning method      GridPruning ... 4 (adaptive)
Weight generation scheme         WeightScheme... Becke
Basis function cutoff            BFCut       ... 1.0000e-11
Integration weight cutoff        WCut        ... 1.0000e-14
Angular grids for H and He will be reduced by one unit
Partially contracted basis set               ... off
Rotationally invariant grid construction     ... off

Total number of grid points                  ...   123123
Total number of batches                      ...     1936
Average number of points per batch           ...       63
Average number of grid points per atom       ...     4397
Time for grid setup =    0.629 sec

--------------------
COSX GRID GENERATION
--------------------

GRIDX 1
-------
General Integration Accuracy     IntAcc      ... 3.816
Radial Grid Type                 RadialGrid  ... OptM3 with GC (2021)
Angular Grid (max. ang.)         AngularGrid ... 1 (Lebedev-50)
Angular grid pruning method      GridPruning ... 4 (adaptive)
Weight generation scheme         WeightScheme... Becke
Basis function cutoff            BFCut       ... 1.0000e-11
Integration weight cutoff        WCut        ... 1.0000e-14
Angular grids for H and He will be reduced by one unit
Partially contracted basis set               ... on
Rotationally invariant grid construction     ... off

Total number of grid points                  ...    15584
Total number of batches                      ...      261
Average number of points per batch           ...       59
Average number of grid points per atom       ...      557
UseSFitting                                  ... on

GRIDX 2
-------
General Integration Accuracy     IntAcc      ... 4.020
Radial Grid Type                 RadialGrid  ... OptM3 with GC (2021)
Angular Grid (max. ang.)         AngularGrid ... 2 (Lebedev-110)
Angular grid pruning method      GridPruning ... 4 (adaptive)
Weight generation scheme         WeightScheme... Becke
Basis function cutoff            BFCut       ... 1.0000e-11
Integration weight cutoff        WCut        ... 1.0000e-14
Angular grids for H and He will be reduced by one unit
Partially contracted basis set               ... on
Rotationally invariant grid construction     ... off

Total number of grid points                  ...    32314
Total number of batches                      ...      523
Average number of points per batch           ...       61
Average number of grid points per atom       ...     1154
UseSFitting                                  ... on

GRIDX 3
-------
General Integration Accuracy     IntAcc      ... 4.338
Radial Grid Type                 RadialGrid  ... OptM3 with GC (2021)
Angular Grid (max. ang.)         AngularGrid ... 3 (Lebedev-194)
Angular grid pruning method      GridPruning ... 4 (adaptive)
Weight generation scheme         WeightScheme... Becke
Basis function cutoff            BFCut       ... 1.0000e-11
Integration weight cutoff        WCut        ... 1.0000e-14
Angular grids for H and He will be reduced by one unit
Partially contracted basis set               ... on
Rotationally invariant grid construction     ... off

Total number of grid points                  ...    70455
Total number of batches                      ...     1116
Average number of points per batch           ...       63
Average number of grid points per atom       ...     2516
UseSFitting                                  ... on

Time for X-Grid setup             =    0.626 sec

--------------
SCF ITERATIONS
--------------
ITER       Energy         Delta-E        Max-DP      RMS-DP      [F,P]     Damp
               ***  Starting incremental Fock matrix formation  ***
  0  -1726.2230267249   0.000000000000 0.12039714  0.00090055  0.4145023 0.7000
  1  -1726.1761421925   0.046884532401 0.04671581  0.00044299  0.3586149 0.7000
                               ***Turning on DIIS***
  2  -1726.4994026204  -0.323260427968 0.06969308  0.00063117  0.0479749 0.0000
  3  -1726.5242175951  -0.024814974635 0.00640703  0.00008558  0.3810236 0.7000
  4  -1726.6002160774  -0.075998482315 0.00813644  0.00010526  0.3258661 0.7000
  5  -1726.6817482727  -0.081532195356 0.00677656  0.00009306  0.2615421 0.7000
  6  -1726.7421612480  -0.060412975283 0.00463572  0.00007639  0.2157697 0.7000
  7  -1726.7822038745  -0.040042626463 0.00788679  0.00013776  0.1900873 0.7000
  8  -1726.8309343309  -0.048730456421 0.01300498  0.00013111  0.1541668 0.7000
  9  -1726.8774239260  -0.046489595132 0.03088201  0.00031921  0.0832664 0.0000
 10  -1726.9254713354  -0.048047409394 0.00741547  0.00007147  0.0462400 0.0000
 11  -1726.9310900832  -0.005618747827 0.00498633  0.00005371  0.0165595 0.0000
 12  -1726.9333169527  -0.002226869410 0.00593400  0.00005558  0.0199030 0.0000
 13  -1726.9358967914  -0.002579838748 0.00650188  0.00006418  0.0133715 0.0000
 14  -1726.9387047272  -0.002807935746 0.00883071  0.00007561  0.0085263 0.0000
 15  -1726.9417995221  -0.003094794986 0.00960192  0.00007049  0.0046481 0.0000
 16  -1726.9445265048  -0.002726982697 0.01146798  0.00007576  0.0042354 0.0000
 17  -1726.9472842253  -0.002757720464 0.01231096  0.00008169  0.0046482 0.0000
 18  -1726.9500877168  -0.002803491459 0.01142302  0.00007029  0.0031321 0.0000
 19  -1726.9523715390  -0.002283822200 0.00936962  0.00005672  0.0025214 0.0000
               *** Restarting incremental Fock matrix formation ***
                                   *** Resetting DIIS ***
 20  -1726.9545709561  -0.002199417161 0.00659840  0.00004798  0.0025348 0.0000
 21  -1726.9560576172  -0.001486661045 0.00699682  0.00004111  0.0026137 0.0000
 22  -1726.9573683083  -0.001310691112 0.00455124  0.00003028  0.0031906 0.0000

 WARNING: the maximum gradient error descreased on average only by a factor   1.1
          during the last 20 iterations

                      *** Initiating the TRAH-SCF procedure ***


TRAH GRIDX
----------

General Integration Accuracy     IntAcc      ... 3.067
Radial Grid Type                 RadialGrid  ... OptM3 with GC (2021)
Angular Grid (max. ang.)         AngularGrid ... 1 (Lebedev-50)
Angular grid pruning method      GridPruning ... 4 (adaptive)
Weight generation scheme         WeightScheme... Becke
Basis function cutoff            BFCut       ... 1.0000e-11
Integration weight cutoff        WCut        ... 1.0000e-14
Angular grids for H and He will be reduced by one unit
Partially contracted basis set               ... on
Rotationally invariant grid construction     ... off

Total number of grid points                  ...     8176
Total number of batches                      ...      145
Average number of points per batch           ...       56
Average number of grid points per atom       ...      292


TRAH GRID
---------

General Integration Accuracy     IntAcc      ... 3.467
Radial Grid Type                 RadialGrid  ... OptM3 with GC (2021)
Angular Grid (max. ang.)         AngularGrid ... 1 (Lebedev-50)
Angular grid pruning method      GridPruning ... 4 (adaptive)
Weight generation scheme         WeightScheme... Becke
Basis function cutoff            BFCut       ... 1.0000e-11
Integration weight cutoff        WCut        ... 1.0000e-14
Angular grids for H and He will be reduced by one unit
Partially contracted basis set               ... off
Rotationally invariant grid construction     ... off

Total number of grid points                  ...    19500
Total number of batches                      ...      318
Average number of points per batch           ...       61
Average number of grid points per atom       ...      696

 --------------------------------------------------------------------------------------------
   Iter.        energy            ||Error||_2        Shift      TRadius  Mac/Mic        Rej.
 --------------------------------------------------------------------------------------------
    0      -1726.957927310205     2.301005e-02                     0.400 (TRAH MAcro)   No
    0     dE    -1.090099e-04     1.025101e-01    -1.0901e-04      0.005 (TRAH MIcro)
    0     dE    -1.215152e-02     5.831060e-02    -3.5661e-02      0.400 (TRAH MIcro)
    0     dE    -1.208971e-02     1.004458e-01    -5.0289e-02      0.354 (TRAH MIcro)
    0     dE    -1.421001e-02     6.377735e-02    -5.5825e-02      0.374 (TRAH MIcro)
    0     dE    -1.648790e-02     3.990177e-02    -6.0977e-02      0.400 (TRAH MIcro)
    0     dE    -1.695609e-02     1.396683e-02    -6.5148e-02      0.400 (TRAH MIcro)
    0     dE    -1.711527e-02     1.353494e-02    -6.6858e-02      0.400 (TRAH MIcro)
    0     dE    -1.717904e-02     6.831515e-03    -6.7613e-02      0.400 (TRAH MIcro)
    0     dE    -1.719656e-02     2.754420e-03    -6.7835e-02      0.400 (TRAH MIcro)
    0     dE    -1.720303e-02     1.938945e-03    -6.7924e-02      0.400 (TRAH MIcro)
    1      -1726.971624449714     2.706106e-02                     0.480 (TRAH MAcro)   No
    1     dE    -1.664941e-04     6.532592e-02    -1.6649e-04      0.006 (TRAH MIcro)
    1     dE    -9.223781e-03     1.393193e-01    -8.4114e-03      0.480 (TRAH MIcro)
    1     dE    -1.126983e-02     4.964894e-02    -1.7855e-02      0.480 (TRAH MIcro)
    1     dE    -1.254948e-02     3.309459e-02    -2.6942e-02      0.458 (TRAH MIcro)
    1     dE    -1.395406e-02     3.569790e-02    -2.9680e-02      0.480 (TRAH MIcro)
    1     dE    -1.440733e-02     2.143240e-02    -3.2132e-02      0.480 (TRAH MIcro)
    1     dE    -1.468785e-02     1.244081e-02    -3.3949e-02      0.480 (TRAH MIcro)
    1     dE    -1.481370e-02     1.674385e-02    -3.4908e-02      0.480 (TRAH MIcro)
    1     dE    -1.488664e-02     7.609145e-03    -3.5610e-02      0.480 (TRAH MIcro)
    1     dE    -1.494063e-02     9.463403e-03    -3.6098e-02      0.480 (TRAH MIcro)
    1     dE    -1.497534e-02     6.652172e-03    -3.6443e-02      0.480 (TRAH MIcro)
    1     dE    -1.499833e-02     4.799811e-03    -3.6612e-02      0.480 (TRAH MIcro)
    1     dE    -1.501908e-02     6.844283e-03    -3.6701e-02      0.480 (TRAH MIcro)
    1     dE    -1.503295e-02     2.353281e-03    -3.6772e-02      0.480 (TRAH MIcro)
    2      -1726.982035610541     2.874992e-02                     0.480 (TRAH MAcro)   No
    2     dE    -1.558513e-04     4.145365e-02    -1.5585e-04      0.005 (TRAH MIcro)
    2     dE    -9.102885e-04     2.930134e-02    -9.0131e-04      0.100 (TRAH MIcro)
    2     dE    -1.878674e-03     4.633228e-02    -1.7834e-03      0.231 (TRAH MIcro)
    2     dE    -2.868934e-03     2.671668e-02    -2.4887e-03      0.391 (TRAH MIcro)
    2     dE    -4.431671e-03     2.791243e-02    -8.0499e-03      0.480 (TRAH MIcro)
    2     dE    -4.819200e-03     2.533909e-02    -1.0425e-02      0.480 (TRAH MIcro)
    2     dE    -5.212783e-03     1.692410e-02    -1.2560e-02      0.480 (TRAH MIcro)
    2     dE    -5.493270e-03     1.913466e-02    -1.3604e-02      0.480 (TRAH MIcro)
    2     dE    -5.673100e-03     1.686384e-02    -1.4076e-02      0.480 (TRAH MIcro)
    2     dE    -5.776665e-03     8.737164e-03    -1.4256e-02      0.480 (TRAH MIcro)
    2     dE    -5.827843e-03     8.705777e-03    -1.4288e-02      0.480 (TRAH MIcro)
    2     dE    -5.851446e-03     4.448337e-03    -1.4278e-02      0.480 (TRAH MIcro)
    2     dE    -5.865678e-03     4.042556e-03    -1.4250e-02      0.480 (TRAH MIcro)
    2     dE    -5.870640e-03     3.503498e-03    -1.4235e-02      0.480 (TRAH MIcro)
    3      -1726.985846348529     3.603960e-02                     0.480 (TRAH MAcro)   No
    3     dE    -2.924486e-04     1.359475e-01    -2.9243e-04      0.008 (TRAH MIcro)
    3     dE    -8.435839e-04     3.105825e-02    -8.4135e-04      0.052 (TRAH MIcro)
    3     dE    -1.198759e-03     2.456479e-02    -1.1916e-03      0.078 (TRAH MIcro)
    3     dE    -1.545797e-03     1.938991e-02    -1.5195e-03      0.132 (TRAH MIcro)
    3     dE    -1.727331e-03     1.166880e-02    -1.6768e-03      0.174 (TRAH MIcro)
    3     dE    -1.974861e-03     1.124296e-02    -1.8777e-03      0.227 (TRAH MIcro)
    3     dE    -2.298399e-03     1.198668e-02    -2.1175e-03      0.292 (TRAH MIcro)
    3     dE    -2.616654e-03     1.458203e-02    -2.3288e-03      0.352 (TRAH MIcro)
    3     dE    -2.917797e-03     1.269143e-02    -2.5086e-03      0.404 (TRAH MIcro)
    3     dE    -3.062723e-03     1.745702e-02    -2.5883e-03      0.428 (TRAH MIcro)
    3     dE    -3.143365e-03     5.854305e-03    -2.6323e-03      0.441 (TRAH MIcro)
    3     dE    -3.215026e-03     7.119944e-03    -2.6727e-03      0.450 (TRAH MIcro)
    3     dE    -3.257674e-03     6.369842e-03    -2.6969e-03      0.456 (TRAH MIcro)
    3     dE    -3.282706e-03     7.163122e-03    -2.7101e-03      0.460 (TRAH MIcro)
    4      -1726.988717964303     1.969542e-02                     0.576 (TRAH MAcro)   No
    4     dE    -1.209412e-05     4.671700e-02    -1.2094e-05      0.001 (TRAH MIcro)
    4     dE    -3.141462e-04     1.411475e-02    -3.1356e-04      0.043 (TRAH MIcro)
    4     dE    -4.752946e-04     1.985120e-02    -4.7302e-04      0.069 (TRAH MIcro)
    4     dE    -5.236883e-04     1.251348e-02    -5.1999e-04      0.084 (TRAH MIcro)
    4     dE    -5.786948e-04     5.606641e-03    -5.7258e-04      0.103 (TRAH MIcro)
    4     dE    -6.020475e-04     8.504497e-03    -5.9437e-04      0.114 (TRAH MIcro)
    4     dE    -6.224553e-04     6.728149e-03    -6.1310e-04      0.124 (TRAH MIcro)
    4     dE    -6.447945e-04     3.766723e-03    -6.3330e-04      0.135 (TRAH MIcro)
    4     dE    -6.679607e-04     6.919893e-03    -6.5421e-04      0.145 (TRAH MIcro)
    4     dE    -6.906340e-04     4.367507e-03    -6.7438e-04      0.155 (TRAH MIcro)
    4     dE    -7.098203e-04     4.529098e-03    -6.9100e-04      0.165 (TRAH MIcro)
    4     dE    -7.221901e-04     4.182670e-03    -7.0152e-04      0.172 (TRAH MIcro)
    4     dE    -7.336763e-04     2.268011e-03    -7.1119e-04      0.178 (TRAH MIcro)
    4     dE    -7.423319e-04     2.812195e-03    -7.1825e-04      0.183 (TRAH MIcro)
    5      -1726.989470879125     4.405125e-03                     0.691 (TRAH MAcro)   No
    5     dE    -3.514859e-07     8.009219e-03    -3.5149e-07      0.000 (TRAH MIcro)
    5     dE    -7.272933e-06     2.775881e-03    -7.2728e-06      0.005 (TRAH MIcro)
    5     dE    -1.175368e-05     1.538317e-03    -1.1753e-05      0.007 (TRAH MIcro)
    5     dE    -1.423572e-05     1.705795e-03    -1.4234e-05      0.011 (TRAH MIcro)
    5     dE    -1.665193e-05     2.173190e-03    -1.6648e-05      0.015 (TRAH MIcro)
    5     dE    -2.021078e-05     1.923495e-03    -2.0199e-05      0.024 (TRAH MIcro)
    5     dE    -2.531828e-05     2.273634e-03    -2.5285e-05      0.036 (TRAH MIcro)
    5     dE    -2.946983e-05     1.767451e-03    -2.9407e-05      0.046 (TRAH MIcro)
    5     dE    -3.305145e-05     1.738204e-03    -3.2956e-05      0.054 (TRAH MIcro)
    5     dE    -3.760050e-05     2.211012e-03    -3.7446e-05      0.064 (TRAH MIcro)
    5     dE    -4.056636e-05     1.108760e-03    -4.0359e-05      0.072 (TRAH MIcro)
    5     dE    -4.195185e-05     1.163488e-03    -4.1715e-05      0.075 (TRAH MIcro)
    5     dE    -4.346600e-05     1.195382e-03    -4.3192e-05      0.080 (TRAH MIcro)
    5     dE    -4.645082e-05     1.586915e-03    -4.6087e-05      0.089 (TRAH MIcro)
    6      -1726.989516477265     1.737354e-03                     0.829 (TRAH MAcro)   No
    6     dE    -8.519630e-08     3.944396e-03    -8.5232e-08      0.000 (TRAH MIcro)
    6     dE    -1.255904e-06     6.721186e-04    -1.2559e-06      0.002 (TRAH MIcro)
    6     dE    -1.738393e-06     1.106470e-03    -1.7384e-06      0.003 (TRAH MIcro)
    6     dE    -2.004910e-06     1.064015e-03    -2.0049e-06      0.004 (TRAH MIcro)
    6     dE    -2.297814e-06     5.967488e-04    -2.2977e-06      0.006 (TRAH MIcro)
    6     dE    -2.658399e-06     8.351147e-04    -2.6582e-06      0.008 (TRAH MIcro)
    6     dE    -3.005553e-06     1.130019e-03    -3.0052e-06      0.010 (TRAH MIcro)
    6     dE    -3.455592e-06     7.161692e-04    -3.4550e-06      0.013 (TRAH MIcro)
    6     dE    -3.862753e-06     7.192185e-04    -3.8617e-06      0.016 (TRAH MIcro)
    6     dE    -4.287173e-06     8.158501e-04    -4.2856e-06      0.019 (TRAH MIcro)
    6     dE    -4.626707e-06     4.240072e-04    -4.6244e-06      0.022 (TRAH MIcro)
    6     dE    -4.796631e-06     5.366083e-04    -4.7940e-06      0.024 (TRAH MIcro)
    6     dE    -4.965529e-06     3.307151e-04    -4.9624e-06      0.025 (TRAH MIcro)
    6     dE    -5.174332e-06     5.819898e-04    -5.1706e-06      0.027 (TRAH MIcro)
    7      -1726.989521695946     5.940868e-04                           (NR   MAcro)
    7     dE    -1.416173e-07     2.585520e-04                           (NR   MIcro)
    7     dE    -2.427345e-07     3.621732e-04                           (NR   MIcro)
    7     dE    -3.029403e-07     4.303280e-04                           (NR   MIcro)
    7     dE    -3.990921e-07     3.383499e-04                           (NR   MIcro)
    7     dE    -5.231804e-07     4.021355e-04                           (NR   MIcro)
    7     dE    -6.303751e-07     4.747227e-04                           (NR   MIcro)
    7     dE    -7.155989e-07     3.204228e-04                           (NR   MIcro)
    7     dE    -8.171121e-07     3.154315e-04                           (NR   MIcro)
    7     dE    -8.708618e-07     3.282621e-04                           (NR   MIcro)
    7     dE    -9.431776e-07     2.074466e-04                           (NR   MIcro)
    7     dE    -9.960346e-07     2.772102e-04                           (NR   MIcro)
    7     dE    -1.059739e-06     2.804253e-04                           (NR   MIcro)
    7     dE    -1.170394e-06     4.187723e-04                           (NR   MIcro)
    7     dE    -1.469113e-06     7.490702e-04                           (NR   MIcro)
    7     dE    -1.604905e-06     3.939489e-04                           (NR   MIcro)
    8      -1726.989523010626     3.890324e-04                           (NR   MAcro)
    8     dE    -2.961166e-08     1.840036e-04                           (NR   MIcro)
    8     dE    -5.724953e-08     2.428259e-04                           (NR   MIcro)
    8     dE    -6.546707e-08     1.924049e-04                           (NR   MIcro)
    8     dE    -7.532295e-08     8.509890e-05                           (NR   MIcro)
    8     dE    -8.238655e-08     1.402379e-04                           (NR   MIcro)
    8     dE    -8.865218e-08     1.659368e-04                           (NR   MIcro)
    8     dE    -9.319461e-08     7.295146e-05                           (NR   MIcro)
    8     dE    -9.709547e-08     1.036940e-04                           (NR   MIcro)
    8     dE    -1.006138e-07     9.827710e-05                           (NR   MIcro)
    8     dE    -1.048046e-07     7.906955e-05                           (NR   MIcro)
    8     dE    -1.088949e-07     1.495917e-04                           (NR   MIcro)
    8     dE    -1.138789e-07     8.627099e-05                           (NR   MIcro)
    8     dE    -1.166732e-07     7.076834e-05                           (NR   MIcro)
    8     dE    -1.187015e-07     9.509203e-05                           (NR   MIcro)
    8     dE    -1.210671e-07     4.710404e-05                           (NR   MIcro)
    9      -1726.989523126398     4.806827e-05                           (NR   MAcro)
    9     dE    -1.402294e-09     2.597566e-05                           (NR   MIcro)
    9     dE    -2.570953e-09     3.805133e-05                           (NR   MIcro)
    9     dE    -3.815505e-09     3.632406e-05                           (NR   MIcro)
    9     dE    -4.679878e-09     3.514558e-05                           (NR   MIcro)
    9     dE    -5.832939e-09     3.226740e-05                           (NR   MIcro)
    9     dE    -6.779983e-09     3.292620e-05                           (NR   MIcro)
    9     dE    -7.366474e-09     2.486695e-05                           (NR   MIcro)
    9     dE    -8.096809e-09     2.313889e-05                           (NR   MIcro)
    9     dE    -8.583390e-09     2.732312e-05                           (NR   MIcro)
    9     dE    -9.339294e-09     2.373140e-05                           (NR   MIcro)
    9     dE    -1.009241e-08     2.364347e-05                           (NR   MIcro)
    9     dE    -1.063994e-08     2.091475e-05                           (NR   MIcro)
    9     dE    -1.120872e-08     2.164683e-05                           (NR   MIcro)
    9     dE    -1.178764e-08     1.970477e-05                           (NR   MIcro)
    9     dE    -1.216568e-08     2.252366e-05                           (NR   MIcro)
   10      -1726.989523138993     2.262755e-05                           (NR   MAcro)
   10     dE    -2.892157e-10     1.362103e-05                           (NR   MIcro)
   10     dE    -6.324222e-10     1.651321e-05                           (NR   MIcro)
   10     dE    -9.043172e-10     1.223749e-05                           (NR   MIcro)
   10     dE    -1.079325e-09     1.333275e-05                           (NR   MIcro)
   10     dE    -1.230619e-09     1.359847e-05                           (NR   MIcro)
   10     dE    -1.413352e-09     1.247901e-05                           (NR   MIcro)
   10     dE    -1.598255e-09     1.102277e-05                           (NR   MIcro)
   10     dE    -1.725787e-09     1.042469e-05                           (NR   MIcro)
   10     dE    -1.839879e-09     1.055996e-05                           (NR   MIcro)
   10     dE    -1.951868e-09     9.456892e-06                           (NR   MIcro)
   10     dE    -2.039905e-09     1.061049e-05                           (NR   MIcro)
   10     dE    -2.134417e-09     9.592441e-06                           (NR   MIcro)
   10     dE    -2.236073e-09     8.940712e-06                           (NR   MIcro)
   10     dE    -2.307215e-09     7.068424e-06                           (NR   MIcro)
   10     dE    -2.380443e-09     9.161882e-06                           (NR   MIcro)
   11      -1726.989523140737     9.253270e-06                           (NR   MAcro)

               *****************************************************
               *                     SUCCESS                       *
               *           SCF CONVERGED AFTER 189 CYCLES          *
               *****************************************************

Old exchange energy                            =    -28.884120402 Eh
New exchange energy                            =    -28.884107165 Eh
Exchange energy change after final integration =      0.000013237 Eh
Total energy after final integration           =  -1726.989509903 Eh
Final COS-X integration done in                =     1.514 sec

----------------
TOTAL SCF ENERGY
----------------

Total Energy       :        -1726.98950990 Eh          -46993.77368 eV

Components:
Nuclear Repulsion  :          843.80449305 Eh           22961.08757 eV
Electronic Energy  :        -2570.79400295 Eh          -69954.86126 eV
One Electron Energy:        -4006.78993506 Eh         -109030.29713 eV
Two Electron Energy:         1435.99593211 Eh           39075.43587 eV
Max COSX asymmetry :            0.00000085 Eh               0.00002 eV

Virial components:
Potential Energy   :        -3450.21635059 Eh          -93885.15993 eV
Kinetic Energy     :         1723.22684069 Eh           46891.38625 eV
Virial Ratio       :            2.00218350


DFT components:
N(Alpha)           :       51.000011075148 electrons
N(Beta)            :       50.000014384390 electrons
N(Total)           :      101.000025459538 electrons
E(X)               :      -86.547579861733 Eh       
E(C)               :       -3.615403559618 Eh       
E(XC)              :      -90.162983421351 Eh       
DFET-embed. en.    :        0.000000000000 Eh       

---------------
SCF CONVERGENCE
---------------

  Last Energy change         ...   -1.7437e-09  Tolerance :   1.0000e-08
  Last Orbital Gradient      ...    9.2533e-06  Tolerance :   1.0000e-05
  Last Orbital Rotation      ...    6.4378e-04

             **** THE GBW FILE WAS UPDATED (Fe_EtOH_3_LowSpin.gbw) ****
             **** DENSITY Fe_EtOH_3_LowSpin.scfp WAS UPDATED ****
             **** ENERGY FILE WAS UPDATED (Fe_EtOH_3_LowSpin.en.tmp) ****
----------------------
UHF SPIN CONTAMINATION
----------------------

Warning: in a DFT calculation there is little theoretical justification to 
         calculate <S**2> as in Hartree-Fock theory. We will do it anyways
         but you should keep in mind that the values have only limited relevance

Expectation value of <S**2>     :     2.582403
Ideal value S*(S+1) for S=0.5   :     0.750000
Deviation                       :     1.832403

             **** THE GBW FILE WAS UPDATED (Fe_EtOH_3_LowSpin.gbw) ****
             **** DENSITY Fe_EtOH_3_LowSpin.scfp WAS UPDATED ****
----------------
ORBITAL ENERGIES
----------------
                 SPIN UP ORBITALS
  NO   OCC          E(Eh)            E(eV) 
   0   1.0000    -256.941712     -6991.7394 
   1   1.0000     -30.718765      -835.9001 
   2   1.0000     -26.551329      -722.4984 
   3   1.0000     -26.541019      -722.2179 
   4   1.0000     -26.533375      -722.0098 
   5   1.0000     -19.780622      -538.2581 
   6   1.0000     -19.769382      -537.9522 
   7   1.0000     -19.750443      -537.4369 
   8   1.0000     -10.745339      -292.3955 
   9   1.0000     -10.736881      -292.1654 
  10   1.0000     -10.715902      -291.5945 
  11   1.0000     -10.635021      -289.3936 
  12   1.0000     -10.628445      -289.2147 
  13   1.0000     -10.609397      -288.6964 
  14   1.0000      -4.112438      -111.9051 
  15   1.0000      -2.889622       -78.6306 
  16   1.0000      -2.870781       -78.1179 
  17   1.0000      -2.854675       -77.6797 
  18   1.0000      -1.579324       -42.9756 
  19   1.0000      -1.572014       -42.7767 
  20   1.0000      -1.558072       -42.3973 
  21   1.0000      -1.221916       -33.2500 
  22   1.0000      -1.215494       -33.0753 
  23   1.0000      -1.200064       -32.6554 
  24   1.0000      -1.095080       -29.7987 
  25   1.0000      -1.088882       -29.6300 
  26   1.0000      -1.074571       -29.2406 
  27   1.0000      -1.063456       -28.9381 
  28   1.0000      -1.045496       -28.4494 
  29   1.0000      -1.042962       -28.3804 
  30   1.0000      -0.972139       -26.4533 
  31   1.0000      -0.969586       -26.3838 
  32   1.0000      -0.954655       -25.9775 
  33   1.0000      -0.922593       -25.1050 
  34   1.0000      -0.914184       -24.8762 
  35   1.0000      -0.900298       -24.4984 
  36   1.0000      -0.894016       -24.3274 
  37   1.0000      -0.888806       -24.1856 
  38   1.0000      -0.883287       -24.0355 
  39   1.0000      -0.871757       -23.7217 
  40   1.0000      -0.857519       -23.3343 
  41   1.0000      -0.846014       -23.0212 
  42   1.0000      -0.825692       -22.4682 
  43   1.0000      -0.809944       -22.0397 
  44   1.0000      -0.804507       -21.8917 
  45   1.0000      -0.794958       -21.6319 
  46   1.0000      -0.788952       -21.4685 
  47   1.0000      -0.786746       -21.4085 
  48   1.0000      -0.781409       -21.2632 
  49   1.0000      -0.763073       -20.7643 
  50   1.0000      -0.758967       -20.6525 
  51   0.0000      -0.726647       -19.7731 
  52   0.0000      -0.638503       -17.3745 
  53   0.0000      -0.489165       -13.3109 
  54   0.0000      -0.424740       -11.5578 
  55   0.0000      -0.403643       -10.9837 
  56   0.0000      -0.395732       -10.7684 
  57   0.0000      -0.359576        -9.7846 
  58   0.0000      -0.342196        -9.3116 
  59   0.0000      -0.334766        -9.1094 
  60   0.0000      -0.326594        -8.8871 
  61   0.0000      -0.315519        -8.5857 
  62   0.0000      -0.308222        -8.3871 
  63   0.0000      -0.295817        -8.0496 
  64   0.0000      -0.285167        -7.7598 
  65   0.0000      -0.280957        -7.6452 
  66   0.0000      -0.269559        -7.3351 
  67   0.0000      -0.267321        -7.2742 
  68   0.0000      -0.262011        -7.1297 
  69   0.0000      -0.251176        -6.8349 
  70   0.0000      -0.246771        -6.7150 
  71   0.0000      -0.246080        -6.6962 
  72   0.0000      -0.242310        -6.5936 
  73   0.0000      -0.234109        -6.3704 
  74   0.0000      -0.223477        -6.0811 
  75   0.0000      -0.215746        -5.8708 
  76   0.0000      -0.212274        -5.7763 
  77   0.0000      -0.205547        -5.5932 
  78   0.0000      -0.201846        -5.4925 
  79   0.0000      -0.197616        -5.3774 
  80   0.0000      -0.188508        -5.1296 
  81   0.0000      -0.185367        -5.0441 
  82   0.0000      -0.172933        -4.7058 
  83   0.0000      -0.172277        -4.6879 
  84   0.0000      -0.165178        -4.4947 
  85   0.0000      -0.154090        -4.1930 
  86   0.0000      -0.129340        -3.5195 
  87   0.0000      -0.125308        -3.4098 
  88   0.0000      -0.122560        -3.3350 
  89   0.0000      -0.119249        -3.2449 
  90   0.0000      -0.111061        -3.0221 
  91   0.0000      -0.105892        -2.8815 
  92   0.0000      -0.086074        -2.3422 
  93   0.0000      -0.081717        -2.2236 
  94   0.0000      -0.073679        -2.0049 
  95   0.0000      -0.060548        -1.6476 
  96   0.0000      -0.056039        -1.5249 
  97   0.0000      -0.041852        -1.1389 
  98   0.0000      -0.038731        -1.0539 
  99   0.0000      -0.034133        -0.9288 
 100   0.0000      -0.013917        -0.3787 
 101   0.0000      -0.009056        -0.2464 
 102   0.0000      -0.005066        -0.1379 
 103   0.0000       0.008834         0.2404 
 104   0.0000       0.025585         0.6962 
 105   0.0000       0.038784         1.0554 
 106   0.0000       0.042282         1.1506 
 107   0.0000       0.051451         1.4000 
 108   0.0000       0.061093         1.6624 
 109   0.0000       0.063774         1.7354 
 110   0.0000       0.068238         1.8568 
 111   0.0000       0.080913         2.2018 
 112   0.0000       0.082962         2.2575 
 113   0.0000       0.090040         2.4501 
 114   0.0000       0.098614         2.6834 
 115   0.0000       0.103015         2.8032 
 116   0.0000       0.107895         2.9360 
 117   0.0000       0.110147         2.9973 
 118   0.0000       0.113980         3.1016 
 119   0.0000       0.119025         3.2388 
 120   0.0000       0.124745         3.3945 
 121   0.0000       0.130455         3.5499 
 122   0.0000       0.142835         3.8867 
 123   0.0000       0.149712         4.0739 
 124   0.0000       0.152089         4.1386 
 125   0.0000       0.157701         4.2913 
 126   0.0000       0.168713         4.5909 
 127   0.0000       0.172671         4.6986 
 128   0.0000       0.190286         5.1779 
 129   0.0000       0.204126         5.5545 
 130   0.0000       0.209654         5.7050 
 131   0.0000       0.218178         5.9369 
 132   0.0000       0.225322         6.1313 
 133   0.0000       0.247668         6.7394 
 134   0.0000       0.249658         6.7935 
 135   0.0000       0.260491         7.0883 
 136   0.0000       0.273654         7.4465 
 137   0.0000       0.304098         8.2749 
 138   0.0000       0.310989         8.4624 
 139   0.0000       0.324305         8.8248 
 140   0.0000       0.352437         9.5903 
 141   0.0000       0.368095        10.0164 
 142   0.0000       0.374059        10.1787 
 143   0.0000       0.384459        10.4617 
 144   0.0000       0.418745        11.3946 
 145   0.0000       0.422769        11.5041 
 146   0.0000       0.432174        11.7601 
 147   0.0000       0.438882        11.9426 
 148   0.0000       0.444489        12.0952 
 149   0.0000       0.470074        12.7914 
 150   0.0000       0.481400        13.0996 
 151   0.0000       0.493725        13.4349 
 152   0.0000       0.504434        13.7263 
 153   0.0000       0.517042        14.0694 
 154   0.0000       0.522916        14.2293 
 155   0.0000       0.530407        14.4331 
 156   0.0000       0.551394        15.0042 
 157   0.0000       0.561055        15.2671 
 158   0.0000       0.590640        16.0721 
 159   0.0000       0.612086        16.6557 
 160   0.0000       0.619263        16.8510 
 161   0.0000       0.643437        17.5088 
 162   0.0000       0.644779        17.5453 
 163   0.0000       0.672943        18.3117 
 164   0.0000       0.681440        18.5429 
 165   0.0000       0.687185        18.6992 
 166   0.0000       0.696874        18.9629 
 167   0.0000       0.708215        19.2715 
 168   0.0000       0.710005        19.3202 
 169   0.0000       0.721983        19.6462 
 170   0.0000       0.736786        20.0490 
 171   0.0000       0.747829        20.3495 
 172   0.0000       0.762773        20.7561 
 173   0.0000       0.780506        21.2386 
 174   0.0000       0.795198        21.6384 
 175   0.0000       0.822912        22.3926 
 176   0.0000       0.884813        24.0770 
 177   0.0000       0.910900        24.7868 
 178   0.0000       0.968234        26.3470 
 179   0.0000       1.004105        27.3231 
 180   0.0000       1.027447        27.9583 
 181   0.0000       1.041997        28.3542 
 182   0.0000       1.066174        29.0121 
 183   0.0000       1.096048        29.8250 
 184   0.0000       1.100890        29.9567 
 185   0.0000       1.101964        29.9860 
 186   0.0000       1.112982        30.2858 
 187   0.0000       1.120571        30.4923 
 188   0.0000       1.123090        30.5608 
 189   0.0000       1.129693        30.7405 
 190   0.0000       1.141580        31.0640 
 191   0.0000       1.142680        31.0939 
 192   0.0000       1.153739        31.3948 
 193   0.0000       1.156173        31.4611 
 194   0.0000       1.158156        31.5150 
 195   0.0000       1.167561        31.7709 
 196   0.0000       1.170318        31.8460 
 197   0.0000       1.177184        32.0328 
 198   0.0000       1.184762        32.2390 
 199   0.0000       1.202227        32.7143 
 200   0.0000       1.205149        32.7938 
 201   0.0000       1.212787        33.0016 
 202   0.0000       1.225291        33.3419 
 203   0.0000       1.255315        34.1589 
 204   0.0000       1.269391        34.5419 
 205   0.0000       1.289491        35.0888 
 206   0.0000       1.300790        35.3963 
 207   0.0000       1.305930        35.5362 
 208   0.0000       1.311339        35.6834 
 209   0.0000       1.333635        36.2900 
 210   0.0000       1.339969        36.4624 
 211   0.0000       1.349613        36.7248 
 212   0.0000       1.353626        36.8340 
 213   0.0000       1.381046        37.5802 
 214   0.0000       1.383427        37.6450 
 215   0.0000       1.388699        37.7884 
 216   0.0000       1.394088        37.9351 
 217   0.0000       1.401102        38.1259 
 218   0.0000       1.402679        38.1688 
 219   0.0000       1.428009        38.8581 
 220   0.0000       1.439310        39.1656 
 221   0.0000       1.481028        40.3008 
 222   0.0000       1.496677        40.7267 
 223   0.0000       1.504736        40.9459 
 224   0.0000       1.513666        41.1889 
 225   0.0000       1.520915        41.3862 
 226   0.0000       1.534718        41.7618 
 227   0.0000       1.542777        41.9811 
 228   0.0000       1.569884        42.7187 
 229   0.0000       1.589762        43.2596 
 230   0.0000       1.596733        43.4493 
 231   0.0000       1.618657        44.0459 
 232   0.0000       1.639650        44.6172 
 233   0.0000       1.660141        45.1747 
 234   0.0000       1.687890        45.9298 
 235   0.0000       1.701385        46.2970 
 236   0.0000       1.709839        46.5271 
 237   0.0000       1.724543        46.9272 
 238   0.0000       1.744935        47.4821 
 239   0.0000       1.782774        48.5118 
 240   0.0000       1.831121        49.8273 
 241   0.0000       1.839045        50.0430 
 242   0.0000       1.864901        50.7465 
 243   0.0000       1.878511        51.1169 
 244   0.0000       1.892866        51.5075 
 245   0.0000       1.899926        51.6996 
 246   0.0000       1.909555        51.9616 
 247   0.0000       1.911977        52.0276 
[...]
     31       0.002539   0.013645   0.001126  -0.001475  -0.001958  -0.000460
     32       0.005910   0.028509   0.002459  -0.002470  -0.002807  -0.002372
     33      -0.002112   0.002477  -0.005472   0.004163   0.006230   0.002827
     34       0.001618   0.000581   0.001351  -0.002515  -0.001661  -0.002225
     35       0.002424  -0.007905   0.008785  -0.006689  -0.008375  -0.006411
     36      -0.000544  -0.016331  -0.000173  -0.000184  -0.000283  -0.000022
     37      -0.003189  -0.078217  -0.000384  -0.000069   0.000420  -0.000310
     38      -0.000176  -0.029818   0.000359  -0.000659   0.001126  -0.001246
     39       0.002774  -0.068676   0.002481  -0.002463   0.001605  -0.003408
     40      -0.002823  -0.015093  -0.000593   0.001155  -0.001289   0.002257
     41      -0.006285   0.072232  -0.004014   0.002471  -0.012240   0.008068
     42       0.003695   0.090995   0.000735   0.000950   0.002592   0.000251
     43       0.041227   0.927613   0.005394  -0.001119  -0.003543   0.000934
     44       0.011698   0.261308   0.001358   0.000701   0.001313  -0.000065
     45      -0.000672   0.168919  -0.001020   0.003776  -0.001270   0.004536
     46      -0.000105   0.022901  -0.000300   0.000138  -0.002142   0.000653
     47      -0.001592   0.028413  -0.000535   0.000867  -0.006187   0.003922
     48      -0.002925   0.002738   0.011913   0.000469  -0.001565  -0.004464
     49      -0.002262   0.002138   0.009987   0.001547  -0.002821  -0.005506
     50      -0.004597   0.004903   0.019531   0.002058  -0.004145  -0.009084
     51       0.001072  -0.000141  -0.023340  -0.000257   0.000635  -0.000506
     52       0.000642   0.000527  -0.082318   0.000449  -0.000881   0.000930
     53      -0.000648  -0.000114   0.008671   0.000308  -0.000560   0.000143
     54       0.004622  -0.007644  -0.000107  -0.001511   0.004921   0.011201
     55      -0.004029   0.004785   0.003279   0.002175  -0.005082  -0.008658
     56       0.000831  -0.000840  -0.000520  -0.000124   0.000761   0.002281
     57      -0.008196   0.002501  -0.084936   0.002689  -0.006198   0.006753
     58       0.006552  -0.001300   0.038973  -0.002904   0.005822  -0.007733
     59      -0.000665   0.000370  -0.017504  -0.000142  -0.000266  -0.004244
     60       0.001732   0.000013   0.072922  -0.000511   0.001126   0.002681
     61       0.002310   0.000086   0.030442  -0.001612   0.002951  -0.005138
     62       0.003820   0.000323   0.115468  -0.002929   0.005191  -0.003058
     63      -0.005598  -0.001080   0.288023  -0.000257  -0.000059  -0.001594
     64      -0.017314  -0.004588   0.916848  -0.000020  -0.000151  -0.002696
     65       0.003739   0.001059  -0.197788  -0.000069   0.000236   0.004094
     66       0.001468   0.000423  -0.000315   0.000901   0.000352  -0.000856
     67       0.002903  -0.000976   0.001106   0.002875  -0.000361  -0.001664
     68       0.025273  -0.004038   0.005201   0.010743  -0.002202  -0.003295
     69       0.027491  -0.003171   0.002964   0.005138  -0.000634  -0.002122
     70       0.066420  -0.007347   0.007057   0.009782  -0.001227  -0.005016
     71      -0.030071   0.003616  -0.003582  -0.005128   0.001106   0.001844
     72      -0.076397   0.003398  -0.001196  -0.000361   0.000346  -0.000294
     73      -0.017443   0.000967  -0.000101  -0.000544   0.000979  -0.000927
     74      -0.029566   0.001173  -0.000270  -0.000455   0.000581  -0.000406
     75       0.032541  -0.001459  -0.000951   0.002133  -0.003221   0.002916
     76       0.076567  -0.005516  -0.000253   0.006775  -0.007893   0.006005
     77      -0.044591   0.002636  -0.000067   0.002961  -0.000569  -0.000874
     78       0.923632  -0.040030   0.014936   0.003530  -0.001603   0.000432
     79       0.149279  -0.007261   0.003147  -0.001906   0.000745   0.000030
     80       0.288098  -0.011954   0.004097  -0.000014  -0.000412   0.000432
     81      -0.038045   0.000736   0.000360   0.000551  -0.000052  -0.000258
     82      -0.002750   0.000533  -0.000889   0.005141  -0.003988   0.002312
     83       0.119466  -0.003708  -0.001822   0.003656  -0.006007   0.004854


-----------
IR SPECTRUM
-----------

 Mode   freq       eps      Int      T**2         TX        TY        TZ
       cm**-1   L/(mol*cm) km/mol    a.u.
----------------------------------------------------------------------------
  6:     25.14   0.000369    1.87  0.004585  ( 0.025996 -0.058321  0.022528)
  7:     29.64   0.000353    1.78  0.003713  ( 0.046773  0.015534 -0.035832)
  8:     34.56   0.000516    2.61  0.004660  (-0.023636  0.055184 -0.032502)
  9:     41.04   0.000814    4.11  0.006189  ( 0.003733 -0.059109  0.051783)
 10:     47.62   0.000146    0.74  0.000955  (-0.000770  0.013202 -0.027927)
 11:     56.90   0.001057    5.34  0.005797  ( 0.030714  0.003196 -0.069592)
 12:     79.68   0.001750    8.84  0.006854  (-0.048479 -0.014825  0.065453)
 13:     99.81   0.000994    5.03  0.003109  ( 0.038912 -0.039457  0.006152)
 14:    110.81   0.001521    7.69  0.004284  ( 0.048717  0.008881 -0.042802)
 15:    149.71   0.000112    0.57  0.000234  (-0.013681 -0.001005  0.006757)
 16:    160.78   0.057703  291.61  0.111998  (-0.102662 -0.238055  0.211632)
 17:    176.12   0.193099  975.84  0.342155  (-0.483533  0.306991  0.118773)
 18:    180.54   0.181820  918.85  0.314281  (-0.030072 -0.465449  0.311020)
 19:    190.73   0.070916  358.38  0.116029  ( 0.117068  0.217567 -0.234496)
 20:    209.82   0.053996  272.88  0.080306  ( 0.200288 -0.198939  0.024794)
 21:    217.11   0.058661  296.45  0.084316  (-0.183188  0.224318 -0.020971)
 22:    230.08   0.025503  128.88  0.034590  ( 0.156187 -0.013216 -0.100105)
 23:    237.45   0.007541   38.11  0.009910  (-0.083140  0.040892  0.036415)
 24:    370.03   0.008823   44.59  0.007440  (-0.029405 -0.079203 -0.017398)
 25:    434.54   0.047357  239.33  0.034009  (-0.098408  0.144644 -0.058337)
 26:    465.19   0.001644    8.31  0.001103  (-0.000213 -0.032464  0.006972)
 27:    495.79   0.003057   15.45  0.001924  (-0.032689 -0.009650  0.027609)
 28:    500.36   0.095620  483.23  0.059636  ( 0.179821  0.072746 -0.148352)
 29:    521.66   0.070623  356.90  0.042247  ( 0.106181 -0.169939  0.045758)
 30:    615.89   0.599306  3028.65  0.303663  ( 0.010856 -0.437102  0.335390)
 31:    638.58   0.536659  2712.05  0.262254  (-0.441937  0.142734  0.215809)
 32:    724.73   0.005096   25.75  0.002194  ( 0.026824  0.022547 -0.031088)
 33:    737.16   0.042134  212.93  0.017837  (-0.097137 -0.030554  0.086415)
 34:    740.04   0.027241  137.67  0.011487  (-0.080155  0.071083 -0.003114)
 35:    793.03   0.007240   36.59  0.002849  (-0.015487 -0.049229  0.013629)
 36:    906.84   0.074892  378.47  0.025772  (-0.129279  0.083881  0.044975)
 37:    919.79   0.164372  830.67  0.055768  (-0.026038 -0.179903  0.150746)
 38:    942.02   0.033158  167.57  0.010984  (-0.099308  0.031720  0.010776)
 39:    957.50   0.006568   33.19  0.002141  (-0.018662  0.035947  0.022365)
 40:    973.12   0.079589  402.21  0.025523  ( 0.097955  0.030845 -0.122377)
 41:    982.70   0.009696   49.00  0.003079  ( 0.052156 -0.013909  0.012857)
 42:   1046.99   0.028747  145.27  0.008568  (-0.082548  0.041880 -0.000443)
 43:   1055.32   0.172432  871.40  0.050989  (-0.102659 -0.140184  0.144217)
 44:   1073.04   0.263881  1333.55  0.076742  (-0.169720  0.214559 -0.043606)
 45:   1147.81   0.135045  682.46  0.036716  ( 0.015626 -0.149503  0.118829)
 46:   1158.94   0.757416  3827.67  0.203947  ( 0.383777 -0.129422 -0.199781)
 47:   1172.10   0.081808  413.42  0.021781  (-0.014144  0.128338 -0.071484)
 48:   1174.31   0.070287  355.20  0.018678  (-0.107541  0.078814  0.030023)
 49:   1176.25   0.020346  102.82  0.005398  (-0.020051 -0.056896  0.041936)
 50:   1196.94   0.070236  354.95  0.018312  (-0.101099  0.089597 -0.007944)
 51:   1217.99   0.389100  1966.35  0.099692  (-0.025932 -0.249008  0.192392)
 52:   1228.66   0.030361  153.43  0.007711  (-0.046761  0.068358 -0.029189)
 53:   1262.21   0.022629  114.36  0.005595  (-0.054389  0.044501 -0.025618)
 54:   1295.57   0.125376  633.60  0.030199  ( 0.061390  0.122126 -0.107313)
 55:   1306.98   0.150398  760.05  0.035910  ( 0.163373 -0.094560 -0.016657)
 56:   1321.98   0.056515  285.61  0.013341  ( 0.040153  0.093892 -0.053971)
 57:   1339.09   0.054081  273.30  0.012603  (-0.073717 -0.084281  0.008094)
 58:   1348.37   0.051245  258.97  0.011860  ( 0.064517 -0.085354 -0.020307)
 59:   1373.34   0.011180   56.50  0.002540  (-0.045700 -0.019778 -0.007789)
 60:   1393.03   0.000397    2.00  0.000089  ( 0.005632 -0.007103  0.002581)
 61:   1402.60   0.021510  108.70  0.004786  ( 0.030010  0.032314 -0.053301)
 62:   1407.05   0.033801  170.81  0.007496  (-0.031399  0.077454 -0.022616)
 63:   1414.54   0.011166   56.43  0.002463  ( 0.035810 -0.034235 -0.002971)
 64:   1416.00   0.002076   10.49  0.000458  (-0.016907 -0.000484  0.013093)
 65:   1418.23   0.010040   50.74  0.002209  (-0.030259 -0.014539  0.032897)
 66:   2809.56   2.418719  12223.22  0.268652  ( 0.094280  0.405353 -0.308954)
 67:   2829.04   2.052851  10374.27  0.226445  (-0.401622  0.241238  0.083356)
 68:   2884.08   0.131381  663.95  0.014216  (-0.084415 -0.025369  0.080289)
 69:   2887.73   0.121134  612.16  0.013090  (-0.078241  0.083140  0.007514)
 70:   2894.27   0.064198  324.43  0.006922  ( 0.057034 -0.003107 -0.060493)
 71:   2916.07   0.080743  408.04  0.008641  (-0.075636 -0.014574  0.052034)
 72:   2946.73   0.089240  450.98  0.009451  ( 0.016158  0.069544 -0.065979)
 73:   2951.64   0.016670   84.24  0.001762  ( 0.000435  0.027595 -0.031635)
 74:   2976.22   0.093670  473.37  0.009821  (-0.045419  0.085300 -0.021964)
 75:   3020.35   0.015157   76.60  0.001566  ( 0.033581  0.018068 -0.010577)
 76:   3032.56   0.010017   50.62  0.001031  (-0.026880  0.016047 -0.007123)
 77:   3049.79   0.010683   53.99  0.001093  (-0.002317  0.030258 -0.013123)
 78:   3080.77   0.005879   29.71  0.000596  ( 0.023078  0.004905  0.006231)
 79:   3100.06   0.003396   17.16  0.000342  ( 0.011731 -0.002816  0.014012)
 80:   3115.76   0.004107   20.76  0.000411  (-0.009731  0.006575  0.016537)
 81:   3675.39   0.066198  334.54  0.005621  (-0.044114  0.049820  0.034534)
 82:   3677.09   0.072869  368.25  0.006184  (-0.038311  0.007124 -0.068305)
 83:   3692.18   0.057308  289.61  0.004844  ( 0.020324 -0.001046 -0.066555)

* The epsilon (eps) is given for a Dirac delta lineshape.
** The dipole moment derivative (T) already includes vibrational overlap.

The first frequency considered to be a vibration is 6
The total number of vibrations considered is 78


--------------------------
THERMOCHEMISTRY AT 298.15K
--------------------------

Temperature         ... 298.15 K
Pressure            ... 1.00 atm
Total Mass          ... 194.06 AMU

Throughout the following assumptions are being made:
  (1) The electronic state is orbitally nondegenerate
      but the spin degeneracy is treated
  (2) There are no thermally accessible electronically excited states
  (3) Hindered rotations indicated by low frequency modes are not
      treated as such but are treated as vibrations and this may
      cause some error
  (4) All equations used are the standard statistical mechanics
      equations for an ideal gas
  (5) All vibrations are strictly harmonic

freq.      25.14  E(vib)   ...       0.56 
freq.      29.64  E(vib)   ...       0.55 
freq.      34.56  E(vib)   ...       0.54 
freq.      41.04  E(vib)   ...       0.54 
freq.      47.62  E(vib)   ...       0.53 
freq.      56.90  E(vib)   ...       0.51 
freq.      79.68  E(vib)   ...       0.49 
freq.      99.81  E(vib)   ...       0.46 
freq.     110.81  E(vib)   ...       0.45 
freq.     149.71  E(vib)   ...       0.40 
freq.     160.78  E(vib)   ...       0.39 
freq.     176.12  E(vib)   ...       0.38 
freq.     180.54  E(vib)   ...       0.37 
freq.     190.73  E(vib)   ...       0.36 
freq.     209.82  E(vib)   ...       0.34 
freq.     217.11  E(vib)   ...       0.34 
freq.     230.08  E(vib)   ...       0.32 
freq.     237.45  E(vib)   ...       0.32 
freq.     370.03  E(vib)   ...       0.21 
freq.     434.54  E(vib)   ...       0.17 
freq.     465.19  E(vib)   ...       0.16 
freq.     495.79  E(vib)   ...       0.14 
freq.     500.36  E(vib)   ...       0.14 
freq.     521.66  E(vib)   ...       0.13 
freq.     615.89  E(vib)   ...       0.10 
freq.     638.58  E(vib)   ...       0.09 
freq.     724.73  E(vib)   ...       0.06 
freq.     737.16  E(vib)   ...       0.06 
freq.     740.04  E(vib)   ...       0.06 
freq.     793.03  E(vib)   ...       0.05 
freq.     906.84  E(vib)   ...       0.03 
freq.     919.79  E(vib)   ...       0.03 
freq.     942.02  E(vib)   ...       0.03 
freq.     957.50  E(vib)   ...       0.03 
freq.     973.12  E(vib)   ...       0.03 
freq.     982.70  E(vib)   ...       0.02 
freq.    1046.99  E(vib)   ...       0.02 
freq.    1055.32  E(vib)   ...       0.02 
freq.    1073.04  E(vib)   ...       0.02 
freq.    1147.81  E(vib)   ...       0.01 
freq.    1158.94  E(vib)   ...       0.01 
freq.    1172.10  E(vib)   ...       0.01 
freq.    1174.31  E(vib)   ...       0.01 
freq.    1176.25  E(vib)   ...       0.01 
freq.    1196.94  E(vib)   ...       0.01 
freq.    1217.99  E(vib)   ...       0.01 
freq.    1228.66  E(vib)   ...       0.01 
freq.    1262.21  E(vib)   ...       0.01 
freq.    1295.57  E(vib)   ...       0.01 
freq.    1306.98  E(vib)   ...       0.01 
freq.    1321.98  E(vib)   ...       0.01 
freq.    1339.09  E(vib)   ...       0.01 
freq.    1348.37  E(vib)   ...       0.01 
freq.    1373.34  E(vib)   ...       0.01 
freq.    1393.03  E(vib)   ...       0.00 
freq.    1402.60  E(vib)   ...       0.00 
freq.    1407.05  E(vib)   ...       0.00 
freq.    1414.54  E(vib)   ...       0.00 
freq.    1416.00  E(vib)   ...       0.00 
freq.    1418.23  E(vib)   ...       0.00 
freq.    2809.56  E(vib)   ...       0.00 
freq.    2829.04  E(vib)   ...       0.00 
freq.    2884.08  E(vib)   ...       0.00 
freq.    2887.73  E(vib)   ...       0.00 
freq.    2894.27  E(vib)   ...       0.00 
freq.    2916.07  E(vib)   ...       0.00 
freq.    2946.73  E(vib)   ...       0.00 
freq.    2951.64  E(vib)   ...       0.00 
freq.    2976.22  E(vib)   ...       0.00 
freq.    3020.35  E(vib)   ...       0.00 
freq.    3032.56  E(vib)   ...       0.00 
freq.    3049.79  E(vib)   ...       0.00 
freq.    3080.77  E(vib)   ...       0.00 
freq.    3100.06  E(vib)   ...       0.00 
freq.    3115.76  E(vib)   ...       0.00 
freq.    3675.39  E(vib)   ...       0.00 
freq.    3677.09  E(vib)   ...       0.00 
freq.    3692.18  E(vib)   ...       0.00 

------------
INNER ENERGY
------------

The inner energy is: U= E(el) + E(ZPE) + E(vib) + E(rot) + E(trans)
    E(el)   - is the total energy from the electronic structure calculation
              = E(kin-el) + E(nuc-el) + E(el-el) + E(nuc-nuc)
    E(ZPE)  - the the zero temperature vibrational energy from the frequency calculation
    E(vib)  - the the finite temperature correction to E(ZPE) due to population
              of excited vibrational states
    E(rot)  - is the rotational thermal energy
    E(trans)- is the translational thermal energy

Summary of contributions to the inner energy U:
Electronic energy                ...  -1727.03455586 Eh
Zero point energy                ...      0.22982871 Eh     144.22 kcal/mol
Thermal vibrational correction   ...      0.01532514 Eh       9.62 kcal/mol
Thermal rotational correction    ...      0.00141627 Eh       0.89 kcal/mol
Thermal translational correction ...      0.00141627 Eh       0.89 kcal/mol
-----------------------------------------------------------------------
Total thermal energy                  -1726.78656946 Eh


Summary of corrections to the electronic energy:
(perhaps to be used in another calculation)
Total thermal correction                  0.01815768 Eh      11.39 kcal/mol
Non-thermal (ZPE) correction              0.22982871 Eh     144.22 kcal/mol
-----------------------------------------------------------------------
Total correction                          0.24798640 Eh     155.61 kcal/mol


--------
ENTHALPY
--------

The enthalpy is H = U + kB*T
                kB is Boltzmann's constant
Total free energy                 ...  -1726.78656946 Eh 
Thermal Enthalpy correction       ...      0.00094421 Eh       0.59 kcal/mol
-----------------------------------------------------------------------
Total Enthalpy                    ...  -1726.78562526 Eh


Note: Only C1 symmetry has been detected, increase convergence thresholds 
      if your molecule has a higher symmetry. Symmetry factor of 1.0 is   
      used for the rotational entropy correction. 
 

Note: Rotational entropy computed according to Herzberg 
Infrared and Raman Spectra, Chapter V,1, Van Nostrand Reinhold, 1945 
Point Group:  C1, Symmetry Number:   1  
Rotational constants in cm-1:     0.024323     0.019756     0.011476 

Vibrational entropy computed according to the QRRHO of S. Grimme
Chem.Eur.J. 2012 18 9955


-------
ENTROPY
-------

The entropy contributions are T*S = T*(S(el)+S(vib)+S(rot)+S(trans))
     S(el)   - electronic entropy
     S(vib)  - vibrational entropy
     S(rot)  - rotational entropy
     S(trans)- translational entropy
The entropies will be listed as multiplied by the temperature to get
units of energy

Electronic entropy                ...      0.00065446 Eh      0.41 kcal/mol
Vibrational entropy               ...      0.02876683 Eh     18.05 kcal/mol
Rotational entropy                ...      0.01522696 Eh      9.56 kcal/mol
Translational entropy             ...      0.01981020 Eh     12.43 kcal/mol
-----------------------------------------------------------------------
Final entropy term                ...      0.06445845 Eh     40.45 kcal/mol

In case the symmetry of your molecule has not been determined correctly
or in case you have a reason to use a different symmetry number we print 
out the resulting rotational entropy values for sn=1,12 :
 --------------------------------------------------------
|  sn= 1 | S(rot)=       0.01522696 Eh      9.56 kcal/mol|
|  sn= 2 | S(rot)=       0.01457250 Eh      9.14 kcal/mol|
|  sn= 3 | S(rot)=       0.01418967 Eh      8.90 kcal/mol|
|  sn= 4 | S(rot)=       0.01391804 Eh      8.73 kcal/mol|
|  sn= 5 | S(rot)=       0.01370735 Eh      8.60 kcal/mol|
|  sn= 6 | S(rot)=       0.01353521 Eh      8.49 kcal/mol|
|  sn= 7 | S(rot)=       0.01338966 Eh      8.40 kcal/mol|
|  sn= 8 | S(rot)=       0.01326359 Eh      8.32 kcal/mol|
|  sn= 9 | S(rot)=       0.01315238 Eh      8.25 kcal/mol|
|  sn=10 | S(rot)=       0.01305290 Eh      8.19 kcal/mol|
|  sn=11 | S(rot)=       0.01296291 Eh      8.13 kcal/mol|
|  sn=12 | S(rot)=       0.01288075 Eh      8.08 kcal/mol|
 --------------------------------------------------------


-------------------
GIBBS FREE ENERGY
-------------------

The Gibbs free energy is G = H - T*S

Total enthalpy                    ...  -1726.78562526 Eh 
Total entropy correction          ...     -0.06445845 Eh    -40.45 kcal/mol
-----------------------------------------------------------------------
Final Gibbs free energy         ...  -1726.85008370 Eh

For completeness - the Gibbs free energy minus the electronic energy
G-E(el)                           ...      0.18447216 Eh    115.76 kcal/mol


Timings for individual modules:

Sum of individual times         ...     3357.185 sec (=  55.953 min)
GTO integral calculation        ...       35.547 sec (=   0.592 min)   1.1 %
SCF iterations                  ...     2658.760 sec (=  44.313 min)  79.2 %
SCF Gradient evaluation         ...      156.129 sec (=   2.602 min)   4.7 %
Geometry relaxation             ...        1.711 sec (=   0.029 min)   0.1 %
Analytical frequency calculation...      505.039 sec (=   8.417 min)  15.0 %
                             ****ORCA TERMINATED NORMALLY****
TOTAL RUN TIME: 0 days 0 hours 57 minutes 18 seconds 865 msec
