
                                 *****************
                                 * O   R   C   A *
                                 *****************

                                            #,                                       
                                            ###                                      
                                            ####                                     
                                            #####                                    
                                            ######                                   
                                           ########,                                 
                                     ,,################,,,,,                         
                               ,,#################################,,                 
                          ,,##########################################,,             
                       ,#########################################, ''#####,          
                    ,#############################################,,   '####,        
                  ,##################################################,,,,####,       
                ,###########''''           ''''###############################       
              ,#####''   ,,,,##########,,,,          '''####'''          '####       
            ,##' ,,,,###########################,,,                        '##       
           ' ,,###''''                  '''############,,,                           
         ,,##''                                '''############,,,,        ,,,,,,###''
      ,#''                                            '''#######################'''  
     '                                                          ''''####''''         
             ,#######,   #######,   ,#######,      ##                                
            ,#'     '#,  ##    ##  ,#'     '#,    #''#        ######   ,####,        
            ##       ##  ##   ,#'  ##            #'  '#       #        #'  '#        
            ##       ##  #######   ##           ,######,      #####,   #    #        
            '#,     ,#'  ##    ##  '#,     ,#' ,#      #,         ##   #,  ,#        
             '#######'   ##     ##  '#######'  #'      '#     #####' # '####'        



                  #######################################################
                  #                        -***-                        #
                  #          Department of theory and spectroscopy      #
                  #    Directorship and core code : Frank Neese         #
                  #        Max Planck Institute fuer Kohlenforschung    #
                  #                Kaiser Wilhelm Platz 1               #
                  #                 D-45470 Muelheim/Ruhr               #
                  #                      Germany                        #
                  #                                                     #
                  #                  All rights reserved                #
                  #                        -***-                        #
                  #######################################################


                         Program Version 5.0.2 -  RELEASE  -


 With contributions from (in alphabetic order):
   Daniel Aravena         : Magnetic Suceptibility
   Michael Atanasov       : Ab Initio Ligand Field Theory (pilot matlab implementation)
   Alexander A. Auer      : GIAO ZORA, VPT2 properties, NMR spectrum
   Ute Becker             : Parallelization
   Giovanni Bistoni       : ED, misc. LED, open-shell LED, HFLD
   Martin Brehm           : Molecular dynamics
   Dmytro Bykov           : SCF Hessian
   Vijay G. Chilkuri      : MRCI spin determinant printing, contributions to CSF-ICE
   Dipayan Datta          : RHF DLPNO-CCSD density
   Achintya Kumar Dutta   : EOM-CC, STEOM-CC
   Dmitry Ganyushin       : Spin-Orbit,Spin-Spin,Magnetic field MRCI
   Miquel Garcia          : C-PCM and meta-GGA Hessian, CC/C-PCM, Gaussian charge scheme
   Yang Guo               : DLPNO-NEVPT2, F12-NEVPT2, CIM, IAO-localization
   Andreas Hansen         : Spin unrestricted coupled pair/coupled cluster methods
   Benjamin Helmich-Paris : MC-RPA, TRAH-SCF, COSX integrals
   Lee Huntington         : MR-EOM, pCC
   Robert Izsak           : Overlap fitted RIJCOSX, COSX-SCS-MP3, EOM
   Marcus Kettner         : VPT2
   Christian Kollmar      : KDIIS, OOCD, Brueckner-CCSD(T), CCSD density, CASPT2, CASPT2-K
   Simone Kossmann        : Meta GGA functionals, TD-DFT gradient, OOMP2, MP2 Hessian
   Martin Krupicka        : Initial AUTO-CI
   Lucas Lang             : DCDCAS
   Marvin Lechner         : AUTO-CI (C++ implementation), FIC-MRCC
   Dagmar Lenk            : GEPOL surface, SMD
   Dimitrios Liakos       : Extrapolation schemes; Compound Job, initial MDCI parallelization
   Dimitrios Manganas     : Further ROCIS development; embedding schemes
   Dimitrios Pantazis     : SARC Basis sets
   Anastasios Papadopoulos: AUTO-CI, single reference methods and gradients
   Taras Petrenko         : DFT Hessian,TD-DFT gradient, ASA, ECA, R-Raman, ABS, FL, XAS/XES, NRVS
   Peter Pinski           : DLPNO-MP2, DLPNO-MP2 Gradient
   Christoph Reimann      : Effective Core Potentials
   Marius Retegan         : Local ZFS, SOC
   Christoph Riplinger    : Optimizer, TS searches, QM/MM, DLPNO-CCSD(T), (RO)-DLPNO pert. Triples
   Tobias Risthaus        : Range-separated hybrids, TD-DFT gradient, RPA, STAB
   Michael Roemelt        : Original ROCIS implementation
   Masaaki Saitow         : Open-shell DLPNO-CCSD energy and density
   Barbara Sandhoefer     : DKH picture change effects
   Avijit Sen             : IP-ROCIS
   Kantharuban Sivalingam : CASSCF convergence, NEVPT2, FIC-MRCI
   Bernardo de Souza      : ESD, SOC TD-DFT
   Georgi Stoychev        : AutoAux, RI-MP2 NMR, DLPNO-MP2 response
   Willem Van den Heuvel  : Paramagnetic NMR
   Boris Wezisla          : Elementary symmetry handling
   Frank Wennmohs         : Technical directorship


 We gratefully acknowledge several colleagues who have allowed us to
 interface, adapt or use parts of their codes:
   Stefan Grimme, W. Hujo, H. Kruse, P. Pracht,  : VdW corrections, initial TS optimization,
                  C. Bannwarth, S. Ehlert          DFT functionals, gCP, sTDA/sTD-DF
   Ed Valeev, F. Pavosevic, A. Kumar             : LibInt (2-el integral package), F12 methods
   Garnet Chan, S. Sharma, J. Yang, R. Olivares  : DMRG
   Ulf Ekstrom                                   : XCFun DFT Library
   Mihaly Kallay                                 : mrcc  (arbitrary order and MRCC methods)
   Jiri Pittner, Ondrej Demel                    : Mk-CCSD
   Frank Weinhold                                : gennbo (NPA and NBO analysis)
   Christopher J. Cramer and Donald G. Truhlar   : smd solvation model
   Lars Goerigk                                  : TD-DFT with DH, B97 family of functionals
   V. Asgeirsson, H. Jonsson                     : NEB implementation
   FAccTs GmbH                                   : IRC, NEB, NEB-TS, DLPNO-Multilevel, CI-OPT
                                                   MM, QMMM, 2- and 3-layer-ONIOM, Crystal-QMMM,
                                                   LR-CPCM, SF, NACMEs, symmetry and pop. for TD-DFT,
                                                   nearIR, NL-DFT gradient (VV10), updates on ESD,
                                                   ML-optimized integration grids
   S Lehtola, MJT Oliveira, MAL Marques          : LibXC Library
   Liviu Ungur et al                             : ANISO software


 Your calculation uses the libint2 library for the computation of 2-el integrals
 For citations please refer to: http://libint.valeyev.net

 Your ORCA version has been built with support for libXC version: 5.1.0
 For citations please refer to: https://tddft.org/programs/libxc/

 This ORCA versions uses:
   CBLAS   interface :  Fast vector & matrix operations
   LAPACKE interface :  Fast linear algebra routines
   SCALAPACK package :  Parallel linear algebra routines
   Shared memory     :  Shared parallel matrices
   BLAS/LAPACK       :  OpenBLAS 0.3.15  USE64BITINT DYNAMIC_ARCH NO_AFFINITY Zen SINGLE_THREADED
        Core in use  :  Zen
   Copyright (c) 2011-2014, The OpenBLAS Project


================================================================================

----- Orbital basis set information -----
Your calculation utilizes the basis: def2-TZVP
   F. Weigend and R. Ahlrichs, Phys. Chem. Chem. Phys. 7, 3297 (2005).

----- AuxJ basis set information -----
Your calculation utilizes the auxiliary basis: def2/J
   F. Weigend, Phys. Chem. Chem. Phys. 8, 1057 (2006).

================================================================================
                                        WARNINGS
                       Please study these warnings very carefully!
================================================================================


WARNING: your system is open-shell and RHF/RKS was chosen
  ===> : WILL SWITCH to UHF/UKS


WARNING: Geometry Optimization
  ===> : Switching off AutoStart
         For restart on a previous wavefunction, please use MOREAD

INFO   : the flag for use of the SHARK integral package has been found!

================================================================================
                                       INPUT FILE
================================================================================
NAME = Fe_EtOH_3_HighSpin.inp
|  1> ! PBE0 OPT FREQ def2-TZVP
|  2> %pal nprocs 32 end
|  3> %maxcore 3000
|  4> 
|  5> * xyz 3 6
|  6> Fe         0.10890       -0.32640       -0.17818
|  7> O         -0.47868        1.47592       -0.58066
|  8> O         -0.44020       -1.26474        1.42531
|  9> O          1.34476       -1.15268       -1.42433
| 10> H         -1.33267        2.02913       -0.52454
| 11> C          2.81502       -0.98723       -1.41295
| 12> H         -1.03576       -1.09853        2.23540
| 13> C          0.37082        2.53516       -1.16925
| 14> H          1.30281       -1.77356       -2.23125
| 15> C         -0.00949       -2.62787        1.80883
| 16> H          1.39565        2.15408       -1.17745
| 17> H          0.31750        3.41183       -0.51699
| 18> C         -0.11076        2.83537       -2.57205
| 19> H         -0.08942        1.92991       -3.18728
| 20> H          0.51375        3.59910       -3.04352
| 21> H         -1.14777        3.18620       -2.55913
| 22> H          0.74784       -2.93884        1.08436
| 23> C         -1.20508       -3.55526        1.77965
| 24> H          0.44443       -2.57014        2.80251
| 25> H         -1.66645       -3.55599        0.78675
| 26> H         -1.97211       -3.22155        2.48602
| 27> H         -0.91185       -4.57720        2.03512
| 28> H          3.04568       -0.24271       -0.64610
| 29> H          3.11730       -0.60222       -2.39130
| 30> C          3.46513       -2.31673       -1.09650
| 31> H          3.11161       -2.69789       -0.13306
| 32> H          4.55365       -2.21942       -1.06084
| 33> H          3.20259       -3.06618       -1.85018
| 34> **                         ****END OF INPUT****
================================================================================

                       *****************************
                       * Geometry Optimization Run *
                       *****************************

Geometry optimization settings:
Update method            Update   .... BFGS
Choice of coordinates    CoordSys .... Z-matrix Internals
Initial Hessian          InHess   .... Almoef's Model

Convergence Tolerances:
Energy Change            TolE     ....  5.0000e-06 Eh
Max. Gradient            TolMAXG  ....  3.0000e-04 Eh/bohr
RMS Gradient             TolRMSG  ....  1.0000e-04 Eh/bohr
Max. Displacement        TolMAXD  ....  4.0000e-03 bohr
RMS Displacement         TolRMSD  ....  2.0000e-03 bohr
Strict Convergence                ....  False
------------------------------------------------------------------------------
                        ORCA OPTIMIZATION COORDINATE SETUP
------------------------------------------------------------------------------

The optimization will be done in new redundant internal coordinates
Making redundant internal coordinates   ...  (new redundants) done
Evaluating the initial hessian          ...  (Almloef) done
Evaluating the coordinates              ...  done
Calculating the B-matrix                .... done
Calculating the G-matrix                .... done
Diagonalizing the G-matrix              .... done
Small eigenvalue found = 6.842e-03
Small eigenvalue found = 9.444e-03
Small eigenvalue found = 1.899e-02
Small eigenvalue found = 2.717e-02
The first mode is                       ....   54
The number of degrees of freedom        ....   78

    -----------------------------------------------------------------
                    Redundant Internal Coordinates


    -----------------------------------------------------------------
         Definition                    Initial Value    Approx d2E/dq
    -----------------------------------------------------------------
      1. B(O   1,Fe  0)                  1.9379         0.756489   
      2. B(O   2,Fe  0)                  1.9373         0.758230   
      3. B(O   3,Fe  0)                  1.9398         0.751218   
      4. B(H   4,O   1)                  1.0191         0.418538   
      5. B(C   5,O   3)                  1.4796         0.402671   
      6. B(H   6,O   2)                  1.0191         0.418483   
      7. B(C   7,O   1)                  1.4799         0.402216   
      8. B(H   8,O   3)                  1.0190         0.418627   
      9. B(C   9,O   2)                  1.4801         0.401895   
     10. B(H  10,C   7)                  1.0934         0.355605   
     11. B(H  11,C   7)                  1.0940         0.354847   
     12. B(C  12,C   7)                  1.5132         0.397300   
     13. B(H  13,C  12)                  1.0949         0.353667   
     14. B(H  14,C  12)                  1.0934         0.355596   
     15. B(H  15,C  12)                  1.0948         0.353775   
     16. B(H  16,C   9)                  1.0932         0.355879   
     17. B(C  17,C   9)                  1.5134         0.397085   
     18. B(H  18,C   9)                  1.0940         0.354883   
     19. B(H  19,C  17)                  1.0949         0.353731   
     20. B(H  20,C  17)                  1.0948         0.353765   
     21. B(H  21,C  17)                  1.0934         0.355578   
     22. B(H  22,C   5)                  1.0934         0.355601   
     23. B(H  23,C   5)                  1.0940         0.354884   
     24. B(C  24,C   5)                  1.5134         0.397077   
     25. B(H  25,C  24)                  1.0947         0.353872   
     26. B(H  26,C  24)                  1.0934         0.355575   
     27. B(H  27,C  24)                  1.0948         0.353777   
     28. A(O   2,Fe  0,O   3)          120.3957         0.586264   
     29. A(O   1,Fe  0,O   3)          117.1225         0.586005   
     30. A(O   1,Fe  0,O   2)          122.4402         0.587052   
     31. A(Fe  0,O   1,H   4)          138.3760         0.413130   
     32. A(H   4,O   1,C   7)           96.5685         0.331673   
     33. A(Fe  0,O   1,C   7)          125.0453         0.461693   
     34. A(Fe  0,O   2,C   9)          125.3142         0.461819   
     35. A(H   6,O   2,C   9)           96.5627         0.331622   
     36. A(Fe  0,O   2,H   6)          138.1230         0.413289   
     37. A(C   5,O   3,H   8)           96.6112         0.331747   
     38. A(Fe  0,O   3,C   5)          125.4862         0.461199   
     39. A(Fe  0,O   3,H   8)          137.9022         0.412633   
     40. A(O   3,C   5,H  23)          107.8815         0.325595   
     41. A(H  23,C   5,C  24)          112.1775         0.326804   
     42. A(O   3,C   5,C  24)          109.2832         0.369601   
     43. A(H  22,C   5,C  24)          111.1557         0.326913   
     44. A(O   3,C   5,H  22)          106.9273         0.325704   
     45. A(H  22,C   5,H  23)          109.2251         0.289602   
     46. A(O   1,C   7,H  11)          107.9664         0.325529   
     47. A(O   1,C   7,H  10)          106.9506         0.325644   
     48. A(H  10,C   7,H  11)          109.2347         0.289598   
     49. A(H  11,C   7,C  12)          112.2231         0.326829   
     50. A(H  10,C   7,C  12)          111.1292         0.326944   
     51. A(O   1,C   7,C  12)          109.1483         0.369565   
     52. A(C  17,C   9,H  18)          112.1881         0.326805   
     53. A(H  16,C   9,H  18)          109.2391         0.289638   
     54. A(O   2,C   9,H  18)          107.9089         0.325492   
     55. A(H  16,C   9,C  17)          111.1122         0.326956   
     56. A(O   2,C   9,C  17)          109.2367         0.369479   
     57. A(O   2,C   9,H  16)          106.9687         0.325642   
     58. A(H  14,C  12,H  15)          108.7994         0.289460   
     59. A(H  13,C  12,H  15)          106.8634         0.289213   
     60. A(C   7,C  12,H  15)          110.7366         0.326666   
     61. A(H  13,C  12,H  14)          108.9174         0.289446   
     62. A(C   7,C  12,H  14)          110.8867         0.326942   
     63. A(C   7,C  12,H  13)          110.5257         0.326650   
     64. A(C   9,C  17,H  19)          110.5364         0.326630   
     65. A(H  20,C  17,H  21)          108.7847         0.289456   
     66. A(H  19,C  17,H  21)          108.9211         0.289452   
     67. A(C   9,C  17,H  21)          110.8767         0.326911   
     68. A(H  19,C  17,H  20)          106.8627         0.289220   
     69. A(C   9,C  17,H  20)          110.7476         0.326635   
     70. A(H  26,C  24,H  27)          108.7895         0.289457   
     71. A(H  25,C  24,H  27)          106.8615         0.289239   
     72. A(C   5,C  24,H  27)          110.7570         0.326636   
     73. A(H  25,C  24,H  26)          108.8901         0.289469   
     74. A(C   5,C  24,H  26)          110.8717         0.326909   
     75. A(C   5,C  24,H  25)          110.5586         0.326651   
     76. D(H   4,O   1,Fe  0,O   3)    141.0414         0.003899   
     77. D(C   7,O   1,Fe  0,O   3)    -37.4970         0.003899   
     78. D(H   4,O   1,Fe  0,O   2)    -41.2997         0.003899   
     79. D(C   7,O   1,Fe  0,O   2)    140.1619         0.003899   
     80. D(H   6,O   2,Fe  0,O   3)    179.0348         0.003911   
     81. D(C   9,O   2,Fe  0,O   1)   -178.6894         0.003911   
     82. D(H   6,O   2,Fe  0,O   1)      1.4506         0.003911   
     83. D(C   9,O   2,Fe  0,O   3)     -1.1051         0.003911   
     84. D(H   8,O   3,Fe  0,O   1)    -94.9462         0.003866   
     85. D(C   5,O   3,Fe  0,O   2)    -92.9156         0.003866   
     86. D(H   8,O   3,Fe  0,O   2)     87.3444         0.003866   
     87. D(C   5,O   3,Fe  0,O   1)     84.7938         0.003866   
     88. D(H  23,C   5,O   3,Fe  0)   -123.0296         0.013840   
     89. D(H  22,C   5,O   3,Fe  0)     -5.6519         0.013840   
     90. D(H  22,C   5,O   3,H   8)    174.1726         0.013840   
     91. D(C  24,C   5,O   3,H   8)    -65.4197         0.013840   
     92. D(C  24,C   5,O   3,Fe  0)    114.7558         0.013840   
     93. D(H  23,C   5,O   3,H   8)     56.7949         0.013840   
     94. D(C  12,C   7,O   1,H   4)    -67.3860         0.013809   
     95. D(C  12,C   7,O   1,Fe  0)    111.6369         0.013809   
     96. D(H  11,C   7,O   1,H   4)     54.8552         0.013809   
     97. D(H  11,C   7,O   1,Fe  0)   -126.1220         0.013809   
     98. D(H  10,C   7,O   1,H   4)    172.2996         0.013809   
     99. D(H  10,C   7,O   1,Fe  0)     -8.6775         0.013809   
    100. D(H  18,C   9,O   2,H   6)    -56.3874         0.013788   
    101. D(H  18,C   9,O   2,Fe  0)    123.7067         0.013788   
    102. D(C  17,C   9,O   2,H   6)     65.8290         0.013788   
    103. D(C  17,C   9,O   2,Fe  0)   -114.0770         0.013788   
    104. D(H  16,C   9,O   2,H   6)   -173.8171         0.013788   
    105. D(H  16,C   9,O   2,Fe  0)      6.2769         0.013788   
    106. D(H  13,C  12,C   7,O   1)    -57.7375         0.012530   
    107. D(H  15,C  12,C   7,H  10)    178.2027         0.012530   
    108. D(H  15,C  12,C   7,O   1)     60.4890         0.012530   
    109. D(H  14,C  12,C   7,H  11)     61.7293         0.012530   
    110. D(H  14,C  12,C   7,H  10)    -60.9143         0.012530   
    111. D(H  14,C  12,C   7,O   1)   -178.6280         0.012530   
    112. D(H  13,C  12,C   7,H  11)   -177.3802         0.012530   
    113. D(H  15,C  12,C   7,H  11)    -59.1536         0.012530   
    114. D(H  13,C  12,C   7,H  10)     59.9762         0.012530   
    115. D(H  21,C  17,C   9,H  18)    -61.8062         0.012517   
    116. D(H  21,C  17,C   9,O   2)    178.5862         0.012517   
    117. D(H  20,C  17,C   9,H  18)     59.0588         0.012517   
    118. D(H  20,C  17,C   9,H  16)   -178.3293         0.012517   
    119. D(H  20,C  17,C   9,O   2)    -60.5487         0.012517   
    120. D(H  19,C  17,C   9,H  18)    177.2982         0.012517   
    121. D(H  21,C  17,C   9,H  16)     60.8056         0.012517   
    122. D(H  19,C  17,C   9,H  16)    -60.0900         0.012517   
    123. D(H  19,C  17,C   9,O   2)     57.6906         0.012517   
    124. D(H  27,C  24,C   5,H  23)    -59.2873         0.012517   
    125. D(H  27,C  24,C   5,H  22)    178.0948         0.012517   
    126. D(H  27,C  24,C   5,O   3)     60.3103         0.012517   
    127. D(H  26,C  24,C   5,H  23)     61.5868         0.012517   
    128. D(H  26,C  24,C   5,H  22)    -61.0310         0.012517   
    129. D(H  26,C  24,C   5,O   3)   -178.8156         0.012517   
    130. D(H  25,C  24,C   5,H  23)   -177.5451         0.012517   
    131. D(H  25,C  24,C   5,H  22)     59.8371         0.012517   
    132. D(H  25,C  24,C   5,O   3)    -57.9475         0.012517   
    -----------------------------------------------------------------

Number of atoms                         .... 28
Number of degrees of freedom            .... 132

         *************************************************************
         *                GEOMETRY OPTIMIZATION CYCLE   1            *
         *************************************************************
---------------------------------
CARTESIAN COORDINATES (ANGSTROEM)
---------------------------------
  Fe     0.108900   -0.326400   -0.178180
  O     -0.478680    1.475920   -0.580660
  O     -0.440200   -1.264740    1.425310
  O      1.344760   -1.152680   -1.424330
  H     -1.332670    2.029130   -0.524540
  C      2.815020   -0.987230   -1.412950
  H     -1.035760   -1.098530    2.235400
  C      0.370820    2.535160   -1.169250
  H      1.302810   -1.773560   -2.231250
  C     -0.009490   -2.627870    1.808830
  H      1.395650    2.154080   -1.177450
  H      0.317500    3.411830   -0.516990
  C     -0.110760    2.835370   -2.572050
  H     -0.089420    1.929910   -3.187280
  H      0.513750    3.599100   -3.043520
  H     -1.147770    3.186200   -2.559130
  H      0.747840   -2.938840    1.084360
  C     -1.205080   -3.555260    1.779650
  H      0.444430   -2.570140    2.802510
  H     -1.666450   -3.555990    0.786750
  H     -1.972110   -3.221550    2.486020
  H     -0.911850   -4.577200    2.035120
  H      3.045680   -0.242710   -0.646100
  H      3.117300   -0.602220   -2.391300
  C      3.465130   -2.316730   -1.096500
  H      3.111610   -2.697890   -0.133060
  H      4.553650   -2.219420   -1.060840
  H      3.202590   -3.066180   -1.850180

----------------------------
CARTESIAN COORDINATES (A.U.)
----------------------------
  NO LB      ZA    FRAG     MASS         X           Y           Z
   0 Fe   26.0000    0    55.850    0.205791   -0.616807   -0.336711
   1 O     8.0000    0    15.999   -0.904574    2.789085   -1.097288
   2 O     8.0000    0    15.999   -0.831857   -2.390012    2.693446
   3 O     8.0000    0    15.999    2.541228   -2.178250   -2.691594
   4 H     1.0000    0     1.008   -2.518381    3.834500   -0.991237
   5 C     6.0000    0    12.011    5.319617   -1.865594   -2.670089
   6 H     1.0000    0     1.008   -1.957303   -2.075921    4.224294
   7 C     6.0000    0    12.011    0.700748    4.790758   -2.209562
   8 H     1.0000    0     1.008    2.461954   -3.351543   -4.216451
   9 C     6.0000    0    12.011   -0.017934   -4.965955    3.418193
  10 H     1.0000    0     1.008    2.637396    4.070621   -2.225058
  11 H     1.0000    0     1.008    0.599988    6.447424   -0.976970
  12 C     6.0000    0    12.011   -0.209306    5.358073   -4.860470
  13 H     1.0000    0     1.008   -0.168979    3.647001   -6.023086
  14 H     1.0000    0     1.008    0.970847    6.801313   -5.751419
  15 H     1.0000    0     1.008   -2.168971    6.021045   -4.836055
  16 H     1.0000    0     1.008    1.413213   -5.553603    2.049143
  17 C     6.0000    0    12.011   -2.277271   -6.718468    3.363051
  18 H     1.0000    0     1.008    0.839851   -4.856861    5.295976
  19 H     1.0000    0     1.008   -3.149134   -6.719847    1.486742
  20 H     1.0000    0     1.008   -3.726748   -6.087847    4.697897
  21 H     1.0000    0     1.008   -1.723147   -8.649654    3.845819
  22 H     1.0000    0     1.008    5.755501   -0.458655   -1.220952
  23 H     1.0000    0     1.008    5.890843   -1.138031   -4.518902
  24 C     6.0000    0    12.011    6.548147   -4.377985   -2.072085
  25 H     1.0000    0     1.008    5.880091   -5.098273   -0.251447
  26 H     1.0000    0     1.008    8.605151   -4.194096   -2.004697
  27 H     1.0000    0     1.008    6.052018   -5.794240   -3.496333

--------------------------------
INTERNAL COORDINATES (ANGSTROEM)
--------------------------------
 Fe     0   0   0     0.000000000000     0.00000000     0.00000000
 O      1   0   0     1.937936477081     0.00000000     0.00000000
 O      1   2   0     1.937310750938   122.44015755     0.00000000
 O      1   2   3     1.939839787328   117.12248894   182.34111894
 H      2   1   3     1.019063137691   138.37599357   318.70032414
 C      4   1   2     1.479583615245   125.48623832    84.79377504
 H      3   1   2     1.019099252183   138.12297315     1.45055492
 C      2   1   3     1.479891149950   125.04527722   140.16187290
 H      4   1   2     1.019005232224   137.90220492   265.05380029
 C      3   1   2     1.480108810662   125.31420950   181.31061717
 H      8   2   1     1.093419286139   106.95059673   351.32245214
 H      8   2   1     1.094000191453   107.96636434   233.87801254
 C      8   2   1     1.513239300474   109.14833372   111.63685323
 H     13   8   2     1.094906918464   110.52570948   302.26250667
 H     13   8   2     1.093425906909   110.88672735   181.37199844
 H     13   8   2     1.094823435719   110.73658466    60.48902351
 H     10   3   1     1.093209884103   106.96873788     6.27692389
 C     10   3   1     1.513386643459   109.23672515   245.92302618
 H     10   3   1     1.093972605553   107.90889381   123.70666317
 H     18  10   3     1.094857625356   110.53638755    57.69057458
 H     18  10   3     1.094831476484   110.74764087   299.45125520
 H     18  10   3     1.093439581047   110.87667261   178.58618356
 H      6   4   1     1.093422602885   106.92727377   354.34808251
 H      6   4   1     1.093971947081   107.88147588   236.97037697
 C      6   4   1     1.513391510681   109.28324247   114.75581782
 H     25   6   4     1.094749272482   110.55863547   302.05253569
 H     25   6   4     1.093442573755   110.87169681   181.18439328
 H     25   6   4     1.094822404091   110.75698303    60.31026397

---------------------------
INTERNAL COORDINATES (A.U.)
---------------------------
 Fe     0   0   0     0.000000000000     0.00000000     0.00000000
 O      1   0   0     3.662169206619     0.00000000     0.00000000
 O      1   2   0     3.660986755574   122.44015755     0.00000000
 O      1   2   3     3.665765941734   117.12248894   182.34111894
 H      2   1   3     1.925750243410   138.37599357   318.70032414
 C      4   1   2     2.796007825049   125.48623832    84.79377504
 H      3   1   2     1.925818489910   138.12297315     1.45055492
 C      2   1   3     2.796588981419   125.04527722   140.16187290
 H      4   1   2     1.925640817936   137.90220492   265.05380029
 C      3   1   2     2.797000300556   125.31420950   181.31061717
 H      8   2   1     2.066263000350   106.95059673   351.32245214
 H      8   2   1     2.067360752304   107.96636434   233.87801254
 C      8   2   1     2.859607852983   109.14833372   111.63685323
 H     13   8   2     2.069074218032   110.52570948   302.26250667
 H     13   8   2     2.066275511793   110.88672735   181.37199844
 H     13   8   2     2.068916458508   110.73658466    60.48902351
 H     10   3   1     2.065867287850   106.96873788     6.27692389
 C     10   3   1     2.859886290872   109.23672515   245.92302618
 H     10   3   1     2.067308622507   107.90889381   123.70666317
 H     18  10   3     2.068981067558   110.53638755    57.69057458
 H     18  10   3     2.068931653351   110.74764087   299.45125520
 H     18  10   3     2.066301352168   110.87667261   178.58618356
 H      6   4   1     2.066269268092   106.92727377   354.34808251
 H      6   4   1     2.067307378176   107.88147588   236.97037697
 C      6   4   1     2.859895488588   109.28324247   114.75581782
 H     25   6   4     2.068776310301   110.55863547   302.05253569
 H     25   6   4     2.066307007567   110.87169681   181.18439328
 H     25   6   4     2.068914509014   110.75698303    60.31026397

---------------------
BASIS SET INFORMATION
---------------------
There are 4 groups of distinct atoms

 Group   1 Type Fe  : 17s11p7d1f contracted to 6s4p4d1f pattern {842111/6311/4111/1}
 Group   2 Type O   : 11s6p2d1f contracted to 5s3p2d1f pattern {62111/411/11/1}
 Group   3 Type H   : 5s1p contracted to 3s1p pattern {311/1}
 Group   4 Type C   : 11s6p2d1f contracted to 5s3p2d1f pattern {62111/411/11/1}

Atom   0Fe   basis set group =>   1
Atom   1O    basis set group =>   2
Atom   2O    basis set group =>   2
Atom   3O    basis set group =>   2
Atom   4H    basis set group =>   3
Atom   5C    basis set group =>   4
Atom   6H    basis set group =>   3
Atom   7C    basis set group =>   4
Atom   8H    basis set group =>   3
Atom   9C    basis set group =>   4
Atom  10H    basis set group =>   3
Atom  11H    basis set group =>   3
Atom  12C    basis set group =>   4
Atom  13H    basis set group =>   3
Atom  14H    basis set group =>   3
Atom  15H    basis set group =>   3
Atom  16H    basis set group =>   3
Atom  17C    basis set group =>   4
Atom  18H    basis set group =>   3
Atom  19H    basis set group =>   3
Atom  20H    basis set group =>   3
Atom  21H    basis set group =>   3
Atom  22H    basis set group =>   3
Atom  23H    basis set group =>   3
Atom  24C    basis set group =>   4
Atom  25H    basis set group =>   3
Atom  26H    basis set group =>   3
Atom  27H    basis set group =>   3
---------------------------------
AUXILIARY/J BASIS SET INFORMATION
---------------------------------
There are 4 groups of distinct atoms

 Group   1 Type Fe  : 19s5p5d3f3g contracted to 8s5p5d2f3g pattern {121111111/11111/11111/21/111}
 Group   2 Type O   : 12s5p4d2f1g contracted to 6s4p3d1f1g pattern {711111/2111/211/2/1}
 Group   3 Type H   : 5s2p1d contracted to 3s1p1d pattern {311/2/1}
 Group   4 Type C   : 12s5p4d2f1g contracted to 6s4p3d1f1g pattern {711111/2111/211/2/1}

Atom   0Fe   basis set group =>   1
Atom   1O    basis set group =>   2
Atom   2O    basis set group =>   2
Atom   3O    basis set group =>   2
Atom   4H    basis set group =>   3
Atom   5C    basis set group =>   4
Atom   6H    basis set group =>   3
Atom   7C    basis set group =>   4
Atom   8H    basis set group =>   3
Atom   9C    basis set group =>   4
Atom  10H    basis set group =>   3
Atom  11H    basis set group =>   3
Atom  12C    basis set group =>   4
Atom  13H    basis set group =>   3
Atom  14H    basis set group =>   3
Atom  15H    basis set group =>   3
Atom  16H    basis set group =>   3
Atom  17C    basis set group =>   4
Atom  18H    basis set group =>   3
Atom  19H    basis set group =>   3
Atom  20H    basis set group =>   3
Atom  21H    basis set group =>   3
Atom  22H    basis set group =>   3
Atom  23H    basis set group =>   3
Atom  24C    basis set group =>   4
Atom  25H    basis set group =>   3
Atom  26H    basis set group =>   3
Atom  27H    basis set group =>   3


           ************************************************************
           *        Program running with 32 parallel MPI-processes    *
           *              working on a common directory               *
           ************************************************************
------------------------------------------------------------------------------
                           ORCA GTO INTEGRAL CALCULATION
                           -- RI-GTO INTEGRALS CHOSEN --
------------------------------------------------------------------------------
------------------------------------------------------------------------------
                   ___                                                        
                  /   \      - P O W E R E D   B Y -                         
                 /     \                                                     
                 |  |  |   _    _      __       _____    __    __             
                 |  |  |  | |  | |    /  \     |  _  \  |  |  /  |          
                  \  \/   | |  | |   /    \    | | | |  |  | /  /          
                 / \  \   | |__| |  /  /\  \   | |_| |  |  |/  /          
                |  |  |   |  __  | /  /__\  \  |    /   |      \           
                |  |  |   | |  | | |   __   |  |    \   |  |\   \          
                \     /   | |  | | |  |  |  |  | |\  \  |  | \   \       
                 \___/    |_|  |_| |__|  |__|  |_| \__\ |__|  \__/        
                                                                              
                      - O R C A' S   B I G   F R I E N D -                    
                                      &                                       
                       - I N T E G R A L  F E E D E R -                       
                                                                              
 v1 FN, 2020, v2 2021                                                         
------------------------------------------------------------------------------


Reading SHARK input file Fe_EtOH_3_HighSpin.SHARKINP.tmp ... ok
----------------------
SHARK INTEGRAL PACKAGE
----------------------

Number of atoms                             ...     28
Number of basis functions                   ...    432
Number of shells                            ...    186
Maximum angular momentum                    ...      3
Integral batch strategy                     ... SHARK/LIBINT Hybrid
RI-J (if used) integral strategy            ... SPLIT-RIJ (Revised 2003 algorithm where possible)
Printlevel                                  ...      1
Contraction scheme used                     ... SEGMENTED contraction
Coulomb Range Separation                    ... NOT USED
Exchange Range Separation                   ... NOT USED
Finite Nucleus Model                        ... NOT USED
Auxiliary Coulomb fitting basis             ... AVAILABLE
   # of basis functions in Aux-J            ...    728
   # of shells in Aux-J                     ...    248
   Maximum angular momentum in Aux-J        ...      4
Auxiliary J/K fitting basis                 ... NOT available
Auxiliary Correlation fitting basis         ... NOT available
Auxiliary 'external' fitting basis          ... NOT available
Integral threshold                          ...     2.500000e-11
Primitive cut-off                           ...     2.500000e-12
Primitive pair pre-selection threshold      ...     2.500000e-12

Calculating pre-screening integrals         ... done (  0.0 sec) Dimension = 186
Organizing shell pair data                  ... done (  0.1 sec)
Shell pair information
Total number of shell pairs                 ...     17391
Shell pairs after pre-screening             ...     13178
Total number of primitive shell pairs       ...     52961
Primitive shell pairs kept                  ...     27933
          la=0 lb=0:   4232 shell pairs
          la=1 lb=0:   3909 shell pairs
          la=1 lb=1:    931 shell pairs
          la=2 lb=0:   1778 shell pairs
          la=2 lb=1:    829 shell pairs
          la=2 lb=2:    210 shell pairs
          la=3 lb=0:    732 shell pairs
          la=3 lb=1:    351 shell pairs
          la=3 lb=2:    166 shell pairs
          la=3 lb=3:     40 shell pairs

Calculating one electron integrals          ... done (  0.0 sec)
Calculating RI/J V-Matrix + Cholesky decomp.... done (  0.1 sec)
Calculating Nuclear repulsion               ... done (  0.0 sec) ENN=    843.804493048187 Eh

SHARK setup successfully completed in   0.6 seconds

Maximum memory used throughout the entire GTOINT-calculation: 29.1 MB


           ************************************************************
           *        Program running with 32 parallel MPI-processes    *
           *              working on a common directory               *
           ************************************************************
-------------------------------------------------------------------------------
                                 ORCA SCF
-------------------------------------------------------------------------------

------------
SCF SETTINGS
------------
Hamiltonian:
 Density Functional     Method          .... DFT(GTOs)
 Exchange Functional    Exchange        .... PBE
   PBE kappa parameter   XKappa         ....  0.804000
   PBE mue parameter    XMuePBE         ....  0.219520
 Correlation Functional Correlation     .... PBE
   PBE beta parameter  CBetaPBE         ....  0.066725
 LDA part of GGA corr.  LDAOpt          .... PW91-LDA
 Gradients option       PostSCFGGA      .... off
 Hybrid DFT is turned on
   Fraction HF Exchange ScalHFX         ....  0.250000
   Scaling of DF-GGA-X  ScalDFX         ....  0.750000
   Scaling of DF-GGA-C  ScalDFC         ....  1.000000
   Scaling of DF-LDA-C  ScalLDAC        ....  1.000000
   Perturbative correction              ....  0.000000
   Density functional embedding theory  .... OFF
   NL short-range parameter             ....  6.900000
 RI-approximation to the Coulomb term is turned on
   Number of AuxJ basis functions       .... 728
   RIJ-COSX (HFX calculated with COS-X)).... on


General Settings:
 Integral files         IntName         .... Fe_EtOH_3_HighSpin
 Hartree-Fock type      HFTyp           .... UHF
 Total Charge           Charge          ....    3
 Multiplicity           Mult            ....    6
 Number of Electrons    NEL             ....  101
 Basis Dimension        Dim             ....  432
 Nuclear Repulsion      ENuc            ....    843.8044930482 Eh

Convergence Acceleration:
 DIIS                   CNVDIIS         .... on
   Start iteration      DIISMaxIt       ....    12
   Startup error        DIISStart       ....  0.200000
   # of expansion vecs  DIISMaxEq       ....     5
   Bias factor          DIISBfac        ....   1.050
   Max. coefficient     DIISMaxC        ....  10.000
 Trust-Rad. Augm. Hess. CNVTRAH         .... auto
   Auto Start mean grad. ratio tolernc. ....  1.125000
   Auto Start start iteration           ....    20
   Auto Start num. interpolation iter.  ....    10
   Max. Number of Micro iterations      ....    16
   Max. Number of Macro iterations      .... Maxiter - #DIIS iter
   Number of Davidson start vectors     ....     2
   Converg. threshold I  (grad. norm)   ....   1.000e-05
   Converg. threshold II (energy diff.) ....   1.000e-08
   Grad. Scal. Fac. for Micro threshold ....   0.100
   Minimum threshold for Micro iter.    ....   0.010
   NR start threshold (gradient norm)   ....   0.001
   Initial trust radius                 ....   0.400
   Minimum AH scaling param. (alpha)    ....   1.000
   Maximum AH scaling param. (alpha)    .... 1000.000
   Orbital update algorithm             .... Taylor
   White noise on init. David. guess    .... on
   Maximum white noise                  ....   0.010
   Quad. conv. algorithm                .... NR
 SOSCF                  CNVSOSCF        .... off
 Level Shifting         CNVShift        .... on
   Level shift para.    LevelShift      ....    0.2500
   Turn off err/grad.   ShiftErr        ....    0.0010
 Zerner damping         CNVZerner       .... off
 Static damping         CNVDamp         .... on
   Fraction old density DampFac         ....    0.7000
   Max. Damping (<1)    DampMax         ....    0.9800
   Min. Damping (>=0)   DampMin         ....    0.0000
   Turn off err/grad.   DampErr         ....    0.1000
 Fernandez-Rico         CNVRico         .... off

SCF Procedure:
 Maximum # iterations   MaxIter         ....   125
 SCF integral mode      SCFMode         .... Direct
   Integral package                     .... SHARK and LIBINT hybrid scheme
 Reset frequency        DirectResetFreq ....    20
 Integral Threshold     Thresh          ....  2.500e-11 Eh
 Primitive CutOff       TCut            ....  2.500e-12 Eh

Convergence Tolerance:
 Convergence Check Mode ConvCheckMode   .... Total+1el-Energy
 Convergence forced     ConvForced      .... 0
 Energy Change          TolE            ....  1.000e-08 Eh
 1-El. energy change                    ....  1.000e-05 Eh
 DIIS Error             TolErr          ....  5.000e-07


Diagonalization of the overlap matrix:
Smallest eigenvalue                        ... 3.626e-04
Time for diagonalization                   ...    0.022 sec
Threshold for overlap eigenvalues          ... 1.000e-08
Number of eigenvalues below threshold      ... 0
Time for construction of square roots      ...    0.035 sec
Total time needed                          ...    0.058 sec

Time for model grid setup =    0.124 sec

------------------------------
INITIAL GUESS: MODEL POTENTIAL
------------------------------
Loading Hartree-Fock densities                     ... done
Calculating cut-offs                               ... done
Initializing the effective Hamiltonian             ... done
Setting up the integral package (SHARK)            ... done
Starting the Coulomb interaction                   ... done (   0.1 sec)
Reading the grid                                   ... done
Mapping shells                                     ... done
Starting the XC term evaluation                    ... done (   0.0 sec)
  promolecular density results
     # of electrons  =    103.993917729
     EX              =   -114.611900862
     EC              =     -3.704657887
     EX+EC           =   -118.316558749
Transforming the Hamiltonian                       ... done (   0.0 sec)
Diagonalizing the Hamiltonian                      ... done (   0.0 sec)
Back transforming the eigenvectors                 ... done (   0.0 sec)
Now organizing SCF variables                       ... done
                      ------------------
                      INITIAL GUESS DONE (   0.3 sec)
                      ------------------
-------------------
DFT GRID GENERATION
-------------------

General Integration Accuracy     IntAcc      ... 4.388
Radial Grid Type                 RadialGrid  ... OptM3 with GC (2021)
Angular Grid (max. ang.)         AngularGrid ... 4 (Lebedev-302)
Angular grid pruning method      GridPruning ... 4 (adaptive)
Weight generation scheme         WeightScheme... Becke
Basis function cutoff            BFCut       ... 1.0000e-11
Integration weight cutoff        WCut        ... 1.0000e-14
Angular grids for H and He will be reduced by one unit
Partially contracted basis set               ... off
Rotationally invariant grid construction     ... off

Total number of grid points                  ...   123123
Total number of batches                      ...     1936
Average number of points per batch           ...       63
Average number of grid points per atom       ...     4397
Time for grid setup =    0.628 sec

--------------------
COSX GRID GENERATION
--------------------

GRIDX 1
-------
General Integration Accuracy     IntAcc      ... 3.816
Radial Grid Type                 RadialGrid  ... OptM3 with GC (2021)
Angular Grid (max. ang.)         AngularGrid ... 1 (Lebedev-50)
Angular grid pruning method      GridPruning ... 4 (adaptive)
Weight generation scheme         WeightScheme... Becke
Basis function cutoff            BFCut       ... 1.0000e-11
Integration weight cutoff        WCut        ... 1.0000e-14
Angular grids for H and He will be reduced by one unit
Partially contracted basis set               ... on
Rotationally invariant grid construction     ... off

Total number of grid points                  ...    15584
Total number of batches                      ...      261
Average number of points per batch           ...       59
Average number of grid points per atom       ...      557
UseSFitting                                  ... on

GRIDX 2
-------
General Integration Accuracy     IntAcc      ... 4.020
Radial Grid Type                 RadialGrid  ... OptM3 with GC (2021)
Angular Grid (max. ang.)         AngularGrid ... 2 (Lebedev-110)
Angular grid pruning method      GridPruning ... 4 (adaptive)
Weight generation scheme         WeightScheme... Becke
Basis function cutoff            BFCut       ... 1.0000e-11
Integration weight cutoff        WCut        ... 1.0000e-14
Angular grids for H and He will be reduced by one unit
Partially contracted basis set               ... on
Rotationally invariant grid construction     ... off

Total number of grid points                  ...    32314
Total number of batches                      ...      523
Average number of points per batch           ...       61
Average number of grid points per atom       ...     1154
UseSFitting                                  ... on

GRIDX 3
-------
General Integration Accuracy     IntAcc      ... 4.338
Radial Grid Type                 RadialGrid  ... OptM3 with GC (2021)
Angular Grid (max. ang.)         AngularGrid ... 3 (Lebedev-194)
Angular grid pruning method      GridPruning ... 4 (adaptive)
Weight generation scheme         WeightScheme... Becke
Basis function cutoff            BFCut       ... 1.0000e-11
Integration weight cutoff        WCut        ... 1.0000e-14
Angular grids for H and He will be reduced by one unit
Partially contracted basis set               ... on
Rotationally invariant grid construction     ... off

Total number of grid points                  ...    70455
Total number of batches                      ...     1116
Average number of points per batch           ...       63
Average number of grid points per atom       ...     2516
UseSFitting                                  ... on

Time for X-Grid setup             =    0.607 sec

--------------
SCF ITERATIONS
--------------
ITER       Energy         Delta-E        Max-DP      RMS-DP      [F,P]     Damp
               ***  Starting incremental Fock matrix formation  ***
  0  -1726.3576096068   0.000000000000 0.14162903  0.00095099  0.3401869 0.7000
  1  -1726.3446682549   0.012941351940 0.04536722  0.00039460  0.3037905 0.7000
                               ***Turning on DIIS***
  2  -1726.6538158154  -0.309147560590 0.10027209  0.00062573  0.0414424 0.0000
  3  -1726.6911656211  -0.037349805694 0.00708882  0.00007773  0.2832284 0.7000
  4  -1726.7501836608  -0.059018039650 0.00666879  0.00008219  0.2536579 0.7000
  5  -1726.8068712461  -0.056687585272 0.00556510  0.00007562  0.2242720 0.7000
  6  -1726.8547331164  -0.047861870298 0.00468997  0.00007064  0.1983661 0.7000
  7  -1726.8951485903  -0.040415473925 0.01110322  0.00016000  0.1754762 0.7000
  8  -1726.9635365465  -0.068387956184 0.00998426  0.00012817  0.1206924 0.7000
  9  -1727.0051398100  -0.041603263523 0.02725501  0.00029575  0.0769975 0.0000
 10  -1727.0546736324  -0.049533822374 0.01167288  0.00005871  0.0259954 0.0000
 11  -1727.0567400981  -0.002066465719 0.00605046  0.00003568  0.0146258 0.0000
 12  -1727.0575531741  -0.000813076067 0.00485853  0.00002802  0.0109670 0.0000
 13  -1727.0581554662  -0.000602292085 0.00282560  0.00002208  0.0042299 0.0000
 14  -1727.0584638658  -0.000308399598 0.00199962  0.00001793  0.0029649 0.0000
 15  -1727.0586822540  -0.000218388175 0.00626056  0.00004859  0.0009686 0.0000
               *** Restarting incremental Fock matrix formation ***
                                   *** Resetting DIIS ***
 16  -1727.0590198784  -0.000337624408 0.00373170  0.00003117  0.0057174 0.0000
 17  -1727.0588613748   0.000158503646 0.00150821  0.00001492  0.0109480 0.0000
 18  -1727.0591754067  -0.000314031907 0.00093759  0.00000838  0.0027367 0.0000
 19  -1727.0592474501  -0.000072043468 0.00351047  0.00002703  0.0006105 0.0000
 20  -1727.0593108318  -0.000063381699 0.00059663  0.00000548  0.0046269 0.0000

 WARNING: the maximum gradient error descreased on average only by a factor   1.1
          during the last 20 iterations

                      *** Initiating the TRAH-SCF procedure ***


TRAH GRIDX
----------

General Integration Accuracy     IntAcc      ... 3.067
Radial Grid Type                 RadialGrid  ... OptM3 with GC (2021)
Angular Grid (max. ang.)         AngularGrid ... 1 (Lebedev-50)
Angular grid pruning method      GridPruning ... 4 (adaptive)
Weight generation scheme         WeightScheme... Becke
Basis function cutoff            BFCut       ... 1.0000e-11
Integration weight cutoff        WCut        ... 1.0000e-14
Angular grids for H and He will be reduced by one unit
Partially contracted basis set               ... on
Rotationally invariant grid construction     ... off

Total number of grid points                  ...     8176
Total number of batches                      ...      145
Average number of points per batch           ...       56
Average number of grid points per atom       ...      292


TRAH GRID
---------

General Integration Accuracy     IntAcc      ... 3.467
Radial Grid Type                 RadialGrid  ... OptM3 with GC (2021)
Angular Grid (max. ang.)         AngularGrid ... 1 (Lebedev-50)
Angular grid pruning method      GridPruning ... 4 (adaptive)
Weight generation scheme         WeightScheme... Becke
Basis function cutoff            BFCut       ... 1.0000e-11
Integration weight cutoff        WCut        ... 1.0000e-14
Angular grids for H and He will be reduced by one unit
Partially contracted basis set               ... off
Rotationally invariant grid construction     ... off

Total number of grid points                  ...    19500
Total number of batches                      ...      318
Average number of points per batch           ...       61
Average number of grid points per atom       ...      696

 --------------------------------------------------------------------------------------------
   Iter.        energy            ||Error||_2        Shift      TRadius  Mac/Mic        Rej.
 --------------------------------------------------------------------------------------------
    0      -1727.059365074454     1.024187e-02                     0.400 (TRAH MAcro)   No
    0     dE    -2.161177e-05     7.271470e-03    -2.1612e-05      0.002 (TRAH MIcro)
    0     dE    -6.605705e-05     4.912997e-03    -6.6043e-05      0.014 (TRAH MIcro)
    0     dE    -2.112537e-04     4.267927e-03    -2.0956e-04      0.090 (TRAH MIcro)
    0     dE    -2.205503e-04     1.857794e-03    -2.1858e-04      0.095 (TRAH MIcro)
    0     dE    -2.261926e-04     1.654966e-03    -2.2403e-04      0.098 (TRAH MIcro)
    0     dE    -2.281480e-04     1.097109e-03    -2.2590e-04      0.100 (TRAH MIcro)
    0     dE    -2.287553e-04     5.783896e-04    -2.2646e-04      0.101 (TRAH MIcro)
    1      -1727.059598957283     4.020109e-03                     0.480 (TRAH MAcro)   No
    1     dE    -3.012001e-06     3.901870e-03    -3.0120e-06      0.001 (TRAH MIcro)
    1     dE    -5.397258e-06     6.082863e-04    -5.3972e-06      0.002 (TRAH MIcro)
    1     dE    -6.330505e-06     7.680282e-04    -6.3304e-06      0.004 (TRAH MIcro)
    1     dE    -6.852459e-06     3.716398e-04    -6.8522e-06      0.006 (TRAH MIcro)
    2      -1727.059605845351     3.712493e-04                           (NR   MAcro)
    2     dE    -1.304184e-07     3.300227e-04                           (NR   MIcro)
    2     dE    -2.620467e-07     3.475525e-04                           (NR   MIcro)
    2     dE    -3.110885e-07     3.040470e-04                           (NR   MIcro)
    2     dE    -3.761275e-07     1.785272e-04                           (NR   MIcro)
    2     dE    -4.050874e-07     1.228966e-04                           (NR   MIcro)
    2     dE    -4.123981e-07     5.869189e-05                           (NR   MIcro)
    2     dE    -4.148256e-07     3.778931e-05                           (NR   MIcro)
    2     dE    -4.159717e-07     3.239960e-05                           (NR   MIcro)
    2     dE    -4.165959e-07     1.559286e-05                           (NR   MIcro)
    2     dE    -4.167860e-07     1.046027e-05                           (NR   MIcro)
    2     dE    -4.168622e-07     5.791602e-06                           (NR   MIcro)
    2     dE    -4.168964e-07     6.219932e-06                           (NR   MIcro)
    2     dE    -4.169190e-07     4.183125e-06                           (NR   MIcro)
    2     dE    -4.169312e-07     2.310911e-06                           (NR   MIcro)
    2     dE    -4.169347e-07     1.282497e-06                           (NR   MIcro)
    3      -1727.059606263605     7.454768e-06                           (NR   MAcro)
    3     dE    -1.771915e-11     2.552522e-06                           (NR   MIcro)
    3     dE    -3.100456e-11     2.698150e-06                           (NR   MIcro)
    3     dE    -3.654897e-11     2.261659e-06                           (NR   MIcro)
    3     dE    -4.156697e-11     1.543722e-06                           (NR   MIcro)
    3     dE    -4.332211e-11     1.002768e-06                           (NR   MIcro)
    3     dE    -4.407785e-11     7.375517e-07                           (NR   MIcro)
    4      -1727.059606263633     7.370558e-07                           (NR   MAcro)

               *****************************************************
               *                     SUCCESS                       *
               *           SCF CONVERGED AFTER  58 CYCLES          *
               *****************************************************

Old exchange energy                            =    -28.913197019 Eh
New exchange energy                            =    -28.913180118 Eh
Exchange energy change after final integration =      0.000016901 Eh
Total energy after final integration           =  -1727.059589363 Eh
Final COS-X integration done in                =     1.505 sec

----------------
TOTAL SCF ENERGY
----------------

Total Energy       :        -1727.05958936 Eh          -46995.68064 eV

Components:
Nuclear Repulsion  :          843.80449305 Eh           22961.08757 eV
Electronic Energy  :        -2570.86408241 Eh          -69956.76822 eV
One Electron Energy:        -4003.97860178 Eh         -108953.79686 eV
Two Electron Energy:         1433.11451937 Eh           38997.02864 eV
Max COSX asymmetry :            0.00000088 Eh               0.00002 eV

Virial components:
Potential Energy   :        -3450.35394563 Eh          -93888.90408 eV
Kinetic Energy     :         1723.29435626 Eh           46893.22344 eV
Virial Ratio       :            2.00218490


DFT components:
N(Alpha)           :       53.000013688000 electrons
N(Beta)            :       48.000012653321 electrons
N(Total)           :      101.000026341321 electrons
E(X)               :      -86.591006532750 Eh       
E(C)               :       -3.603763865950 Eh       
E(XC)              :      -90.194770398699 Eh       
DFET-embed. en.    :        0.000000000000 Eh       

---------------
SCF CONVERGENCE
---------------

  Last Energy change         ...   -2.8649e-11  Tolerance :   1.0000e-08
  Last Orbital Gradient      ...    7.3706e-07  Tolerance :   1.0000e-05
  Last Orbital Rotation      ...    3.2288e-05

             **** THE GBW FILE WAS UPDATED (Fe_EtOH_3_HighSpin.gbw) ****
             **** DENSITY Fe_EtOH_3_HighSpin.scfp WAS UPDATED ****
             **** ENERGY FILE WAS UPDATED (Fe_EtOH_3_HighSpin.en.tmp) ****
----------------------
UHF SPIN CONTAMINATION
----------------------

Warning: in a DFT calculation there is little theoretical justification to 
         calculate <S**2> as in Hartree-Fock theory. We will do it anyways
         but you should keep in mind that the values have only limited relevance

Expectation value of <S**2>     :     8.761974
Ideal value S*(S+1) for S=2.5   :     8.750000
Deviation                       :     0.011974

             **** THE GBW FILE WAS UPDATED (Fe_EtOH_3_HighSpin.gbw) ****
             **** DENSITY Fe_EtOH_3_HighSpin.scfp WAS UPDATED ****
----------------
ORBITAL ENERGIES
----------------
                 SPIN UP ORBITALS
  NO   OCC          E(Eh)            E(eV) 
   0   1.0000    -257.044340     -6994.5321 
   1   1.0000     -30.856186      -839.6395 
   2   1.0000     -26.679782      -725.9938 
   3   1.0000     -26.675484      -725.8768 
   4   1.0000     -26.668508      -725.6870 
   5   1.0000     -19.804921      -538.9193 
   6   1.0000     -19.789582      -538.5019 
   7   1.0000     -19.772724      -538.0432 
   8   1.0000     -10.741031      -292.2783 
   9   1.0000     -10.731807      -292.0273 
  10   1.0000     -10.721158      -291.7375 
  11   1.0000     -10.623750      -289.0869 
  12   1.0000     -10.614981      -288.8483 
  13   1.0000     -10.607268      -288.6384 
  14   1.0000      -4.281516      -116.5060 
  15   1.0000      -3.054002       -83.1036 
  16   1.0000      -3.044145       -82.8354 
  17   1.0000      -3.030858       -82.4738 
  18   1.0000      -1.610394       -43.8211 
  19   1.0000      -1.597315       -43.4651 
  20   1.0000      -1.584117       -43.1060 
  21   1.0000      -1.228078       -33.4177 
  22   1.0000      -1.218584       -33.1594 
  23   1.0000      -1.208796       -32.8930 
  24   1.0000      -1.116791       -30.3894 
  25   1.0000      -1.099927       -29.9305 
  26   1.0000      -1.098407       -29.8892 
  27   1.0000      -1.093004       -29.7421 
  28   1.0000      -1.085953       -29.5503 
  29   1.0000      -1.079722       -29.3807 
  30   1.0000      -1.040728       -28.3196 
  31   1.0000      -1.026867       -27.9425 
  32   1.0000      -1.014129       -27.5959 
  33   1.0000      -1.012718       -27.5574 
  34   1.0000      -0.983163       -26.7532 
  35   1.0000      -0.980346       -26.6766 
  36   1.0000      -0.957715       -26.0608 
  37   1.0000      -0.946360       -25.7518 
  38   1.0000      -0.935819       -25.4649 
  39   1.0000      -0.920420       -25.0459 
  40   1.0000      -0.908999       -24.7351 
  41   1.0000      -0.882482       -24.0136 
  42   1.0000      -0.873345       -23.7649 
  43   1.0000      -0.862320       -23.4649 
  44   1.0000      -0.812797       -22.1173 
  45   1.0000      -0.805270       -21.9125 
  46   1.0000      -0.800391       -21.7797 
  47   1.0000      -0.797235       -21.6939 
  48   1.0000      -0.791299       -21.5323 
  49   1.0000      -0.790035       -21.4980 
  50   1.0000      -0.781217       -21.2580 
  51   1.0000      -0.775204       -21.0944 
  52   1.0000      -0.767430       -20.8828 
  53   0.0000      -0.528918       -14.3926 
  54   0.0000      -0.465742       -12.6735 
  55   0.0000      -0.418121       -11.3777 
  56   0.0000      -0.414851       -11.2887 
  57   0.0000      -0.374027       -10.1778 
  58   0.0000      -0.356242        -9.6938 
  59   0.0000      -0.346159        -9.4195 
  60   0.0000      -0.333821        -9.0837 
  61   0.0000      -0.325155        -8.8479 
  62   0.0000      -0.315906        -8.5962 
  63   0.0000      -0.307951        -8.3798 
  64   0.0000      -0.299614        -8.1529 
  65   0.0000      -0.295768        -8.0482 
  66   0.0000      -0.280402        -7.6301 
  67   0.0000      -0.270811        -7.3691 
  68   0.0000      -0.269640        -7.3373 
  69   0.0000      -0.260392        -7.0856 
  70   0.0000      -0.255710        -6.9582 
  71   0.0000      -0.252594        -6.8734 
  72   0.0000      -0.243167        -6.6169 
  73   0.0000      -0.236337        -6.4311 
  74   0.0000      -0.230022        -6.2592 
  75   0.0000      -0.217620        -5.9217 
  76   0.0000      -0.214416        -5.8346 
  77   0.0000      -0.209940        -5.7128 
  78   0.0000      -0.205922        -5.6034 
  79   0.0000      -0.198810        -5.4099 
  80   0.0000      -0.196315        -5.3420 
  81   0.0000      -0.188180        -5.1206 
  82   0.0000      -0.183596        -4.9959 
  83   0.0000      -0.180052        -4.8995 
  84   0.0000      -0.171300        -4.6613 
  85   0.0000      -0.154993        -4.2176 
  86   0.0000      -0.134178        -3.6512 
  87   0.0000      -0.132742        -3.6121 
  88   0.0000      -0.124246        -3.3809 
  89   0.0000      -0.120458        -3.2778 
  90   0.0000      -0.115132        -3.1329 
  91   0.0000      -0.108461        -2.9514 
  92   0.0000      -0.092715        -2.5229 
  93   0.0000      -0.085884        -2.3370 
  94   0.0000      -0.082187        -2.2364 
  95   0.0000      -0.066183        -1.8009 
  96   0.0000      -0.063085        -1.7166 
  97   0.0000      -0.054519        -1.4836 
  98   0.0000      -0.049122        -1.3367 
  99   0.0000      -0.044222        -1.2033 
 100   0.0000      -0.023831        -0.6485 
 101   0.0000      -0.020678        -0.5627 
 102   0.0000      -0.013393        -0.3644 
 103   0.0000       0.005086         0.1384 
 104   0.0000       0.016819         0.4577 
 105   0.0000       0.034380         0.9355 
 106   0.0000       0.038935         1.0595 
 107   0.0000       0.044082         1.1995 
 108   0.0000       0.059208         1.6111 
 109   0.0000       0.060223         1.6387 
 110   0.0000       0.064861         1.7649 
 111   0.0000       0.077639         2.1127 
 112   0.0000       0.079560         2.1650 
 113   0.0000       0.087142         2.3713 
 114   0.0000       0.094684         2.5765 
 115   0.0000       0.100046         2.7224 
 116   0.0000       0.105819         2.8795 
 117   0.0000       0.111332         3.0295 
 118   0.0000       0.114093         3.1046 
 119   0.0000       0.117530         3.1981 
 120   0.0000       0.122060         3.3214 
 121   0.0000       0.125493         3.4148 
 122   0.0000       0.139852         3.8056 
 123   0.0000       0.143941         3.9168 
 124   0.0000       0.148066         4.0291 
 125   0.0000       0.152874         4.1599 
 126   0.0000       0.163863         4.4589 
 127   0.0000       0.165979         4.5165 
 128   0.0000       0.181743         4.9455 
 129   0.0000       0.193013         5.2521 
 130   0.0000       0.197263         5.3678 
 131   0.0000       0.213143         5.7999 
 132   0.0000       0.223161         6.0725 
 133   0.0000       0.241678         6.5764 
 134   0.0000       0.246879         6.7179 
 135   0.0000       0.252773         6.8783 
 136   0.0000       0.263048         7.1579 
 137   0.0000       0.293107         7.9758 
 138   0.0000       0.299866         8.1598 
 139   0.0000       0.311656         8.4806 
 140   0.0000       0.334363         9.0985 
 141   0.0000       0.351486         9.5644 
 142   0.0000       0.357818         9.7367 
 143   0.0000       0.363053         9.8792 
 144   0.0000       0.402341        10.9482 
 145   0.0000       0.411014        11.1843 
 146   0.0000       0.418390        11.3850 
 147   0.0000       0.426117        11.5952 
 148   0.0000       0.439495        11.9593 
 149   0.0000       0.455717        12.4007 
 150   0.0000       0.458687        12.4815 
 151   0.0000       0.473430        12.8827 
 152   0.0000       0.490676        13.3520 
 153   0.0000       0.500881        13.6297 
 154   0.0000       0.504314        13.7231 
 155   0.0000       0.511290        13.9129 
 156   0.0000       0.534027        14.5316 
 157   0.0000       0.536420        14.5967 
 158   0.0000       0.579757        15.7760 
 159   0.0000       0.601816        16.3763 
 160   0.0000       0.608038        16.5456 
 161   0.0000       0.640893        17.4396 
 162   0.0000       0.642035        17.4707 
 163   0.0000       0.669490        18.2177 
 164   0.0000       0.678545        18.4641 
 165   0.0000       0.687654        18.7120 
 166   0.0000       0.692969        18.8566 
 167   0.0000       0.701937        19.1007 
 168   0.0000       0.710198        19.3255 
 169   0.0000       0.721157        19.6237 
 170   0.0000       0.732962        19.9449 
 171   0.0000       0.746828        20.3222 
 172   0.0000       0.758757        20.6468 
 173   0.0000       0.775738        21.1089 
 174   0.0000       0.784667        21.3519 
 175   0.0000       0.812596        22.1119 
 176   0.0000       0.862282        23.4639 
 177   0.0000       0.893054        24.3012 
 178   0.0000       0.946385        25.7524 
 179   0.0000       0.978128        26.6162 
 180   0.0000       1.008235        27.4355 
 181   0.0000       1.026200        27.9243 
 182   0.0000       1.059414        28.8281 
 183   0.0000       1.084016        29.4976 
 184   0.0000       1.092879        29.7387 
 185   0.0000       1.095703        29.8156 
 186   0.0000       1.103964        30.0404 
 187   0.0000       1.115254        30.3476 
 188   0.0000       1.122824        30.5536 
 189   0.0000       1.128023        30.6951 
 190   0.0000       1.129685        30.7403 
 191   0.0000       1.138891        30.9908 
 192   0.0000       1.143976        31.1292 
 193   0.0000       1.152177        31.3523 
 194   0.0000       1.159005        31.5381 
 195   0.0000       1.159505        31.5517 
 196   0.0000       1.165764        31.7221 
 197   0.0000       1.168883        31.8069 
 198   0.0000       1.176495        32.0141 
 199   0.0000       1.182251        32.1707 
 200   0.0000       1.202087        32.7104 
 201   0.0000       1.207245        32.8508 
 202   0.0000       1.215490        33.0752 
 203   0.0000       1.229507        33.4566 
 204   0.0000       1.265787        34.4438 
 205   0.0000       1.279680        34.8219 
 206   0.0000       1.287654        35.0389 
 207   0.0000       1.291269        35.1372 
 208   0.0000       1.299687        35.3663 
 209   0.0000       1.325149        36.0591 
 210   0.0000       1.337363        36.3915 
 211   0.0000       1.343409        36.5560 
 212   0.0000       1.347188        36.6589 
 213   0.0000       1.376950        37.4687 
 214   0.0000       1.379507        37.5383 
 215   0.0000       1.384895        37.6849 
 216   0.0000       1.392860        37.9017 
 217   0.0000       1.396655        38.0049 
 218   0.0000       1.403354        38.1872 
 219   0.0000       1.417968        38.5849 
 220   0.0000       1.424795        38.7706 
 221   0.0000       1.467081        39.9213 
 222   0.0000       1.487861        40.4868 
 223   0.0000       1.501313        40.8528 
 224   0.0000       1.508798        41.0565 
 225   0.0000       1.515595        41.2414 
 226   0.0000       1.529080        41.6084 
 227   0.0000       1.534367        41.7522 
 228   0.0000       1.563118        42.5346 
 229   0.0000       1.579743        42.9870 
 230   0.0000       1.588125        43.2151 
 231   0.0000       1.613781        43.9132 
 232   0.0000       1.627680        44.2914 
 233   0.0000       1.649533        44.8861 
 234   0.0000       1.670528        45.4574 
 235   0.0000       1.685947        45.8769 
 236   0.0000       1.702358        46.3235 
 237   0.0000       1.717501        46.7356 
 238   0.0000       1.737080        47.2684 
 239   0.0000       1.768249        48.1165 
 240   0.0000       1.811565        49.2952 
 241   0.0000       1.832140        49.8551 
 242   0.0000       1.852934        50.4209 
 243   0.0000       1.873609        50.9835 
 244   0.0000       1.889902        51.4269 
 245   0.0000       1.897378        51.6303 
 246   0.0000       1.900438        51.7136 
 247   0.0000       1.907459        51.9046 
 248   0.0000       1.919594        52.2348 
 249   0.0000       1.937047        52.7097 
 250   0.0000       1.940384        52.8005 
 251   0.0000       1.948455        53.0202 
 252   0.0000       1.952398        53.1275 
 253   0.0000       1.954241        53.1776 
 254   0.0000       1.962938        53.4143 
 255   0.0000       1.974069        53.7171 
 256   0.0000       1.993047        54.2336 
 257   0.0000       2.012047        54.7506 
 258   0.0000       2.023099        55.0513 
 259   0.0000       2.034488        55.3612 
 260   0.0000       2.042772        55.5867 
 261   0.0000       2.051346        55.8200 
 262   0.0000       2.059714        56.0477 
 263   0.0000       2.071453        56.3671 
 264   0.0000       2.079666        56.5906 
 265   0.0000       2.096201        57.0405 
 266   0.0000       2.152320        58.5676 
 267   0.0000       2.168717        59.0138 
 268   0.0000       2.176963        59.2382 
 269   0.0000       2.183695        59.4213 
 270   0.0000       2.189306        59.5740 
 271   0.0000       2.190874        59.6167 
 272   0.0000       2.198002        59.8107 
 273   0.0000       2.201117        59.8954 
 274   0.0000       2.206313        60.0368 
 275   0.0000       2.223264        60.4981 
 276   0.0000       2.227388        60.6103 
 277   0.0000       2.233898        60.7875 
 278   0.0000       2.252147        61.2840 
 279   0.0000       2.256226        61.3950 
 280   0.0000       2.267913        61.7130 
 281   0.0000       2.277450        61.9726 
 282   0.0000       2.278383        61.9979 
 283   0.0000       2.288478        62.2726 
 284   0.0000       2.297167        62.5091 
 285   0.0000       2.355152        64.0869 
 286   0.0000       2.366488        64.3954 
 287   0.0000       2.375001        64.6271 
 288   0.0000       2.388644        64.9983 
 289   0.0000       2.395977        65.1979 
 290   0.0000       2.405995        65.4705 
 291   0.0000       2.479134        67.4607 
 292   0.0000       2.500871        68.0522 
 293   0.0000       2.527644        68.7807 
 294   0.0000       2.554830        69.5205 
 295   0.0000       2.573196        70.0202 
 296   0.0000       2.580635        70.2226 
 297   0.0000       2.601571        70.7923 
 298   0.0000       2.613730        71.1232 
 299   0.0000       2.642450        71.9047 
 300   0.0000       2.657780        72.3219 
 301   0.0000       2.662256        72.4437 
 302   0.0000       2.672513        72.7228 
 303   0.0000       2.679767        72.9202 
 304   0.0000       2.689621        73.1883 
 305   0.0000       2.695431        73.3464 
 306   0.0000       2.708272        73.6958 
 307   0.0000       2.717589        73.9493 
 308   0.0000       2.722346        74.0788 
 309   0.0000       2.739590        74.5480 
 310   0.0000       2.744385        74.6785 
 311   0.0000       2.753710        74.9322 
 312   0.0000       2.794844        76.0516 
 313   0.0000       2.798606        76.1539 
 314   0.0000       2.803638        76.2909 
 315   0.0000       2.808478        76.4226 
 316   0.0000       2.820946        76.7618 
 317   0.0000       2.822911        76.8153 
 318   0.0000       2.881382        78.4064 
 319   0.0000       2.889849        78.6368 
 320   0.0000       2.896622        78.8211 
 321   0.0000       2.903588        79.0107 
 322   0.0000       2.912953        79.2655 
 323   0.0000       2.925799        79.6151 
 324   0.0000       2.941320        80.0374 
 325   0.0000       2.948159        80.2235 
 326   0.0000       2.951505        80.3145 
 327   0.0000       2.960177        80.5505 
 328   0.0000       2.974657        80.9445 
 329   0.0000       2.981852        81.1403 
 330   0.0000       3.009075        81.8811 
 331   0.0000       3.014644        82.0326 
 332   0.0000       3.021529        82.2200 
 333   0.0000       3.067992        83.4843 
 334   0.0000       3.082587        83.8815 
 335   0.0000       3.089837        84.0787 
 336   0.0000       3.093254        84.1717 
 337   0.0000       3.103463        84.4495 
 338   0.0000       3.113988        84.7359 
 339   0.0000       3.115601        84.7798 
 340   0.0000       3.187082        86.7249 
 341   0.0000       3.312276        90.1316 
 342   0.0000       3.319244        90.3212 
 343   0.0000       3.327063        90.5340 
 344   0.0000       3.351128        91.1888 
 345   0.0000       3.353020        91.2403 
 346   0.0000       3.363197        91.5173 
 347   0.0000       3.364422        91.5506 
 348   0.0000       3.365523        91.5805 
 349   0.0000       3.377336        91.9020 
 350   0.0000       3.379626        91.9643 
 351   0.0000       3.401929        92.5712 
 352   0.0000       3.416904        92.9787 
 353   0.0000       3.434918        93.4689 
 354   0.0000       3.470796        94.4452 
 355   0.0000       3.479902        94.6929 
 356   0.0000       3.488944        94.9390 
 357   0.0000       3.498139        95.1892 
 358   0.0000       3.508888        95.4817 
 359   0.0000       3.515168        95.6526 
 360   0.0000       3.521368        95.8213 
 361   0.0000       3.530732        96.0761 
 362   0.0000       3.540697        96.3473 
 363   0.0000       3.579962        97.4157 
 364   0.0000       3.594166        97.8022 
 365   0.0000       3.620307        98.5136 
 366   0.0000       3.811456       103.7150 
 367   0.0000       3.815501       103.8251 
 368   0.0000       3.834039       104.3295 
 369   0.0000       3.892806       105.9286 
 370   0.0000       3.901633       106.1688 
 371   0.0000       3.914670       106.5236 
 372   0.0000       3.963847       107.8618 
 373   0.0000       3.970992       108.0562 
 374   0.0000       3.980035       108.3023 
 375   0.0000       4.020738       109.4098 
 376   0.0000       4.025099       109.5285 
 377   0.0000       4.029616       109.6514 
 378   0.0000       4.037717       109.8719 
 379   0.0000       4.041972       109.9876 
 380   0.0000       4.051848       110.2564 
 381   0.0000       4.157240       113.1242 
 382   0.0000       4.162312       113.2623 
 383   0.0000       4.181821       113.7931 
 384   0.0000       4.351747       118.4171 
 385   0.0000       4.367873       118.8559 
 386   0.0000       4.377690       119.1230 
 387   0.0000       4.711621       128.2097 
 388   0.0000       4.731783       128.7584 
 389   0.0000       4.762710       129.5999 
 390   0.0000       4.804295       130.7315 
 391   0.0000       4.826634       131.3394 
 392   0.0000       4.845423       131.8507 
 393   0.0000       4.906161       133.5034 
 394   0.0000       4.922422       133.9459 
 395   0.0000       4.936347       134.3248 
 396   0.0000       5.033372       136.9650 
 397   0.0000       5.042552       137.2148 
 398   0.0000       5.053901       137.5236 
 399   0.0000       5.110191       139.0554 
 400   0.0000       5.130688       139.6131 
 401   0.0000       5.139853       139.8625 
 402   0.0000       5.365795       146.0107 
 403   0.0000       5.400135       146.9451 
 404   0.0000       5.404377       147.0606 
 405   0.0000       5.527607       150.4138 
 406   0.0000       5.540259       150.7581 
 407   0.0000       5.564809       151.4262 
 408   0.0000       5.875387       159.8774 
 409   0.0000       5.909758       160.8127 
 410   0.0000       5.952417       161.9735 
 411   0.0000       6.154081       167.4611 
 412   0.0000       6.173149       167.9799 
 413   0.0000       6.196304       168.6100 
 414   0.0000       6.308624       171.6664 
 415   0.0000       6.313198       171.7908 
 416   0.0000       6.345101       172.6590 
 417   0.0000       6.355435       172.9402 
 418   0.0000       6.375209       173.4782 
 419   0.0000       6.383001       173.6903 
 420   0.0000       6.612414       179.9329 
 421   0.0000       6.644956       180.8184 
 422   0.0000       6.659812       181.2227 
 423   0.0000      21.892128       595.7151 
 424   0.0000      21.916134       596.3683 
 425   0.0000      21.935354       596.8913 
 426   0.0000      22.004808       598.7813 
 427   0.0000      22.013665       599.0223 
 428   0.0000      22.024577       599.3192 
 429   0.0000      43.306469      1178.4289 
 430   0.0000      43.341116      1179.3717 
 431   0.0000      43.392061      1180.7580 

                 SPIN DOWN ORBITALS
  NO   OCC          E(Eh)            E(eV) 
   0   1.0000    -257.042781     -6994.4897 
   1   1.0000     -30.764574      -837.1466 
   2   1.0000     -26.599627      -723.8127 
   3   1.0000     -26.598823      -723.7908 
   4   1.0000     -26.594194      -723.6648 
   5   1.0000     -19.797089      -538.7062 
   6   1.0000     -19.782844      -538.3185 
   7   1.0000     -19.768056      -537.9162 
   8   1.0000     -10.740225      -292.2564 
   9   1.0000     -10.731172      -292.0100 
  10   1.0000     -10.720855      -291.7293 
  11   1.0000     -10.622744      -289.0596 
  12   1.0000     -10.614270      -288.8290 
  13   1.0000     -10.606970      -288.6303 
  14   1.0000      -4.060936      -110.5037 
  15   1.0000      -2.811969       -76.5176 
  16   1.0000      -2.803284       -76.2812 
  17   1.0000      -2.802091       -76.2488 
  18   1.0000      -1.593007       -43.3479 
  19   1.0000      -1.582383       -43.0588 
  20   1.0000      -1.573538       -42.8181 
  21   1.0000      -1.220483       -33.2110 
  22   1.0000      -1.212297       -32.9883 
  23   1.0000      -1.204766       -32.7833 
  24   1.0000      -1.098436       -29.8900 
  25   1.0000      -1.089146       -29.6372 
  26   1.0000      -1.082304       -29.4510 
  27   1.0000      -1.067778       -29.0557 
  28   1.0000      -1.054417       -28.6921 
  29   1.0000      -1.046315       -28.4717 
  30   1.0000      -0.976152       -26.5624 
  31   1.0000      -0.967338       -26.3226 
  32   1.0000      -0.959004       -26.0958 
  33   1.0000      -0.922354       -25.0985 
  34   1.0000      -0.914015       -24.8716 
  35   1.0000      -0.907720       -24.7003 
  36   1.0000      -0.878166       -23.8961 
  37   1.0000      -0.872062       -23.7300 
  38   1.0000      -0.864245       -23.5173 
  39   1.0000      -0.808149       -21.9909 
  40   1.0000      -0.802767       -21.8444 
  41   1.0000      -0.795823       -21.6554 
  42   1.0000      -0.792646       -21.5690 
  43   1.0000      -0.790474       -21.5099 
  44   1.0000      -0.788641       -21.4600 
  45   1.0000      -0.779404       -21.2087 
  46   1.0000      -0.768746       -20.9186 
  47   1.0000      -0.765939       -20.8423 
  48   0.0000      -0.708577       -19.2814 
  49   0.0000      -0.673662       -18.3313 
  50   0.0000      -0.664317       -18.0770 
  51   0.0000      -0.643180       -17.5018 
  52   0.0000      -0.640654       -17.4331 
  53   0.0000      -0.496638       -13.5142 
  54   0.0000      -0.437743       -11.9116 
  55   0.0000      -0.409912       -11.1543 
  56   0.0000      -0.406468       -11.0606 
  57   0.0000      -0.361927        -9.8485 
  58   0.0000      -0.345748        -9.4083 
  59   0.0000      -0.340490        -9.2652 
  60   0.0000      -0.329039        -8.9536 
  61   0.0000      -0.319589        -8.6965 
  62   0.0000      -0.310651        -8.4532 
  63   0.0000      -0.301892        -8.2149 
  64   0.0000      -0.290386        -7.9018 
[...]
     31      -0.022006  -0.262132   0.003666   0.000891  -0.000199  -0.002336
     32      -0.045669  -0.538695   0.007421   0.004583  -0.001596  -0.001350
     33      -0.047607  -0.547549   0.004448  -0.005348   0.002508  -0.001094
     34      -0.012519  -0.147033   0.001229  -0.002704   0.001229  -0.001767
     35      -0.036808  -0.426414   0.003423  -0.002817   0.001271  -0.000014
     36       0.000646   0.005685  -0.000033  -0.001090   0.000495  -0.000821
     37       0.001185   0.010396  -0.000021  -0.000081   0.000030  -0.000450
     38       0.002538   0.026531  -0.000329  -0.000632   0.000285  -0.000137
     39      -0.014092  -0.144930   0.001684   0.008296  -0.003662   0.004158
     40      -0.005109  -0.050645   0.000545   0.003594  -0.001628   0.002455
     41      -0.009870  -0.101326   0.001217   0.008590  -0.003931   0.004366
     42      -0.000243   0.007210  -0.000592   0.002804  -0.001365   0.004069
     43      -0.000222   0.011985  -0.000948  -0.001986   0.000909   0.001412
     44       0.000909  -0.000901   0.000581   0.001054  -0.000386  -0.001606
     45       0.006803   0.068874  -0.000697  -0.000726   0.000428  -0.000604
     46      -0.008317  -0.083727   0.000821  -0.000636   0.000475  -0.000092
     47      -0.021036  -0.211536   0.002071  -0.001622   0.000686  -0.000373
     48      -0.002832   0.004599   0.349472   0.002255   0.002194  -0.000384
     49       0.002915  -0.005012  -0.385408  -0.003627  -0.002470   0.003330
     50       0.003976  -0.006647  -0.504552  -0.002659  -0.001339   0.001389
     51      -0.000002   0.000043   0.003520   0.000560   0.000430  -0.000573
     52      -0.000185   0.000210   0.010506  -0.000381  -0.000296   0.001027
     53       0.000021   0.000227   0.026273  -0.000664  -0.000524   0.000325
     54       0.000429  -0.002881  -0.343561   0.001972   0.001972   0.001984
     55       0.000020  -0.000923  -0.120988   0.000313   0.000090   0.002041
     56       0.000715  -0.004107  -0.494750   0.003595   0.001908   0.000884
     57       0.000294  -0.001365  -0.125088   0.000248   0.000138  -0.000703
     58       0.000101  -0.000326  -0.028925  -0.000180  -0.000395   0.000018
     59       0.000442  -0.002139  -0.194121  -0.000551  -0.000279   0.000068
     60      -0.000146   0.000813   0.085404  -0.003559  -0.002787   0.002490
     61       0.000298  -0.001107  -0.109005   0.004959   0.003825  -0.004907
     62       0.000197  -0.001106  -0.117008   0.007106   0.005619  -0.005978
     63      -0.000181   0.000115  -0.000454  -0.001864  -0.001467   0.003477
     64       0.001535  -0.000885   0.013168  -0.000744  -0.000168  -0.004065
     65      -0.000812   0.000537   0.000214   0.001447   0.000872   0.001230
     66      -0.237621   0.021006  -0.001970   0.000163  -0.002796  -0.000443
     67      -0.481532   0.042653  -0.003805   0.000642  -0.003654   0.001413
     68      -0.238081   0.021240  -0.001888   0.000350  -0.001349   0.001783
     69      -0.379127   0.033427  -0.001380  -0.000300   0.002160   0.000262
     70       0.143123  -0.012528   0.000487   0.000226  -0.001691  -0.000514
     71      -0.589213   0.051881  -0.002172  -0.000424   0.006743   0.003845
     72       0.019989  -0.001603   0.000272  -0.000066   0.000786   0.000212
     73       0.016266  -0.001289   0.000181  -0.000001  -0.000384  -0.000400
     74       0.022531  -0.001619   0.000063   0.000029   0.000981   0.001064
     75      -0.095023   0.007311  -0.000791   0.000247  -0.006757  -0.003918
     76       0.043814  -0.003407   0.000359  -0.000044   0.000957   0.000381
     77      -0.179892   0.013673  -0.001356   0.000257  -0.010641  -0.007347
     78      -0.009456   0.001609  -0.001293   0.000413  -0.002618   0.000851
     79      -0.001809   0.000566  -0.000510   0.000192   0.001691   0.003109
     80       0.017588  -0.002189   0.001222  -0.000374  -0.000451  -0.002952
     81      -0.132553   0.010092  -0.001082  -0.000020   0.000373   0.000046
     82      -0.232637   0.017823  -0.001894  -0.000067  -0.000351  -0.000694
     83      -0.104291   0.007945  -0.000835  -0.000114   0.000400  -0.000114


-----------
IR SPECTRUM
-----------

 Mode   freq       eps      Int      T**2         TX        TY        TZ
       cm**-1   L/(mol*cm) km/mol    a.u.
----------------------------------------------------------------------------
  6:     24.68   0.000046    0.23  0.000587  ( 0.007420  0.018123 -0.014257)
  7:     27.03   0.000112    0.57  0.001293  ( 0.008671  0.032887 -0.011689)
  8:     30.84   0.000029    0.14  0.000288  ( 0.012569  0.011054  0.002878)
  9:     33.59   0.000037    0.19  0.000346  ( 0.002769 -0.004854 -0.017750)
 10:     36.98   0.000030    0.15  0.000254  (-0.008332 -0.005503  0.012407)
 11:     43.54   0.000013    0.07  0.000095  (-0.004797 -0.002364  0.008119)
 12:     59.13   0.000270    1.37  0.001426  ( 0.018276  0.032958 -0.002457)
 13:     79.70   0.000203    1.03  0.000795  ( 0.023835  0.014394 -0.004428)
 14:     92.83   0.000165    0.83  0.000555  (-0.004057 -0.009822  0.021018)
 15:    133.66   0.008738   44.16  0.020401  ( 0.035932  0.120578 -0.067606)
 16:    138.22   0.004128   20.86  0.009321  (-0.089341  0.018579  0.031532)
 17:    176.56   0.006023   30.44  0.010645  (-0.060920 -0.058769  0.058990)
 18:    220.91   0.012526   63.30  0.017695  ( 0.038830  0.106448 -0.069684)
 19:    228.53   0.021467  108.49  0.029314  (-0.051011 -0.136067  0.090543)
 20:    263.05   0.003792   19.16  0.004499  ( 0.053726 -0.035911 -0.017971)
 21:    278.68   0.000505    2.55  0.000565  ( 0.003229  0.000361  0.023554)
 22:    282.31   0.001094    5.53  0.001209  ( 0.016610 -0.001714  0.030495)
 23:    283.96   0.000589    2.97  0.000647  ( 0.022984 -0.010550 -0.002692)
 24:    412.17   0.057445  290.30  0.043493  ( 0.108641  0.154289 -0.088796)
 25:    428.62   0.044795  226.38  0.032614  (-0.041937  0.173244  0.029011)
 26:    442.48   0.026313  132.97  0.018557  (-0.065637  0.098799 -0.066992)
 27:    456.07   0.038166  192.87  0.026115  ( 0.034148 -0.081712 -0.135173)
 28:    464.85   0.021498  108.64  0.014432  (-0.064054 -0.022943 -0.099010)
 29:    495.22   0.035000  176.87  0.022055  ( 0.125856  0.051460 -0.059728)
 30:    539.36   0.000193    0.98  0.000112  ( 0.005858  0.008554  0.002067)
 31:    582.59   0.023530  118.91  0.012604  ( 0.039282  0.078670 -0.069797)
 32:    601.72   0.021254  107.41  0.011023  ( 0.091154 -0.052030 -0.002535)
 33:    805.86   0.000900    4.55  0.000348  ( 0.015605  0.006538 -0.007884)
 34:    807.17   0.001405    7.10  0.000543  ( 0.002595  0.004793 -0.022657)
 35:    808.04   0.001644    8.31  0.000635  (-0.019262  0.002120 -0.016106)
 36:    887.97   0.022781  115.13  0.008006  ( 0.025432  0.073500 -0.044238)
 37:    899.68   0.008294   41.91  0.002877  ( 0.011491 -0.050305  0.014639)
 38:    905.11   0.013746   69.47  0.004739  (-0.055988 -0.009641  0.038881)
 39:   1048.18   0.013164   66.53  0.003919  (-0.009735 -0.061804  0.002187)
 40:   1062.93   0.006350   32.09  0.001864  ( 0.030837 -0.009754 -0.028604)
 41:   1066.26   0.006592   33.31  0.001929  (-0.026013 -0.027779  0.021930)
 42:   1093.26   0.006430   32.50  0.001835  ( 0.002138 -0.011915  0.041096)
 43:   1095.01   0.000389    1.96  0.000111  (-0.005176  0.003928  0.008278)
 44:   1100.85   0.002005   10.13  0.000568  (-0.017105 -0.015827 -0.005026)
 45:   1206.78   0.011405   57.63  0.002949  (-0.012084 -0.043866  0.029646)
 46:   1225.00   0.001294    6.54  0.000330  (-0.008379  0.015744 -0.003418)
 47:   1228.93   0.002963   14.97  0.000752  ( 0.023450  0.000677 -0.014214)
 48:   1250.19   0.001835    9.27  0.000458  (-0.006302 -0.010002  0.017839)
 49:   1253.02   0.001616    8.17  0.000402  (-0.001790 -0.011760  0.016155)
 50:   1260.83   0.003739   18.90  0.000926  ( 0.030420 -0.000212 -0.000340)
 51:   1329.96   0.030529  154.28  0.007163  (-0.039196 -0.060538  0.044295)
 52:   1338.50   0.025578  129.26  0.005963  ( 0.056204 -0.052102  0.009474)
 53:   1346.03   0.011624   58.74  0.002695  (-0.046301  0.001247  0.023441)
 54:   1364.96   0.000947    4.78  0.000216  ( 0.012338  0.007947 -0.001041)
 55:   1370.19   0.001762    8.91  0.000401  ( 0.013229 -0.015038  0.000480)
 56:   1373.97   0.000788    3.98  0.000179  ( 0.004266 -0.012555 -0.001796)
 57:   1408.08   0.006325   31.96  0.001402  ( 0.005305 -0.007597 -0.036275)
 58:   1416.37   0.004899   24.76  0.001079  (-0.011401 -0.003862 -0.030568)
 59:   1418.93   0.006144   31.05  0.001351  (-0.026713 -0.009194 -0.023519)
 60:   1461.86   0.001025    5.18  0.000219  (-0.014412  0.003284 -0.000608)
 61:   1464.46   0.001874    9.47  0.000399  ( 0.013647 -0.013571  0.005386)
 62:   1466.57   0.002790   14.10  0.000594  (-0.011536 -0.016328  0.013928)
 63:   1477.38   0.001486    7.51  0.000314  (-0.005514  0.016003 -0.005241)
 64:   1480.22   0.000631    3.19  0.000133  (-0.010517  0.000518  0.004700)
 65:   1481.39   0.001498    7.57  0.000316  (-0.017578  0.002519  0.000423)
 66:   2985.58   0.061307  309.82  0.006408  (-0.041050 -0.056566  0.039029)
 67:   3000.11   0.044901  226.91  0.004670  ( 0.022144 -0.061244  0.020719)
 68:   3006.67   0.034978  176.77  0.003630  (-0.052710  0.010262  0.027328)
 69:   3086.32   0.000955    4.83  0.000097  (-0.007177  0.004487 -0.004996)
 70:   3086.73   0.002014   10.18  0.000204  ( 0.013392 -0.003092 -0.003830)
 71:   3087.05   0.000820    4.15  0.000083  (-0.006986  0.003243 -0.004858)
 72:   3100.66   0.014212   71.82  0.001430  ( 0.035800 -0.009880 -0.007148)
 73:   3102.78   0.024767  125.16  0.002491  (-0.011021 -0.038334  0.030000)
 74:   3105.34   0.003112   15.73  0.000313  (-0.007175 -0.010325  0.012434)
 75:   3153.66   0.000356    1.80  0.000035  ( 0.001024 -0.001645  0.005607)
 76:   3154.78   0.000195    0.98  0.000019  (-0.004367 -0.000136 -0.000414)
 77:   3157.25   0.000366    1.85  0.000036  ( 0.001126  0.000897 -0.005837)
 78:   3188.37   0.002338   11.82  0.000229  (-0.014034 -0.004500 -0.003417)
 79:   3192.76   0.001527    7.72  0.000149  (-0.001171  0.001933 -0.012005)
 80:   3196.73   0.002310   11.67  0.000226  ( 0.000880  0.001325 -0.014933)
 81:   3635.47   0.046081  232.88  0.003956  (-0.010075  0.036620 -0.050130)
 82:   3642.80   0.157368  795.27  0.013481  ( 0.105851 -0.046869  0.008944)
 83:   3652.19   0.031773  160.57  0.002715  (-0.039675 -0.004368  0.033491)

* The epsilon (eps) is given for a Dirac delta lineshape.
** The dipole moment derivative (T) already includes vibrational overlap.

The first frequency considered to be a vibration is 6
The total number of vibrations considered is 78


--------------------------
THERMOCHEMISTRY AT 298.15K
--------------------------

Temperature         ... 298.15 K
Pressure            ... 1.00 atm
Total Mass          ... 194.06 AMU

Throughout the following assumptions are being made:
  (1) The electronic state is orbitally nondegenerate
      but the spin degeneracy is treated
  (2) There are no thermally accessible electronically excited states
  (3) Hindered rotations indicated by low frequency modes are not
      treated as such but are treated as vibrations and this may
      cause some error
  (4) All equations used are the standard statistical mechanics
      equations for an ideal gas
  (5) All vibrations are strictly harmonic

freq.      24.68  E(vib)   ...       0.56 
freq.      27.03  E(vib)   ...       0.55 
freq.      30.84  E(vib)   ...       0.55 
freq.      33.59  E(vib)   ...       0.55 
freq.      36.98  E(vib)   ...       0.54 
freq.      43.54  E(vib)   ...       0.53 
freq.      59.13  E(vib)   ...       0.51 
freq.      79.70  E(vib)   ...       0.49 
freq.      92.83  E(vib)   ...       0.47 
freq.     133.66  E(vib)   ...       0.42 
freq.     138.22  E(vib)   ...       0.42 
freq.     176.56  E(vib)   ...       0.38 
freq.     220.91  E(vib)   ...       0.33 
freq.     228.53  E(vib)   ...       0.32 
freq.     263.05  E(vib)   ...       0.29 
freq.     278.68  E(vib)   ...       0.28 
freq.     282.31  E(vib)   ...       0.28 
freq.     283.96  E(vib)   ...       0.28 
freq.     412.17  E(vib)   ...       0.19 
freq.     428.62  E(vib)   ...       0.18 
freq.     442.48  E(vib)   ...       0.17 
freq.     456.07  E(vib)   ...       0.16 
freq.     464.85  E(vib)   ...       0.16 
freq.     495.22  E(vib)   ...       0.14 
freq.     539.36  E(vib)   ...       0.12 
freq.     582.59  E(vib)   ...       0.11 
freq.     601.72  E(vib)   ...       0.10 
freq.     805.86  E(vib)   ...       0.05 
freq.     807.17  E(vib)   ...       0.05 
freq.     808.04  E(vib)   ...       0.05 
freq.     887.97  E(vib)   ...       0.04 
freq.     899.68  E(vib)   ...       0.03 
freq.     905.11  E(vib)   ...       0.03 
freq.    1048.18  E(vib)   ...       0.02 
freq.    1062.93  E(vib)   ...       0.02 
freq.    1066.26  E(vib)   ...       0.02 
freq.    1093.26  E(vib)   ...       0.02 
freq.    1095.01  E(vib)   ...       0.02 
freq.    1100.85  E(vib)   ...       0.02 
freq.    1206.78  E(vib)   ...       0.01 
freq.    1225.00  E(vib)   ...       0.01 
freq.    1228.93  E(vib)   ...       0.01 
freq.    1250.19  E(vib)   ...       0.01 
freq.    1253.02  E(vib)   ...       0.01 
freq.    1260.83  E(vib)   ...       0.01 
freq.    1329.96  E(vib)   ...       0.01 
freq.    1338.50  E(vib)   ...       0.01 
freq.    1346.03  E(vib)   ...       0.01 
freq.    1364.96  E(vib)   ...       0.01 
freq.    1370.19  E(vib)   ...       0.01 
freq.    1373.97  E(vib)   ...       0.01 
freq.    1408.08  E(vib)   ...       0.00 
freq.    1416.37  E(vib)   ...       0.00 
freq.    1418.93  E(vib)   ...       0.00 
freq.    1461.86  E(vib)   ...       0.00 
freq.    1464.46  E(vib)   ...       0.00 
freq.    1466.57  E(vib)   ...       0.00 
freq.    1477.38  E(vib)   ...       0.00 
freq.    1480.22  E(vib)   ...       0.00 
freq.    1481.39  E(vib)   ...       0.00 
freq.    2985.58  E(vib)   ...       0.00 
freq.    3000.11  E(vib)   ...       0.00 
freq.    3006.67  E(vib)   ...       0.00 
freq.    3086.32  E(vib)   ...       0.00 
freq.    3086.73  E(vib)   ...       0.00 
freq.    3087.05  E(vib)   ...       0.00 
freq.    3100.66  E(vib)   ...       0.00 
freq.    3102.78  E(vib)   ...       0.00 
freq.    3105.34  E(vib)   ...       0.00 
freq.    3153.66  E(vib)   ...       0.00 
freq.    3154.78  E(vib)   ...       0.00 
freq.    3157.25  E(vib)   ...       0.00 
freq.    3188.37  E(vib)   ...       0.00 
freq.    3192.76  E(vib)   ...       0.00 
freq.    3196.73  E(vib)   ...       0.00 
freq.    3635.47  E(vib)   ...       0.00 
freq.    3642.80  E(vib)   ...       0.00 
freq.    3652.19  E(vib)   ...       0.00 

------------
INNER ENERGY
------------

The inner energy is: U= E(el) + E(ZPE) + E(vib) + E(rot) + E(trans)
    E(el)   - is the total energy from the electronic structure calculation
              = E(kin-el) + E(nuc-el) + E(el-el) + E(nuc-nuc)
    E(ZPE)  - the the zero temperature vibrational energy from the frequency calculation
    E(vib)  - the the finite temperature correction to E(ZPE) due to population
              of excited vibrational states
    E(rot)  - is the rotational thermal energy
    E(trans)- is the translational thermal energy

Summary of contributions to the inner energy U:
Electronic energy                ...  -1727.10004681 Eh
Zero point energy                ...      0.23828826 Eh     149.53 kcal/mol
Thermal vibrational correction   ...      0.01521367 Eh       9.55 kcal/mol
Thermal rotational correction    ...      0.00141627 Eh       0.89 kcal/mol
Thermal translational correction ...      0.00141627 Eh       0.89 kcal/mol
-----------------------------------------------------------------------
Total thermal energy                  -1726.84371234 Eh


Summary of corrections to the electronic energy:
(perhaps to be used in another calculation)
Total thermal correction                  0.01804622 Eh      11.32 kcal/mol
Non-thermal (ZPE) correction              0.23828826 Eh     149.53 kcal/mol
-----------------------------------------------------------------------
Total correction                          0.25633448 Eh     160.85 kcal/mol


--------
ENTHALPY
--------

The enthalpy is H = U + kB*T
                kB is Boltzmann's constant
Total free energy                 ...  -1726.84371234 Eh 
Thermal Enthalpy correction       ...      0.00094421 Eh       0.59 kcal/mol
-----------------------------------------------------------------------
Total Enthalpy                    ...  -1726.84276813 Eh


Note: Only C1 symmetry has been detected, increase convergence thresholds 
      if your molecule has a higher symmetry. Symmetry factor of 1.0 is   
      used for the rotational entropy correction. 
 

Note: Rotational entropy computed according to Herzberg 
Infrared and Raman Spectra, Chapter V,1, Van Nostrand Reinhold, 1945 
Point Group:  C1, Symmetry Number:   1  
Rotational constants in cm-1:     0.026147     0.019114     0.011309 

Vibrational entropy computed according to the QRRHO of S. Grimme
Chem.Eur.J. 2012 18 9955


-------
ENTROPY
-------

The entropy contributions are T*S = T*(S(el)+S(vib)+S(rot)+S(trans))
     S(el)   - electronic entropy
     S(vib)  - vibrational entropy
     S(rot)  - rotational entropy
     S(trans)- translational entropy
The entropies will be listed as multiplied by the temperature to get
units of energy

Electronic entropy                ...      0.00169175 Eh      1.06 kcal/mol
Vibrational entropy               ...      0.02864625 Eh     17.98 kcal/mol
Rotational entropy                ...      0.01521535 Eh      9.55 kcal/mol
Translational entropy             ...      0.01981020 Eh     12.43 kcal/mol
-----------------------------------------------------------------------
Final entropy term                ...      0.06536355 Eh     41.02 kcal/mol

In case the symmetry of your molecule has not been determined correctly
or in case you have a reason to use a different symmetry number we print 
out the resulting rotational entropy values for sn=1,12 :
 --------------------------------------------------------
|  sn= 1 | S(rot)=       0.01521535 Eh      9.55 kcal/mol|
|  sn= 2 | S(rot)=       0.01456089 Eh      9.14 kcal/mol|
|  sn= 3 | S(rot)=       0.01417806 Eh      8.90 kcal/mol|
|  sn= 4 | S(rot)=       0.01390643 Eh      8.73 kcal/mol|
|  sn= 5 | S(rot)=       0.01369575 Eh      8.59 kcal/mol|
|  sn= 6 | S(rot)=       0.01352360 Eh      8.49 kcal/mol|
|  sn= 7 | S(rot)=       0.01337806 Eh      8.39 kcal/mol|
|  sn= 8 | S(rot)=       0.01325198 Eh      8.32 kcal/mol|
|  sn= 9 | S(rot)=       0.01314077 Eh      8.25 kcal/mol|
|  sn=10 | S(rot)=       0.01304129 Eh      8.18 kcal/mol|
|  sn=11 | S(rot)=       0.01295130 Eh      8.13 kcal/mol|
|  sn=12 | S(rot)=       0.01286915 Eh      8.08 kcal/mol|
 --------------------------------------------------------


-------------------
GIBBS FREE ENERGY
-------------------

The Gibbs free energy is G = H - T*S

Total enthalpy                    ...  -1726.84276813 Eh 
Total entropy correction          ...     -0.06536355 Eh    -41.02 kcal/mol
-----------------------------------------------------------------------
Final Gibbs free energy         ...  -1726.90813168 Eh

For completeness - the Gibbs free energy minus the electronic energy
G-E(el)                           ...      0.19191514 Eh    120.43 kcal/mol


Timings for individual modules:

Sum of individual times         ...     2309.701 sec (=  38.495 min)
GTO integral calculation        ...       52.198 sec (=   0.870 min)   2.3 %
SCF iterations                  ...     1729.144 sec (=  28.819 min)  74.9 %
SCF Gradient evaluation         ...      283.772 sec (=   4.730 min)  12.3 %
Geometry relaxation             ...        2.635 sec (=   0.044 min)   0.1 %
Analytical frequency calculation...      241.952 sec (=   4.033 min)  10.5 %
                             ****ORCA TERMINATED NORMALLY****
TOTAL RUN TIME: 0 days 0 hours 39 minutes 1 seconds 519 msec
