
                                 *****************
                                 * O   R   C   A *
                                 *****************

                                            #,                                       
                                            ###                                      
                                            ####                                     
                                            #####                                    
                                            ######                                   
                                           ########,                                 
                                     ,,################,,,,,                         
                               ,,#################################,,                 
                          ,,##########################################,,             
                       ,#########################################, ''#####,          
                    ,#############################################,,   '####,        
                  ,##################################################,,,,####,       
                ,###########''''           ''''###############################       
              ,#####''   ,,,,##########,,,,          '''####'''          '####       
            ,##' ,,,,###########################,,,                        '##       
           ' ,,###''''                  '''############,,,                           
         ,,##''                                '''############,,,,        ,,,,,,###''
      ,#''                                            '''#######################'''  
     '                                                          ''''####''''         
             ,#######,   #######,   ,#######,      ##                                
            ,#'     '#,  ##    ##  ,#'     '#,    #''#        ######   ,####,        
            ##       ##  ##   ,#'  ##            #'  '#       #        #'  '#        
            ##       ##  #######   ##           ,######,      #####,   #    #        
            '#,     ,#'  ##    ##  '#,     ,#' ,#      #,         ##   #,  ,#        
             '#######'   ##     ##  '#######'  #'      '#     #####' # '####'        



                  #######################################################
                  #                        -***-                        #
                  #          Department of theory and spectroscopy      #
                  #    Directorship and core code : Frank Neese         #
                  #        Max Planck Institute fuer Kohlenforschung    #
                  #                Kaiser Wilhelm Platz 1               #
                  #                 D-45470 Muelheim/Ruhr               #
                  #                      Germany                        #
                  #                                                     #
                  #                  All rights reserved                #
                  #                        -***-                        #
                  #######################################################


                         Program Version 5.0.2 -  RELEASE  -


 With contributions from (in alphabetic order):
   Daniel Aravena         : Magnetic Suceptibility
   Michael Atanasov       : Ab Initio Ligand Field Theory (pilot matlab implementation)
   Alexander A. Auer      : GIAO ZORA, VPT2 properties, NMR spectrum
   Ute Becker             : Parallelization
   Giovanni Bistoni       : ED, misc. LED, open-shell LED, HFLD
   Martin Brehm           : Molecular dynamics
   Dmytro Bykov           : SCF Hessian
   Vijay G. Chilkuri      : MRCI spin determinant printing, contributions to CSF-ICE
   Dipayan Datta          : RHF DLPNO-CCSD density
   Achintya Kumar Dutta   : EOM-CC, STEOM-CC
   Dmitry Ganyushin       : Spin-Orbit,Spin-Spin,Magnetic field MRCI
   Miquel Garcia          : C-PCM and meta-GGA Hessian, CC/C-PCM, Gaussian charge scheme
   Yang Guo               : DLPNO-NEVPT2, F12-NEVPT2, CIM, IAO-localization
   Andreas Hansen         : Spin unrestricted coupled pair/coupled cluster methods
   Benjamin Helmich-Paris : MC-RPA, TRAH-SCF, COSX integrals
   Lee Huntington         : MR-EOM, pCC
   Robert Izsak           : Overlap fitted RIJCOSX, COSX-SCS-MP3, EOM
   Marcus Kettner         : VPT2
   Christian Kollmar      : KDIIS, OOCD, Brueckner-CCSD(T), CCSD density, CASPT2, CASPT2-K
   Simone Kossmann        : Meta GGA functionals, TD-DFT gradient, OOMP2, MP2 Hessian
   Martin Krupicka        : Initial AUTO-CI
   Lucas Lang             : DCDCAS
   Marvin Lechner         : AUTO-CI (C++ implementation), FIC-MRCC
   Dagmar Lenk            : GEPOL surface, SMD
   Dimitrios Liakos       : Extrapolation schemes; Compound Job, initial MDCI parallelization
   Dimitrios Manganas     : Further ROCIS development; embedding schemes
   Dimitrios Pantazis     : SARC Basis sets
   Anastasios Papadopoulos: AUTO-CI, single reference methods and gradients
   Taras Petrenko         : DFT Hessian,TD-DFT gradient, ASA, ECA, R-Raman, ABS, FL, XAS/XES, NRVS
   Peter Pinski           : DLPNO-MP2, DLPNO-MP2 Gradient
   Christoph Reimann      : Effective Core Potentials
   Marius Retegan         : Local ZFS, SOC
   Christoph Riplinger    : Optimizer, TS searches, QM/MM, DLPNO-CCSD(T), (RO)-DLPNO pert. Triples
   Tobias Risthaus        : Range-separated hybrids, TD-DFT gradient, RPA, STAB
   Michael Roemelt        : Original ROCIS implementation
   Masaaki Saitow         : Open-shell DLPNO-CCSD energy and density
   Barbara Sandhoefer     : DKH picture change effects
   Avijit Sen             : IP-ROCIS
   Kantharuban Sivalingam : CASSCF convergence, NEVPT2, FIC-MRCI
   Bernardo de Souza      : ESD, SOC TD-DFT
   Georgi Stoychev        : AutoAux, RI-MP2 NMR, DLPNO-MP2 response
   Willem Van den Heuvel  : Paramagnetic NMR
   Boris Wezisla          : Elementary symmetry handling
   Frank Wennmohs         : Technical directorship


 We gratefully acknowledge several colleagues who have allowed us to
 interface, adapt or use parts of their codes:
   Stefan Grimme, W. Hujo, H. Kruse, P. Pracht,  : VdW corrections, initial TS optimization,
                  C. Bannwarth, S. Ehlert          DFT functionals, gCP, sTDA/sTD-DF
   Ed Valeev, F. Pavosevic, A. Kumar             : LibInt (2-el integral package), F12 methods
   Garnet Chan, S. Sharma, J. Yang, R. Olivares  : DMRG
   Ulf Ekstrom                                   : XCFun DFT Library
   Mihaly Kallay                                 : mrcc  (arbitrary order and MRCC methods)
   Jiri Pittner, Ondrej Demel                    : Mk-CCSD
   Frank Weinhold                                : gennbo (NPA and NBO analysis)
   Christopher J. Cramer and Donald G. Truhlar   : smd solvation model
   Lars Goerigk                                  : TD-DFT with DH, B97 family of functionals
   V. Asgeirsson, H. Jonsson                     : NEB implementation
   FAccTs GmbH                                   : IRC, NEB, NEB-TS, DLPNO-Multilevel, CI-OPT
                                                   MM, QMMM, 2- and 3-layer-ONIOM, Crystal-QMMM,
                                                   LR-CPCM, SF, NACMEs, symmetry and pop. for TD-DFT,
                                                   nearIR, NL-DFT gradient (VV10), updates on ESD,
                                                   ML-optimized integration grids
   S Lehtola, MJT Oliveira, MAL Marques          : LibXC Library
   Liviu Ungur et al                             : ANISO software


 Your calculation uses the libint2 library for the computation of 2-el integrals
 For citations please refer to: http://libint.valeyev.net

 Your ORCA version has been built with support for libXC version: 5.1.0
 For citations please refer to: https://tddft.org/programs/libxc/

 This ORCA versions uses:
   CBLAS   interface :  Fast vector & matrix operations
   LAPACKE interface :  Fast linear algebra routines
   SCALAPACK package :  Parallel linear algebra routines
   Shared memory     :  Shared parallel matrices
   BLAS/LAPACK       :  OpenBLAS 0.3.15  USE64BITINT DYNAMIC_ARCH NO_AFFINITY Zen SINGLE_THREADED
        Core in use  :  Zen
   Copyright (c) 2011-2014, The OpenBLAS Project


================================================================================

----- Orbital basis set information -----
Your calculation utilizes the basis: def2-TZVP
   F. Weigend and R. Ahlrichs, Phys. Chem. Chem. Phys. 7, 3297 (2005).

----- AuxJ basis set information -----
Your calculation utilizes the auxiliary basis: def2/J
   F. Weigend, Phys. Chem. Chem. Phys. 8, 1057 (2006).

================================================================================
                                        WARNINGS
                       Please study these warnings very carefully!
================================================================================


WARNING: your system is open-shell and RHF/RKS was chosen
  ===> : WILL SWITCH to UHF/UKS


WARNING: Geometry Optimization
  ===> : Switching off AutoStart
         For restart on a previous wavefunction, please use MOREAD

INFO   : the flag for use of the SHARK integral package has been found!

================================================================================
                                       INPUT FILE
================================================================================
NAME = Fe_H2O_6_LowSpin.inp
|  1> ! PBE0 OPT FREQ def2-TZVP
|  2> %pal nprocs 16 end
|  3> %maxcore 3000
|  4> 
|  5> * xyz 3 2
|  6> Fe        -0.56480       -0.17888        0.17143
|  7> O         -2.02799       -0.48345       -1.55265
|  8> O          0.89832        0.12565        1.89551
|  9> O          0.09932        1.80349       -0.74238
| 10> O         -1.22898       -2.16130        1.08524
| 11> O         -2.18474        0.90894        1.35402
| 12> O          1.05508       -1.26674       -1.01116
| 13> H         -1.80316        1.69256        1.77974
| 14> H         -0.45585        2.52043       -0.39787
| 15> H         -2.88461       -0.09058       -1.32296
| 16> H         -1.97237       -2.00619        1.68874
| 17> H          0.45638        0.60483        2.61381
| 18> H          1.89579       -0.79144       -0.92063
| 19> H         -0.57618       -2.54900        1.08524
| 20> H         -3.03762        0.71317        1.10999
| 21> H         -1.38802       -1.03907       -2.18609
| 22> H          0.87312       -1.81437       -1.61639
| 23> H          0.99498        1.61043       -0.97830
| 24> H          1.71932       -0.24973        1.64655
| 25> **                         ****END OF INPUT****
================================================================================

                       *****************************
                       * Geometry Optimization Run *
                       *****************************

Geometry optimization settings:
Update method            Update   .... BFGS
Choice of coordinates    CoordSys .... Z-matrix Internals
Initial Hessian          InHess   .... Almoef's Model

Convergence Tolerances:
Energy Change            TolE     ....  5.0000e-06 Eh
Max. Gradient            TolMAXG  ....  3.0000e-04 Eh/bohr
RMS Gradient             TolRMSG  ....  1.0000e-04 Eh/bohr
Max. Displacement        TolMAXD  ....  4.0000e-03 bohr
RMS Displacement         TolRMSD  ....  2.0000e-03 bohr
Strict Convergence                ....  False
------------------------------------------------------------------------------
                        ORCA OPTIMIZATION COORDINATE SETUP
------------------------------------------------------------------------------

The optimization will be done in new redundant internal coordinates
Making redundant internal coordinates   ...  (new redundants) done
Evaluating the initial hessian          ...  (Almloef) done
Evaluating the coordinates              ...  done
Calculating the B-matrix                .... done
Calculating the G-matrix                .... done
Diagonalizing the G-matrix              .... done
The first mode is                       ....   57
The number of degrees of freedom        ....   51

    -----------------------------------------------------------------
                    Redundant Internal Coordinates


    -----------------------------------------------------------------
         Definition                    Initial Value    Approx d2E/dq
    -----------------------------------------------------------------
      1. B(O   1,Fe  0)                  2.2817         0.213971   
      2. B(O   2,Fe  0)                  2.2816         0.214011   
      3. B(O   3,Fe  0)                  2.2816         0.214013   
      4. B(O   4,Fe  0)                  2.2817         0.213965   
      5. B(O   5,Fe  0)                  2.2817         0.213982   
      6. B(O   6,Fe  0)                  2.2817         0.214000   
      7. B(H   7,O   5)                  0.9700         0.501200   
      8. B(H   8,O   3)                  0.9700         0.501198   
      9. B(H   9,O   1)                  0.9700         0.501199   
     10. B(H  10,O   4)                  0.9700         0.501201   
     11. B(H  11,O   2)                  0.9700         0.501221   
     12. B(H  12,O   6)                  0.9700         0.501202   
     13. B(H  13,O   4)                  0.7592         1.087056   
     14. B(H  14,O   5)                  0.9084         0.628365   
     15. B(H  15,O   1)                  1.0581         0.362656   
     16. B(H  16,O   6)                  0.8362         0.819227   
     17. B(H  17,O   3)                  0.9461         0.547162   
     18. B(H  18,O   2)                  0.9364         0.566950   
     19. A(O   2,Fe  0,O   6)           90.0010         0.370068   
     20. A(O   3,Fe  0,O   6)           90.0009         0.370069   
     21. A(O   2,Fe  0,O   4)           90.0000         0.370058   
     22. A(O   4,Fe  0,O   5)           89.9991         0.370049   
     23. A(O   2,Fe  0,O   3)           90.0011         0.370072   
     24. A(O   1,Fe  0,O   6)           89.9998         0.370056   
     25. A(O   4,Fe  0,O   6)           89.9995         0.370055   
     26. A(O   1,Fe  0,O   3)           90.0002         0.370060   
     27. A(O   3,Fe  0,O   5)           90.0004         0.370063   
     28. A(O   2,Fe  0,O   5)           90.0001         0.370063   
     29. A(O   1,Fe  0,O   5)           89.9991         0.370051   
     30. A(O   1,Fe  0,O   4)           89.9986         0.370046   
     31. A(H   9,O   1,H  15)          152.6969         0.301823   
     32. A(Fe  0,O   1,H  15)           97.7349         0.324775   
     33. A(Fe  0,O   1,H   9)          109.4709         0.342689   
     34. A(H  11,O   2,H  18)          142.5932         0.324475   
     35. A(Fe  0,O   2,H  18)          107.9273         0.349877   
     36. A(Fe  0,O   2,H  11)          109.4711         0.342702   
     37. A(H   8,O   3,H  17)          141.3704         0.322586   
     38. A(Fe  0,O   3,H   8)          109.4710         0.342700   
     39. A(Fe  0,O   3,H  17)          101.4274         0.347789   
     40. A(H  10,O   4,H  13)          137.7814         0.361852   
     41. A(Fe  0,O   4,H  13)          101.1501         0.391276   
     42. A(Fe  0,O   4,H  10)          109.4708         0.342688   
     43. A(Fe  0,O   5,H   7)          109.4715         0.342692   
     44. A(H   7,O   5,H  14)          131.3995         0.330018   
     45. A(Fe  0,O   5,H  14)          115.1240         0.356013   
     46. A(H  12,O   6,H  16)          125.2412         0.344931   
     47. A(Fe  0,O   6,H  16)          122.1994         0.372540   
     48. A(Fe  0,O   6,H  12)          109.4710         0.342697   
     49. D(H   9,O   1,Fe  0,O   6)    179.9998         0.001747   
     50. D(H   9,O   1,Fe  0,O   3)    -89.9993         0.001747   
     51. D(H   9,O   1,Fe  0,O   5)      0.0011         0.001747   
     52. D(H   9,O   1,Fe  0,O   4)     90.0002         0.001747   
     53. D(H  15,O   1,Fe  0,O   5)   -177.6617         0.001747   
     54. D(H  15,O   1,Fe  0,O   6)      2.3369         0.001747   
     55. D(H  15,O   1,Fe  0,O   4)    -87.6626         0.001747   
     56. D(H  15,O   1,Fe  0,O   3)     92.3379         0.001747   
     57. D(H  18,O   2,Fe  0,O   3)    -89.1935         0.001747   
     58. D(H  18,O   2,Fe  0,O   4)     90.8070         0.001747   
     59. D(H  11,O   2,Fe  0,O   5)     -0.0014         0.001747   
     60. D(H  11,O   2,Fe  0,O   6)    179.9999         0.001747   
     61. D(H  11,O   2,Fe  0,O   4)    -90.0005         0.001747   
     62. D(H  18,O   2,Fe  0,O   5)   -179.1939         0.001747   
     63. D(H  18,O   2,O   1,H   9)   -179.1932         0.001500   
     64. D(H  11,O   2,O   1,H  15)   -177.6628         0.001500   
     65. D(H  11,O   2,O   1,H   9)     -0.0003         0.001500   
     66. D(H  11,O   2,Fe  0,O   3)     89.9990         0.001747   
     67. D(H  18,O   2,O   1,H  15)      3.1443         0.001500   
     68. D(H  18,O   2,Fe  0,O   6)      0.8075         0.001747   
     69. D(H  17,O   3,Fe  0,O   6)    -23.5367         0.001747   
     70. D(H  17,O   3,Fe  0,O   2)     66.4642         0.001747   
     71. D(H  17,O   3,Fe  0,O   1)   -113.5365         0.001747   
     72. D(H   8,O   3,Fe  0,O   6)    179.9998         0.001747   
     73. D(H   8,O   3,Fe  0,O   5)      0.0009         0.001747   
     74. D(H  17,O   3,Fe  0,O   5)    156.4644         0.001747   
     75. D(H   8,O   3,Fe  0,O   2)    -89.9993         0.001747   
     76. D(H   8,O   3,Fe  0,O   1)     90.0000         0.001747   
     77. D(H  10,O   4,Fe  0,O   5)     -0.0015         0.001747   
     78. D(H  10,O   4,Fe  0,O   2)     89.9987         0.001747   
     79. D(H  10,O   4,Fe  0,O   1)    -90.0006         0.001747   
     80. D(H  13,O   4,O   3,H  17)      5.9688         0.001500   
     81. D(H  10,O   4,O   3,H  17)    156.4632         0.001500   
     82. D(H  10,O   4,O   3,H   8)     -0.0006         0.001500   
     83. D(H  13,O   4,Fe  0,O   6)     29.5055         0.001747   
     84. D(H  13,O   4,Fe  0,O   5)   -150.4956         0.001747   
     85. D(H  13,O   4,Fe  0,O   2)    -60.4955         0.001747   
     86. D(H  13,O   4,O   3,H   8)   -150.4950         0.001500   
     87. D(H  13,O   4,Fe  0,O   1)    119.5053         0.001747   
     88. D(H  10,O   4,Fe  0,O   6)    179.9996         0.001747   
     89. D(H  14,O   5,Fe  0,O   4)    -67.0575         0.001747   
     90. D(H  14,O   5,Fe  0,O   2)   -157.0575         0.001747   
     91. D(H  14,O   5,Fe  0,O   1)     22.9411         0.001747   
     92. D(H   7,O   5,Fe  0,O   4)    132.8043         0.001747   
     93. D(H   7,O   5,Fe  0,O   3)    -47.1969         0.001747   
     94. D(H  14,O   5,Fe  0,O   3)    112.9414         0.001747   
     95. D(H   7,O   5,Fe  0,O   2)     42.8043         0.001747   
     96. D(H   7,O   5,Fe  0,O   1)   -137.1971         0.001747   
     97. D(H  16,O   6,O   5,H  14)     -0.9292         0.001500   
     98. D(H  12,O   6,O   5,H  14)    160.1378         0.001500   
     99. D(H  12,O   6,O   5,H   7)     -0.0007         0.001500   
    100. D(H  16,O   6,Fe  0,O   4)     66.1284         0.001747   
    101. D(H  16,O   6,Fe  0,O   3)   -113.8705         0.001747   
    102. D(H  16,O   6,Fe  0,O   2)    156.1284         0.001747   
    103. D(H  16,O   6,Fe  0,O   1)    -23.8703         0.001747   
    104. D(H  12,O   6,Fe  0,O   4)   -132.8049         0.001747   
    105. D(H  12,O   6,Fe  0,O   3)     47.1962         0.001747   
    106. D(H  16,O   6,O   5,H   7)   -161.0677         0.001500   
    107. D(H  12,O   6,Fe  0,O   2)    -42.8049         0.001747   
    108. D(H  12,O   6,Fe  0,O   1)    137.1965         0.001747   
    -----------------------------------------------------------------

Number of atoms                         .... 19
Number of degrees of freedom            .... 108

         *************************************************************
         *                GEOMETRY OPTIMIZATION CYCLE   1            *
         *************************************************************
---------------------------------
CARTESIAN COORDINATES (ANGSTROEM)
---------------------------------
  Fe    -0.564800   -0.178880    0.171430
  O     -2.027990   -0.483450   -1.552650
  O      0.898320    0.125650    1.895510
  O      0.099320    1.803490   -0.742380
  O     -1.228980   -2.161300    1.085240
  O     -2.184740    0.908940    1.354020
  O      1.055080   -1.266740   -1.011160
  H     -1.803160    1.692560    1.779740
  H     -0.455850    2.520430   -0.397870
  H     -2.884610   -0.090580   -1.322960
  H     -1.972370   -2.006190    1.688740
  H      0.456380    0.604830    2.613810
  H      1.895790   -0.791440   -0.920630
  H     -0.576180   -2.549000    1.085240
  H     -3.037620    0.713170    1.109990
  H     -1.388020   -1.039070   -2.186090
  H      0.873120   -1.814370   -1.616390
  H      0.994980    1.610430   -0.978300
  H      1.719320   -0.249730    1.646550

----------------------------
CARTESIAN COORDINATES (A.U.)
----------------------------
  NO LB      ZA    FRAG     MASS         X           Y           Z
   0 Fe   26.0000    0    55.850   -1.067317   -0.338034    0.323956
   1 O     8.0000    0    15.999   -3.832346   -0.913588   -2.934083
   2 O     8.0000    0    15.999    1.697579    0.237444    3.581995
   3 O     8.0000    0    15.999    0.187688    3.408102   -1.402895
   4 O     8.0000    0    15.999   -2.322436   -4.084265    2.050806
   5 O     8.0000    0    15.999   -4.128560    1.717648    2.558727
   6 O     8.0000    0    15.999    1.993812   -2.393792   -1.910815
   7 H     1.0000    0     1.008   -3.407479    3.198475    3.363221
   8 H     1.0000    0     1.008   -0.861432    4.762922   -0.751865
   9 H     1.0000    0     1.008   -5.451123   -0.171171   -2.500032
  10 H     1.0000    0     1.008   -3.727239   -3.791150    3.191256
  11 H     1.0000    0     1.008    0.862433    1.142963    4.939385
  12 H     1.0000    0     1.008    3.582524   -1.495605   -1.739739
  13 H     1.0000    0     1.008   -1.088822   -4.816912    2.050806
  14 H     1.0000    0     1.008   -5.740270    1.347696    2.097577
  15 H     1.0000    0     1.008   -2.622978   -1.963558   -4.131111
  16 H     1.0000    0     1.008    1.649958   -3.428662   -3.054534
  17 H     1.0000    0     1.008    1.880240    3.043272   -1.848719
  18 H     1.0000    0     1.008    3.249044   -0.471921    3.111529

--------------------------------
INTERNAL COORDINATES (ANGSTROEM)
--------------------------------
 Fe     0   0   0     0.000000000000     0.00000000     0.00000000
 O      1   0   0     2.281696672961     0.00000000     0.00000000
 O      1   2   0     2.281646445377   179.99841636     0.00000000
 O      1   2   3     2.281643028039    90.00024905   209.05454097
 O      1   2   4     2.281703934541    89.99861719   179.99952894
 O      1   2   5     2.281682945569    89.99908760   270.00086052
 O      1   2   6     2.281659418515    89.99981213   179.99868875
 H      6   1   2     0.970000576907   109.47145202   222.80287634
 H      4   1   2     0.970001975565   109.47098493    89.99996753
 H      2   1   4     0.970001112061   109.47089196   270.00069787
 H      5   1   2     0.970000027938   109.47080819   269.99941999
 H      3   1   4     0.969989343240   109.47110671    89.99901811
 H      7   1   2     0.969999523196   109.47103945   137.19645540
 H      5   1   2     0.759249056634   101.15008919   119.50528215
 H      6   1   2     0.908449683912   115.12400620    22.94112923
 H      2   1   4     1.058074391950    97.73493351    92.33786806
 H      7   1   2     0.836248414886   122.19944150   336.12974230
 H      4   1   2     0.946116930194   101.42741044   246.46345717
 H      3   1   4     0.936446595381   107.92732629   270.80653791

---------------------------
INTERNAL COORDINATES (A.U.)
---------------------------
 Fe     0   0   0     0.000000000000     0.00000000     0.00000000
 O      1   0   0     4.311781832575     0.00000000     0.00000000
 O      1   2   0     4.311686916197   179.99841636     0.00000000
 O      1   2   3     4.311680458365    90.00024905   209.05454097
 O      1   2   4     4.311795554973    89.99861719   179.99952894
 O      1   2   5     4.311755891564    89.99908760   270.00086052
 O      1   2   6     4.311711431876    89.99981213   179.99868875
 H      6   1   2     1.833035440100   109.47145202   222.80287634
 H      4   1   2     1.833038083180   109.47098493    89.99996753
 H      2   1   4     1.833036451395   109.47089196   270.00069787
 H      5   1   2     1.833034402699   109.47080819   269.99941999
 H      3   1   4     1.833014211547   109.47110671    89.99901811
 H      7   1   2     1.833033448874   109.47103945   137.19645540
 H      5   1   2     1.434772784477   101.15008919   119.50528215
 H      6   1   2     1.716721109041   115.12400620    22.94112923
 H      2   1   4     1.999470830100    97.73493351    92.33786806
 H      7   1   2     1.580280484061   122.19944150   336.12974230
 H      4   1   2     1.787901888733   101.42741044   246.46345717
 H      3   1   4     1.769627604312   107.92732629   270.80653791

---------------------
BASIS SET INFORMATION
---------------------
There are 3 groups of distinct atoms

 Group   1 Type Fe  : 17s11p7d1f contracted to 6s4p4d1f pattern {842111/6311/4111/1}
 Group   2 Type O   : 11s6p2d1f contracted to 5s3p2d1f pattern {62111/411/11/1}
 Group   3 Type H   : 5s1p contracted to 3s1p pattern {311/1}

Atom   0Fe   basis set group =>   1
Atom   1O    basis set group =>   2
Atom   2O    basis set group =>   2
Atom   3O    basis set group =>   2
Atom   4O    basis set group =>   2
Atom   5O    basis set group =>   2
Atom   6O    basis set group =>   2
Atom   7H    basis set group =>   3
Atom   8H    basis set group =>   3
Atom   9H    basis set group =>   3
Atom  10H    basis set group =>   3
Atom  11H    basis set group =>   3
Atom  12H    basis set group =>   3
Atom  13H    basis set group =>   3
Atom  14H    basis set group =>   3
Atom  15H    basis set group =>   3
Atom  16H    basis set group =>   3
Atom  17H    basis set group =>   3
Atom  18H    basis set group =>   3
---------------------------------
AUXILIARY/J BASIS SET INFORMATION
---------------------------------
There are 3 groups of distinct atoms

 Group   1 Type Fe  : 19s5p5d3f3g contracted to 8s5p5d2f3g pattern {121111111/11111/11111/21/111}
 Group   2 Type O   : 12s5p4d2f1g contracted to 6s4p3d1f1g pattern {711111/2111/211/2/1}
 Group   3 Type H   : 5s2p1d contracted to 3s1p1d pattern {311/2/1}

Atom   0Fe   basis set group =>   1
Atom   1O    basis set group =>   2
Atom   2O    basis set group =>   2
Atom   3O    basis set group =>   2
Atom   4O    basis set group =>   2
Atom   5O    basis set group =>   2
Atom   6O    basis set group =>   2
Atom   7H    basis set group =>   3
Atom   8H    basis set group =>   3
Atom   9H    basis set group =>   3
Atom  10H    basis set group =>   3
Atom  11H    basis set group =>   3
Atom  12H    basis set group =>   3
Atom  13H    basis set group =>   3
Atom  14H    basis set group =>   3
Atom  15H    basis set group =>   3
Atom  16H    basis set group =>   3
Atom  17H    basis set group =>   3
Atom  18H    basis set group =>   3


           ************************************************************
           *        Program running with 16 parallel MPI-processes    *
           *              working on a common directory               *
           ************************************************************
------------------------------------------------------------------------------
                           ORCA GTO INTEGRAL CALCULATION
                           -- RI-GTO INTEGRALS CHOSEN --
------------------------------------------------------------------------------
------------------------------------------------------------------------------
                   ___                                                        
                  /   \      - P O W E R E D   B Y -                         
                 /     \                                                     
                 |  |  |   _    _      __       _____    __    __             
                 |  |  |  | |  | |    /  \     |  _  \  |  |  /  |          
                  \  \/   | |  | |   /    \    | | | |  |  | /  /          
                 / \  \   | |__| |  /  /\  \   | |_| |  |  |/  /          
                |  |  |   |  __  | /  /__\  \  |    /   |      \           
                |  |  |   | |  | | |   __   |  |    \   |  |\   \          
                \     /   | |  | | |  |  |  |  | |\  \  |  | \   \       
                 \___/    |_|  |_| |__|  |__|  |_| \__\ |__|  \__/        
                                                                              
                      - O R C A' S   B I G   F R I E N D -                    
                                      &                                       
                       - I N T E G R A L  F E E D E R -                       
                                                                              
 v1 FN, 2020, v2 2021                                                         
------------------------------------------------------------------------------


Reading SHARK input file Fe_H2O_6_LowSpin.SHARKINP.tmp ... ok
----------------------
SHARK INTEGRAL PACKAGE
----------------------

Number of atoms                             ...     19
Number of basis functions                   ...    303
Number of shells                            ...    129
Maximum angular momentum                    ...      3
Integral batch strategy                     ... SHARK/LIBINT Hybrid
RI-J (if used) integral strategy            ... SPLIT-RIJ (Revised 2003 algorithm where possible)
Printlevel                                  ...      1
Contraction scheme used                     ... SEGMENTED contraction
Coulomb Range Separation                    ... NOT USED
Exchange Range Separation                   ... NOT USED
Finite Nucleus Model                        ... NOT USED
Auxiliary Coulomb fitting basis             ... AVAILABLE
   # of basis functions in Aux-J            ...    515
   # of shells in Aux-J                     ...    173
   Maximum angular momentum in Aux-J        ...      4
Auxiliary J/K fitting basis                 ... NOT available
Auxiliary Correlation fitting basis         ... NOT available
Auxiliary 'external' fitting basis          ... NOT available
Integral threshold                          ...     2.500000e-11
Primitive cut-off                           ...     2.500000e-12
Primitive pair pre-selection threshold      ...     2.500000e-12

Calculating pre-screening integrals         ... done (  0.0 sec) Dimension = 129
Organizing shell pair data                  ... done (  0.1 sec)
Shell pair information
Total number of shell pairs                 ...      8385
Shell pairs after pre-screening             ...      7199
Total number of primitive shell pairs       ...     26333
Primitive shell pairs kept                  ...     15708
          la=0 lb=0:   2191 shell pairs
          la=1 lb=0:   2131 shell pairs
          la=1 lb=1:    552 shell pairs
          la=2 lb=0:    982 shell pairs
          la=2 lb=1:    468 shell pairs
          la=2 lb=2:    115 shell pairs
          la=3 lb=0:    409 shell pairs
          la=3 lb=1:    220 shell pairs
          la=3 lb=2:    106 shell pairs
          la=3 lb=3:     25 shell pairs

Calculating one electron integrals          ... done (  0.0 sec)
Calculating RI/J V-Matrix + Cholesky decomp.... done (  0.0 sec)
Calculating Nuclear repulsion               ... done (  0.0 sec) ENN=    631.320992387018 Eh

SHARK setup successfully completed in   0.3 seconds

Maximum memory used throughout the entire GTOINT-calculation: 23.9 MB


           ************************************************************
           *        Program running with 16 parallel MPI-processes    *
           *              working on a common directory               *
           ************************************************************
-------------------------------------------------------------------------------
                                 ORCA SCF
-------------------------------------------------------------------------------

------------
SCF SETTINGS
------------
Hamiltonian:
 Density Functional     Method          .... DFT(GTOs)
 Exchange Functional    Exchange        .... PBE
   PBE kappa parameter   XKappa         ....  0.804000
   PBE mue parameter    XMuePBE         ....  0.219520
 Correlation Functional Correlation     .... PBE
   PBE beta parameter  CBetaPBE         ....  0.066725
 LDA part of GGA corr.  LDAOpt          .... PW91-LDA
 Gradients option       PostSCFGGA      .... off
 Hybrid DFT is turned on
   Fraction HF Exchange ScalHFX         ....  0.250000
   Scaling of DF-GGA-X  ScalDFX         ....  0.750000
   Scaling of DF-GGA-C  ScalDFC         ....  1.000000
   Scaling of DF-LDA-C  ScalLDAC        ....  1.000000
   Perturbative correction              ....  0.000000
   Density functional embedding theory  .... OFF
   NL short-range parameter             ....  6.900000
 RI-approximation to the Coulomb term is turned on
   Number of AuxJ basis functions       .... 515
   RIJ-COSX (HFX calculated with COS-X)).... on


General Settings:
 Integral files         IntName         .... Fe_H2O_6_LowSpin
 Hartree-Fock type      HFTyp           .... UHF
 Total Charge           Charge          ....    3
 Multiplicity           Mult            ....    2
 Number of Electrons    NEL             ....   83
 Basis Dimension        Dim             ....  303
 Nuclear Repulsion      ENuc            ....    631.3209923870 Eh

Convergence Acceleration:
 DIIS                   CNVDIIS         .... on
   Start iteration      DIISMaxIt       ....    12
   Startup error        DIISStart       ....  0.200000
   # of expansion vecs  DIISMaxEq       ....     5
   Bias factor          DIISBfac        ....   1.050
   Max. coefficient     DIISMaxC        ....  10.000
 Trust-Rad. Augm. Hess. CNVTRAH         .... auto
   Auto Start mean grad. ratio tolernc. ....  1.125000
   Auto Start start iteration           ....    20
   Auto Start num. interpolation iter.  ....    10
   Max. Number of Micro iterations      ....    16
   Max. Number of Macro iterations      .... Maxiter - #DIIS iter
   Number of Davidson start vectors     ....     2
   Converg. threshold I  (grad. norm)   ....   1.000e-05
   Converg. threshold II (energy diff.) ....   1.000e-08
   Grad. Scal. Fac. for Micro threshold ....   0.100
   Minimum threshold for Micro iter.    ....   0.010
   NR start threshold (gradient norm)   ....   0.001
   Initial trust radius                 ....   0.400
   Minimum AH scaling param. (alpha)    ....   1.000
   Maximum AH scaling param. (alpha)    .... 1000.000
   Orbital update algorithm             .... Taylor
   White noise on init. David. guess    .... on
   Maximum white noise                  ....   0.010
   Quad. conv. algorithm                .... NR
 SOSCF                  CNVSOSCF        .... off
 Level Shifting         CNVShift        .... on
   Level shift para.    LevelShift      ....    0.2500
   Turn off err/grad.   ShiftErr        ....    0.0010
 Zerner damping         CNVZerner       .... off
 Static damping         CNVDamp         .... on
   Fraction old density DampFac         ....    0.7000
   Max. Damping (<1)    DampMax         ....    0.9800
   Min. Damping (>=0)   DampMin         ....    0.0000
   Turn off err/grad.   DampErr         ....    0.1000
 Fernandez-Rico         CNVRico         .... off

SCF Procedure:
 Maximum # iterations   MaxIter         ....   125
 SCF integral mode      SCFMode         .... Direct
   Integral package                     .... SHARK and LIBINT hybrid scheme
 Reset frequency        DirectResetFreq ....    20
 Integral Threshold     Thresh          ....  2.500e-11 Eh
 Primitive CutOff       TCut            ....  2.500e-12 Eh

Convergence Tolerance:
 Convergence Check Mode ConvCheckMode   .... Total+1el-Energy
 Convergence forced     ConvForced      .... 0
 Energy Change          TolE            ....  1.000e-08 Eh
 1-El. energy change                    ....  1.000e-05 Eh
 DIIS Error             TolErr          ....  5.000e-07


Diagonalization of the overlap matrix:
Smallest eigenvalue                        ... 2.099e-03
Time for diagonalization                   ...    0.010 sec
Threshold for overlap eigenvalues          ... 1.000e-08
Number of eigenvalues below threshold      ... 0
Time for construction of square roots      ...    0.012 sec
Total time needed                          ...    0.022 sec

Time for model grid setup =    0.101 sec

------------------------------
INITIAL GUESS: MODEL POTENTIAL
------------------------------
Loading Hartree-Fock densities                     ... done
Calculating cut-offs                               ... done
Initializing the effective Hamiltonian             ... done
Setting up the integral package (SHARK)            ... done
Starting the Coulomb interaction                   ... done (   0.0 sec)
Reading the grid                                   ... done
Mapping shells                                     ... done
Starting the XC term evaluation                    ... done (   0.0 sec)
  promolecular density results
     # of electrons  =     85.997284327
     EX              =   -106.719755212
     EC              =     -3.116050480
     EX+EC           =   -109.835805693
Transforming the Hamiltonian                       ... done (   0.0 sec)
Diagonalizing the Hamiltonian                      ... done (   0.0 sec)
Back transforming the eigenvectors                 ... done (   0.0 sec)
Now organizing SCF variables                       ... done
                      ------------------
                      INITIAL GUESS DONE (   0.2 sec)
                      ------------------
-------------------
DFT GRID GENERATION
-------------------

General Integration Accuracy     IntAcc      ... 4.388
Radial Grid Type                 RadialGrid  ... OptM3 with GC (2021)
Angular Grid (max. ang.)         AngularGrid ... 4 (Lebedev-302)
Angular grid pruning method      GridPruning ... 4 (adaptive)
Weight generation scheme         WeightScheme... Becke
Basis function cutoff            BFCut       ... 1.0000e-11
Integration weight cutoff        WCut        ... 1.0000e-14
Angular grids for H and He will be reduced by one unit
Partially contracted basis set               ... off
Rotationally invariant grid construction     ... off

Total number of grid points                  ...    86558
Total number of batches                      ...     1364
Average number of points per batch           ...       63
Average number of grid points per atom       ...     4556
Time for grid setup =    0.393 sec

--------------------
COSX GRID GENERATION
--------------------

GRIDX 1
-------
General Integration Accuracy     IntAcc      ... 3.816
Radial Grid Type                 RadialGrid  ... OptM3 with GC (2021)
Angular Grid (max. ang.)         AngularGrid ... 1 (Lebedev-50)
Angular grid pruning method      GridPruning ... 4 (adaptive)
Weight generation scheme         WeightScheme... Becke
Basis function cutoff            BFCut       ... 1.0000e-11
Integration weight cutoff        WCut        ... 1.0000e-14
Angular grids for H and He will be reduced by one unit
Partially contracted basis set               ... on
Rotationally invariant grid construction     ... off

Total number of grid points                  ...    10912
Total number of batches                      ...      181
Average number of points per batch           ...       60
Average number of grid points per atom       ...      574
UseSFitting                                  ... on

GRIDX 2
-------
General Integration Accuracy     IntAcc      ... 4.020
Radial Grid Type                 RadialGrid  ... OptM3 with GC (2021)
Angular Grid (max. ang.)         AngularGrid ... 2 (Lebedev-110)
Angular grid pruning method      GridPruning ... 4 (adaptive)
Weight generation scheme         WeightScheme... Becke
Basis function cutoff            BFCut       ... 1.0000e-11
Integration weight cutoff        WCut        ... 1.0000e-14
Angular grids for H and He will be reduced by one unit
Partially contracted basis set               ... on
Rotationally invariant grid construction     ... off

Total number of grid points                  ...    22786
Total number of batches                      ...      367
Average number of points per batch           ...       62
Average number of grid points per atom       ...     1199
UseSFitting                                  ... on

GRIDX 3
-------
General Integration Accuracy     IntAcc      ... 4.338
Radial Grid Type                 RadialGrid  ... OptM3 with GC (2021)
Angular Grid (max. ang.)         AngularGrid ... 3 (Lebedev-194)
Angular grid pruning method      GridPruning ... 4 (adaptive)
Weight generation scheme         WeightScheme... Becke
Basis function cutoff            BFCut       ... 1.0000e-11
Integration weight cutoff        WCut        ... 1.0000e-14
Angular grids for H and He will be reduced by one unit
Partially contracted basis set               ... on
Rotationally invariant grid construction     ... off

Total number of grid points                  ...    49970
Total number of batches                      ...      791
Average number of points per batch           ...       63
Average number of grid points per atom       ...     2630
UseSFitting                                  ... on

Time for X-Grid setup             =    0.300 sec

--------------
SCF ITERATIONS
--------------
ITER       Energy         Delta-E        Max-DP      RMS-DP      [F,P]     Damp
               ***  Starting incremental Fock matrix formation  ***
  0  -1719.5647299989   0.000000000000 0.11959930  0.00130337  0.4120378 0.7000
  1  -1719.5494171275   0.015312871351 0.04184047  0.00052985  0.3402487 0.7000
                               ***Turning on DIIS***
  2  -1719.8785559559  -0.329138828359 0.07469265  0.00078639  0.0606220 0.0000
  3  -1720.0159752083  -0.137419252418 0.00452086  0.00007538  0.3796833 0.7000
  4  -1720.0636402306  -0.047665022318 0.00432589  0.00008139  0.3436976 0.7000
  5  -1720.1106112596  -0.046971029029 0.00375901  0.00007364  0.3066267 0.7000
  6  -1720.1500364881  -0.039425228493 0.00320503  0.00006493  0.2743791 0.7000
  7  -1720.1822426102  -0.032206122086 0.01240527  0.00020384  0.2477986 0.7000
  8  -1720.2597416444  -0.077499034147 0.00946982  0.00014966  0.1616228 0.7000
  9  -1720.2996780293  -0.039936384990 0.02008989  0.00030936  0.0966351 0.0000
 10  -1720.3410962743  -0.041418244980 0.00575037  0.00004580  0.0240083 0.0000
 11  -1720.3423395425  -0.001243268169 0.00221811  0.00002270  0.0095039 0.0000
 12  -1720.3426908662  -0.000351323752 0.00275193  0.00002102  0.0062191 0.0000
 13  -1720.3429184980  -0.000227631796 0.00234370  0.00001999  0.0013448 0.0000
 14  -1720.3430840706  -0.000165572557 0.00235598  0.00001887  0.0011378 0.0000
 15  -1720.3432321266  -0.000148056004 0.00577386  0.00004723  0.0009185 0.0000
               *** Restarting incremental Fock matrix formation ***
                                   *** Resetting DIIS ***
 16  -1720.3435729935  -0.000340866903 0.00537263  0.00003938  0.0009814 0.0000
 17  -1720.3438390767  -0.000266083230 0.00065329  0.00000558  0.0027644 0.0000
 18  -1720.3438864712  -0.000047394471 0.00217596  0.00001862  0.0009943 0.0000
 19  -1720.3440221612  -0.000135689998 0.00010146  0.00000079  0.0010345 0.0000
 20  -1720.3440162742   0.000005887004 0.00005148  0.00000042  0.0010354 0.0000

 WARNING: the maximum gradient error descreased on average only by a factor   1.1
          during the last 20 iterations

                      *** Initiating the TRAH-SCF procedure ***


TRAH GRIDX
----------

General Integration Accuracy     IntAcc      ... 3.067
Radial Grid Type                 RadialGrid  ... OptM3 with GC (2021)
Angular Grid (max. ang.)         AngularGrid ... 1 (Lebedev-50)
Angular grid pruning method      GridPruning ... 4 (adaptive)
Weight generation scheme         WeightScheme... Becke
Basis function cutoff            BFCut       ... 1.0000e-11
Integration weight cutoff        WCut        ... 1.0000e-14
Angular grids for H and He will be reduced by one unit
Partially contracted basis set               ... on
Rotationally invariant grid construction     ... off

Total number of grid points                  ...     5786
Total number of batches                      ...      102
Average number of points per batch           ...       56
Average number of grid points per atom       ...      305


TRAH GRID
---------

General Integration Accuracy     IntAcc      ... 3.467
Radial Grid Type                 RadialGrid  ... OptM3 with GC (2021)
Angular Grid (max. ang.)         AngularGrid ... 1 (Lebedev-50)
Angular grid pruning method      GridPruning ... 4 (adaptive)
Weight generation scheme         WeightScheme... Becke
Basis function cutoff            BFCut       ... 1.0000e-11
Integration weight cutoff        WCut        ... 1.0000e-14
Angular grids for H and He will be reduced by one unit
Partially contracted basis set               ... off
Rotationally invariant grid construction     ... off

Total number of grid points                  ...    14607
Total number of batches                      ...      237
Average number of points per batch           ...       61
Average number of grid points per atom       ...      769

 --------------------------------------------------------------------------------------------
   Iter.        energy            ||Error||_2        Shift      TRadius  Mac/Mic        Rej.
 --------------------------------------------------------------------------------------------
    0      -1720.344013278404     6.999738e-03                     0.400 (TRAH MAcro)   No
    0     dE    -2.522542e-05     1.543994e-02    -2.5225e-05      0.004 (TRAH MIcro)
    0     dE    -4.276547e-03     9.492221e-02    -1.2640e-02      0.400 (TRAH MIcro)
    0     dE    -6.080453e-03     1.679737e-02    -2.3812e-02      0.400 (TRAH MIcro)
    0     dE    -6.717596e-03     3.182371e-02    -2.8062e-02      0.400 (TRAH MIcro)
    0     dE    -4.720486e-03     1.103905e-02    -3.7336e-02      0.291 (TRAH MIcro)
    0     dE    -4.880550e-03     3.183876e-03    -3.7649e-02      0.297 (TRAH MIcro)
    0     dE    -4.914297e-03     2.312453e-03    -3.7702e-02      0.298 (TRAH MIcro)
    0     dE    -4.966910e-03     3.458167e-03    -3.7772e-02      0.300 (TRAH MIcro)
    0     dE    -5.082542e-03     4.495877e-03    -3.7894e-02      0.304 (TRAH MIcro)
    0     dE    -5.323721e-03     5.958696e-03    -3.8075e-02      0.313 (TRAH MIcro)
    0     dE    -5.728095e-03     3.551020e-03    -3.8285e-02      0.329 (TRAH MIcro)
    0     dE    -5.816719e-03     2.179057e-03    -3.8321e-02      0.332 (TRAH MIcro)
    0     dE    -5.880762e-03     1.631669e-03    -3.8345e-02      0.334 (TRAH MIcro)
    0     dE    -5.922557e-03     1.368156e-03    -3.8360e-02      0.336 (TRAH MIcro)
    1      -1720.348593698549     1.814255e-02                     0.480 (TRAH MAcro)   No
    1     dE    -6.362846e-05     2.390775e-02    -6.3628e-05      0.004 (TRAH MIcro)
    1     dE    -7.412308e-04     4.484179e-02    -7.3703e-04      0.075 (TRAH MIcro)
    1     dE    -2.493451e-03     5.825546e-02    -2.3170e-03      0.276 (TRAH MIcro)
    1     dE    -6.628708e-03     4.697633e-02    -1.2682e-02      0.480 (TRAH MIcro)
    1     dE    -7.902153e-03     3.665944e-02    -1.8697e-02      0.480 (TRAH MIcro)
    1     dE    -8.452864e-03     3.571401e-02    -2.7015e-02      0.445 (TRAH MIcro)
    1     dE    -1.030124e-02     3.669845e-02    -3.1587e-02      0.480 (TRAH MIcro)
    1     dE    -1.053830e-02     2.033524e-02    -3.3893e-02      0.476 (TRAH MIcro)
    1     dE    -1.078293e-02     7.511307e-03    -3.4478e-02      0.480 (TRAH MIcro)
    1     dE    -1.082024e-02     7.530572e-03    -3.4706e-02      0.480 (TRAH MIcro)
    1     dE    -1.085387e-02     4.289503e-03    -3.4922e-02      0.480 (TRAH MIcro)
    1     dE    -1.086400e-02     2.911427e-03    -3.4995e-02      0.480 (TRAH MIcro)
    1     dE    -1.086854e-02     1.883051e-03    -3.5030e-02      0.480 (TRAH MIcro)
    1     dE    -1.087193e-02     1.906964e-03    -3.5056e-02      0.480 (TRAH MIcro)
    2      -1720.355271002706     2.640133e-02                     0.480 (TRAH MAcro)   No
    2     dE    -1.130123e-04     3.968565e-02    -1.1301e-04      0.004 (TRAH MIcro)
    2     dE    -3.846921e-04     1.811926e-02    -3.8442e-04      0.027 (TRAH MIcro)
    2     dE    -7.591800e-04     2.828049e-02    -7.5520e-04      0.073 (TRAH MIcro)
    2     dE    -1.099177e-03     2.109694e-02    -1.0814e-03      0.128 (TRAH MIcro)
    2     dE    -1.575151e-03     2.425674e-02    -1.5080e-03      0.211 (TRAH MIcro)
    2     dE    -1.819847e-03     2.044924e-02    -1.7090e-03      0.255 (TRAH MIcro)
    2     dE    -1.964255e-03     1.037083e-02    -1.8203e-03      0.281 (TRAH MIcro)
    2     dE    -2.100581e-03     1.825070e-02    -1.9189e-03      0.308 (TRAH MIcro)
    2     dE    -2.250356e-03     1.422967e-02    -2.0190e-03      0.339 (TRAH MIcro)
    2     dE    -2.397700e-03     1.050724e-02    -2.1087e-03      0.370 (TRAH MIcro)
    2     dE    -2.508504e-03     1.077006e-02    -2.1704e-03      0.395 (TRAH MIcro)
    2     dE    -2.623120e-03     7.725331e-03    -2.2288e-03      0.421 (TRAH MIcro)
    2     dE    -2.780014e-03     1.185513e-02    -2.3001e-03      0.457 (TRAH MIcro)
    2     dE    -2.903982e-03     1.170273e-02    -2.5175e-03      0.480 (TRAH MIcro)
    3      -1720.356587522575     2.240177e-02                     0.480 (TRAH MAcro)   No
    3     dE    -3.458375e-05     7.049988e-02    -3.4584e-05      0.002 (TRAH MIcro)
    3     dE    -2.387723e-04     1.860878e-02    -2.3870e-04      0.018 (TRAH MIcro)
    3     dE    -5.714891e-04     2.690371e-02    -5.6975e-04      0.055 (TRAH MIcro)
    3     dE    -6.607557e-04     1.526704e-02    -6.5748e-04      0.071 (TRAH MIcro)
    3     dE    -7.111583e-04     5.283286e-03    -7.0644e-04      0.082 (TRAH MIcro)
    3     dE    -7.274377e-04     6.442328e-03    -7.2209e-04      0.086 (TRAH MIcro)
    3     dE    -7.430500e-04     3.625211e-03    -7.3691e-04      0.091 (TRAH MIcro)
    3     dE    -7.499085e-04     2.788273e-03    -7.4335e-04      0.094 (TRAH MIcro)
    3     dE    -7.548142e-04     3.374916e-03    -7.4789e-04      0.096 (TRAH MIcro)
    3     dE    -7.601070e-04     2.021575e-03    -7.5267e-04      0.099 (TRAH MIcro)
    4      -1720.357378483973     2.327340e-03                     0.576 (TRAH MAcro)   No
    4     dE    -7.397324e-07     7.050383e-03    -7.3974e-07      0.000 (TRAH MIcro)
    4     dE    -4.711690e-06     2.728606e-03    -4.7116e-06      0.004 (TRAH MIcro)
    4     dE    -8.673971e-06     5.557681e-03    -8.6734e-06      0.008 (TRAH MIcro)
    4     dE    -1.232516e-05     3.260817e-03    -1.2323e-05      0.013 (TRAH MIcro)
    4     dE    -1.737298e-05     3.497424e-03    -1.7365e-05      0.021 (TRAH MIcro)
    4     dE    -2.210402e-05     4.706482e-03    -2.2084e-05      0.030 (TRAH MIcro)
    4     dE    -2.732961e-05     2.236494e-03    -2.7284e-05      0.041 (TRAH MIcro)
    4     dE    -3.174280e-05     2.790622e-03    -3.1661e-05      0.051 (TRAH MIcro)
    4     dE    -3.334152e-05     2.063893e-03    -3.3243e-05      0.055 (TRAH MIcro)
    4     dE    -3.469458e-05     1.073007e-03    -3.4579e-05      0.058 (TRAH MIcro)
    4     dE    -3.557420e-05     1.309763e-03    -3.5446e-05      0.060 (TRAH MIcro)
    4     dE    -3.628318e-05     5.900949e-04    -3.6143e-05      0.062 (TRAH MIcro)
    4     dE    -3.676632e-05     8.405218e-04    -3.6617e-05      0.064 (TRAH MIcro)
    4     dE    -3.746525e-05     1.012145e-03    -3.7302e-05      0.066 (TRAH MIcro)
    5      -1720.357415487739     1.091688e-03                     0.691 (TRAH MAcro)   No
    5     dE    -3.014325e-08     2.349008e-03    -3.0345e-08      0.000 (TRAH MIcro)
    5     dE    -4.814027e-07     7.078397e-04    -4.8140e-07      0.001 (TRAH MIcro)
    5     dE    -8.161147e-07     9.829024e-04    -8.1611e-07      0.002 (TRAH MIcro)
    5     dE    -1.243495e-06     8.431259e-04    -1.2435e-06      0.003 (TRAH MIcro)
    5     dE    -1.653048e-06     6.093222e-04    -1.6530e-06      0.006 (TRAH MIcro)
    5     dE    -1.917309e-06     5.071759e-04    -1.9172e-06      0.007 (TRAH MIcro)
    5     dE    -2.138592e-06     4.279245e-04    -2.1384e-06      0.009 (TRAH MIcro)
    5     dE    -2.436804e-06     6.462335e-04    -2.4365e-06      0.011 (TRAH MIcro)
    5     dE    -2.821500e-06     6.186201e-04    -2.8209e-06      0.014 (TRAH MIcro)
    5     dE    -3.315569e-06     5.921042e-04    -3.3144e-06      0.019 (TRAH MIcro)
    5     dE    -3.588945e-06     5.391426e-04    -3.5872e-06      0.022 (TRAH MIcro)
    5     dE    -3.827804e-06     3.993048e-04    -3.8255e-06      0.025 (TRAH MIcro)
    5     dE    -3.985480e-06     3.353593e-04    -3.9827e-06      0.026 (TRAH MIcro)
    5     dE    -4.082363e-06     3.199416e-04    -4.0793e-06      0.027 (TRAH MIcro)
    6      -1720.357419314738     3.218085e-04                           (NR   MAcro)
    6     dE    -6.061089e-08     2.124567e-04                           (NR   MIcro)
    6     dE    -1.179555e-07     2.991129e-04                           (NR   MIcro)
    6     dE    -1.493962e-07     2.535383e-04                           (NR   MIcro)
    6     dE    -1.894225e-07     1.767400e-04                           (NR   MIcro)
    6     dE    -2.453065e-07     3.065829e-04                           (NR   MIcro)
    6     dE    -2.947642e-07     2.879194e-04                           (NR   MIcro)
    6     dE    -3.383567e-07     1.703980e-04                           (NR   MIcro)
    6     dE    -3.550391e-07     1.753283e-04                           (NR   MIcro)
    6     dE    -3.691308e-07     1.061862e-04                           (NR   MIcro)
    6     dE    -3.801504e-07     1.276400e-04                           (NR   MIcro)
    6     dE    -3.881528e-07     1.049203e-04                           (NR   MIcro)
    6     dE    -3.928216e-07     5.340198e-05                           (NR   MIcro)
    6     dE    -3.948537e-07     5.892418e-05                           (NR   MIcro)
    6     dE    -3.989837e-07     6.271969e-05                           (NR   MIcro)
    6     dE    -4.034837e-07     6.074193e-05                           (NR   MIcro)
    7      -1720.357419707754     6.143545e-05                           (NR   MAcro)
    7     dE    -1.681239e-09     3.430853e-05                           (NR   MIcro)
    7     dE    -2.230647e-09     3.632169e-05                           (NR   MIcro)
    7     dE    -3.695168e-09     4.156122e-05                           (NR   MIcro)
    7     dE    -4.926561e-09     3.657938e-05                           (NR   MIcro)
    7     dE    -6.233654e-09     5.306927e-05                           (NR   MIcro)
    7     dE    -7.576106e-09     2.756849e-05                           (NR   MIcro)
    7     dE    -8.239101e-09     3.215551e-05                           (NR   MIcro)
    7     dE    -8.933396e-09     3.009257e-05                           (NR   MIcro)
    7     dE    -9.562636e-09     2.919625e-05                           (NR   MIcro)
    7     dE    -1.006684e-08     2.619231e-05                           (NR   MIcro)
    7     dE    -1.040607e-08     1.662329e-05                           (NR   MIcro)
    7     dE    -1.062658e-08     1.840085e-05                           (NR   MIcro)
    7     dE    -1.087131e-08     1.557550e-05                           (NR   MIcro)
    7     dE    -1.106886e-08     1.563714e-05                           (NR   MIcro)
    7     dE    -1.126939e-08     1.806215e-05                           (NR   MIcro)
    8      -1720.357419718763     1.866254e-05                           (NR   MAcro)
    8     dE    -1.630799e-10     1.034015e-05                           (NR   MIcro)
    8     dE    -2.796134e-10     1.346436e-05                           (NR   MIcro)
    8     dE    -3.709721e-10     1.063853e-05                           (NR   MIcro)
    8     dE    -4.142381e-10     9.657338e-06                           (NR   MIcro)
    8     dE    -4.996749e-10     1.202950e-05                           (NR   MIcro)
    8     dE    -5.605230e-10     1.112217e-05                           (NR   MIcro)
    8     dE    -6.310119e-10     8.852680e-06                           (NR   MIcro)
    8     dE    -6.693800e-10     9.431466e-06                           (NR   MIcro)
    8     dE    -7.069499e-10     5.527441e-06                           (NR   MIcro)
    8     dE    -7.332064e-10     6.696182e-06                           (NR   MIcro)
    8     dE    -7.567702e-10     5.798980e-06                           (NR   MIcro)
    8     dE    -7.742091e-10     4.217289e-06                           (NR   MIcro)
    8     dE    -7.835880e-10     5.016272e-06                           (NR   MIcro)
    8     dE    -7.936729e-10     2.180910e-06                           (NR   MIcro)
    8     dE    -7.989017e-10     2.698353e-06                           (NR   MIcro)
    9      -1720.357419719825     2.823958e-06                           (NR   MAcro)

               *****************************************************
               *                     SUCCESS                       *
               *           SCF CONVERGED AFTER 156 CYCLES          *
               *****************************************************

Old exchange energy                            =    -26.751556831 Eh
New exchange energy                            =    -26.751511758 Eh
Exchange energy change after final integration =      0.000045073 Eh
Total energy after final integration           =  -1720.357374647 Eh
Final COS-X integration done in                =     1.187 sec

----------------
TOTAL SCF ENERGY
----------------

Total Energy       :        -1720.35737465 Eh          -46813.30411 eV

Components:
Nuclear Repulsion  :          631.32099239 Eh           17179.11757 eV
Electronic Energy  :        -2351.67836703 Eh          -63992.42168 eV
One Electron Energy:        -3585.77528219 Eh          -97573.90599 eV
Two Electron Energy:         1234.09691516 Eh           33581.48431 eV
Max COSX asymmetry :            0.00000077 Eh               0.00002 eV

Virial components:
Potential Energy   :        -3437.61007736 Eh          -93542.12579 eV
Kinetic Energy     :         1717.25270272 Eh           46728.82169 eV
Virial Ratio       :            2.00180793


DFT components:
N(Alpha)           :       41.999998460932 electrons
N(Beta)            :       40.999996011378 electrons
N(Total)           :       82.999994472311 electrons
E(X)               :      -80.269031844667 Eh       
E(C)               :       -3.058571579124 Eh       
E(XC)              :      -83.327603423791 Eh       
DFET-embed. en.    :        0.000000000000 Eh       

---------------
SCF CONVERGENCE
---------------

  Last Energy change         ...   -1.0616e-09  Tolerance :   1.0000e-08
  Last Orbital Gradient      ...    2.8240e-06  Tolerance :   1.0000e-05
  Last Orbital Rotation      ...    2.7587e-04

             **** THE GBW FILE WAS UPDATED (Fe_H2O_6_LowSpin.gbw) ****
             **** DENSITY Fe_H2O_6_LowSpin.scfp WAS UPDATED ****
             **** ENERGY FILE WAS UPDATED (Fe_H2O_6_LowSpin.en.tmp) ****
----------------------
UHF SPIN CONTAMINATION
----------------------

Warning: in a DFT calculation there is little theoretical justification to 
         calculate <S**2> as in Hartree-Fock theory. We will do it anyways
         but you should keep in mind that the values have only limited relevance

Expectation value of <S**2>     :     2.002395
Ideal value S*(S+1) for S=0.5   :     0.750000
Deviation                       :     1.252395

             **** THE GBW FILE WAS UPDATED (Fe_H2O_6_LowSpin.gbw) ****
             **** DENSITY Fe_H2O_6_LowSpin.scfp WAS UPDATED ****
----------------
ORBITAL ENERGIES
----------------
                 SPIN UP ORBITALS
  NO   OCC          E(Eh)            E(eV) 
   0   1.0000    -257.069490     -6995.2164 
   1   1.0000     -30.850284      -839.4789 
   2   1.0000     -26.678731      -725.9652 
   3   1.0000     -26.675874      -725.8874 
   4   1.0000     -26.668165      -725.6777 
   5   1.0000     -19.768219      -537.9206 
   6   1.0000     -19.765534      -537.8475 
   7   1.0000     -19.763127      -537.7820 
   8   1.0000     -19.761453      -537.7365 
   9   1.0000     -19.760921      -537.7220 
  10   1.0000     -19.739773      -537.1465 
  11   1.0000      -4.214954      -114.6947 
  12   1.0000      -2.980174       -81.0947 
  13   1.0000      -2.970644       -80.8353 
  14   1.0000      -2.956931       -80.4622 
  15   1.0000      -1.619083       -44.0575 
  16   1.0000      -1.615505       -43.9601 
  17   1.0000      -1.595144       -43.4061 
  18   1.0000      -1.577086       -42.9147 
  19   1.0000      -1.573337       -42.8127 
  20   1.0000      -1.550452       -42.1899 
  21   1.0000      -1.176670       -32.0188 
  22   1.0000      -1.163181       -31.6518 
  23   1.0000      -1.153078       -31.3768 
  24   1.0000      -1.145119       -31.1603 
  25   1.0000      -1.141315       -31.0568 
  26   1.0000      -1.124970       -30.6120 
  27   1.0000      -1.018385       -27.7117 
  28   1.0000      -1.013740       -27.5853 
  29   1.0000      -1.003332       -27.3020 
  30   1.0000      -0.982244       -26.7282 
  31   1.0000      -0.956101       -26.0168 
  32   1.0000      -0.935079       -25.4448 
  33   1.0000      -0.933903       -25.4128 
  34   1.0000      -0.925191       -25.1757 
  35   1.0000      -0.910189       -24.7675 
  36   1.0000      -0.890321       -24.2269 
  37   1.0000      -0.888387       -24.1742 
  38   1.0000      -0.882078       -24.0026 
  39   1.0000      -0.875011       -23.8103 
  40   1.0000      -0.866526       -23.5794 
  41   1.0000      -0.862085       -23.4585 
  42   0.0000      -0.739407       -20.1203 
  43   0.0000      -0.728387       -19.8204 
  44   0.0000      -0.521093       -14.1797 
  45   0.0000      -0.468058       -12.7365 
  46   0.0000      -0.452588       -12.3155 
  47   0.0000      -0.430091       -11.7034 
  48   0.0000      -0.419847       -11.4246 
  49   0.0000      -0.392558       -10.6820 
  50   0.0000      -0.372195       -10.1279 
  51   0.0000      -0.354120        -9.6361 
  52   0.0000      -0.332107        -9.0371 
  53   0.0000      -0.317787        -8.6474 
  54   0.0000      -0.313001        -8.5172 
  55   0.0000      -0.299931        -8.1615 
  56   0.0000      -0.288228        -7.8431 
  57   0.0000      -0.280925        -7.6444 
  58   0.0000      -0.272747        -7.4218 
  59   0.0000      -0.257112        -6.9964 
  60   0.0000      -0.247889        -6.7454 
  61   0.0000      -0.242931        -6.6105 
  62   0.0000      -0.229163        -6.2358 
  63   0.0000      -0.210273        -5.7218 
  64   0.0000      -0.176150        -4.7933 
  65   0.0000      -0.160876        -4.3776 
  66   0.0000      -0.146747        -3.9932 
  67   0.0000      -0.124426        -3.3858 
  68   0.0000      -0.120514        -3.2794 
  69   0.0000      -0.101687        -2.7670 
  70   0.0000      -0.058118        -1.5815 
  71   0.0000      -0.034736        -0.9452 
  72   0.0000      -0.017212        -0.4684 
  73   0.0000      -0.003012        -0.0820 
  74   0.0000       0.012763         0.3473 
  75   0.0000       0.039163         1.0657 
  76   0.0000       0.052020         1.4155 
  77   0.0000       0.058567         1.5937 
  78   0.0000       0.066757         1.8166 
  79   0.0000       0.080553         2.1919 
  80   0.0000       0.082039         2.2324 
  81   0.0000       0.096704         2.6314 
  82   0.0000       0.104745         2.8502 
  83   0.0000       0.112273         3.0551 
  84   0.0000       0.112812         3.0698 
  85   0.0000       0.121798         3.3143 
  86   0.0000       0.127503         3.4695 
  87   0.0000       0.134785         3.6677 
  88   0.0000       0.154060         4.1922 
  89   0.0000       0.167708         4.5636 
  90   0.0000       0.193212         5.2576 
  91   0.0000       0.210667         5.7325 
  92   0.0000       0.221253         6.0206 
  93   0.0000       0.244925         6.6647 
  94   0.0000       0.260083         7.0772 
  95   0.0000       0.266805         7.2601 
  96   0.0000       0.274304         7.4642 
  97   0.0000       0.279205         7.5976 
  98   0.0000       0.289207         7.8697 
  99   0.0000       0.315960         8.5977 
 100   0.0000       0.339603         9.2411 
 101   0.0000       0.370332        10.0772 
 102   0.0000       0.375696        10.2232 
 103   0.0000       0.423535        11.5250 
 104   0.0000       0.432691        11.7741 
 105   0.0000       0.472065        12.8455 
 106   0.0000       0.569757        15.5039 
 107   0.0000       0.615279        16.7426 
 108   0.0000       0.646845        17.6015 
 109   0.0000       0.663499        18.0547 
 110   0.0000       0.735348        20.0098 
 111   0.0000       0.758991        20.6532 
 112   0.0000       0.790054        21.4985 
 113   0.0000       0.807252        21.9665 
 114   0.0000       0.819533        22.3006 
 115   0.0000       0.846033        23.0217 
 116   0.0000       0.854211        23.2443 
 117   0.0000       0.899600        24.4794 
 118   0.0000       0.911333        24.7986 
 119   0.0000       0.945188        25.7199 
 120   0.0000       0.975467        26.5438 
 121   0.0000       0.995010        27.0756 
 122   0.0000       0.999634        27.2014 
 123   0.0000       1.009462        27.4689 
 124   0.0000       1.016087        27.6491 
 125   0.0000       1.024137        27.8682 
 126   0.0000       1.025129        27.8952 
 127   0.0000       1.042274        28.3617 
 128   0.0000       1.067080        29.0367 
 129   0.0000       1.090645        29.6780 
 130   0.0000       1.102656        30.0048 
 131   0.0000       1.123651        30.5761 
 132   0.0000       1.127766        30.6881 
 133   0.0000       1.154374        31.4121 
 134   0.0000       1.166785        31.7498 
 135   0.0000       1.239308        33.7233 
 136   0.0000       1.269634        34.5485 
 137   0.0000       1.294699        35.2305 
 138   0.0000       1.314376        35.7660 
 139   0.0000       1.318958        35.8907 
 140   0.0000       1.336997        36.3815 
 141   0.0000       1.363719        37.1087 
 142   0.0000       1.378676        37.5157 
 143   0.0000       1.387251        37.7490 
 144   0.0000       1.420512        38.6541 
 145   0.0000       1.430308        38.9207 
 146   0.0000       1.458965        39.7005 
 147   0.0000       1.469493        39.9869 
 148   0.0000       1.481620        40.3169 
 149   0.0000       1.489395        40.5285 
 150   0.0000       1.499852        40.8130 
 151   0.0000       1.509088        41.0644 
 152   0.0000       1.536288        41.8045 
 153   0.0000       1.555468        42.3264 
 154   0.0000       1.567615        42.6570 
 155   0.0000       1.576083        42.8874 
 156   0.0000       1.626535        44.2603 
 157   0.0000       1.670506        45.4568 
 158   0.0000       1.762805        47.9684 
 159   0.0000       1.791858        48.7589 
 160   0.0000       1.800959        49.0066 
 161   0.0000       1.807726        49.1907 
 162   0.0000       1.818777        49.4914 
 163   0.0000       1.822606        49.5956 
 164   0.0000       1.846875        50.2560 
 165   0.0000       1.856107        50.5072 
 166   0.0000       1.863696        50.7138 
 167   0.0000       1.873723        50.9866 
 168   0.0000       1.923399        52.3383 
 169   0.0000       1.951121        53.0927 
 170   0.0000       1.952676        53.1350 
 171   0.0000       1.987254        54.0759 
 172   0.0000       2.013549        54.7914 
 173   0.0000       2.040320        55.5199 
 174   0.0000       2.073248        56.4159 
 175   0.0000       2.094986        57.0075 
 176   0.0000       2.112287        57.4782 
 177   0.0000       2.120330        57.6971 
 178   0.0000       2.142004        58.2869 
 179   0.0000       2.145220        58.3744 
 180   0.0000       2.159392        58.7600 
 181   0.0000       2.162414        58.8423 
 182   0.0000       2.177389        59.2498 
 183   0.0000       2.182195        59.3806 
 184   0.0000       2.205154        60.0053 
 185   0.0000       2.224761        60.5388 
 186   0.0000       2.238435        60.9109 
 187   0.0000       2.242892        61.0322 
 188   0.0000       2.259476        61.4835 
 189   0.0000       2.278168        61.9921 
 190   0.0000       2.290675        62.3324 
 191   0.0000       2.321460        63.1702 
 192   0.0000       2.334871        63.5351 
 193   0.0000       2.353003        64.0285 
 194   0.0000       2.400696        65.3263 
 195   0.0000       2.434705        66.2517 
 196   0.0000       2.494935        67.8906 
 197   0.0000       2.570756        69.9538 
 198   0.0000       2.684023        73.0360 
 199   0.0000       2.730634        74.3043 
 200   0.0000       2.895894        78.8013 
 201   0.0000       2.936654        79.9104 
 202   0.0000       2.966508        80.7228 
 203   0.0000       3.044064        82.8332 
 204   0.0000       3.152039        85.7714 
 205   0.0000       3.179101        86.5077 
 206   0.0000       3.205167        87.2170 
 207   0.0000       3.334056        90.7243 
 208   0.0000       3.351155        91.1896 
 209   0.0000       3.367880        91.6447 
 210   0.0000       3.382939        92.0545 
 211   0.0000       3.384073        92.0853 
 212   0.0000       3.393332        92.3373 
 213   0.0000       3.414833        92.9223 
 214   0.0000       3.422544        93.1322 
 215   0.0000       3.433651        93.4344 
 216   0.0000       3.450286        93.8870 
 217   0.0000       3.469236        94.4027 
 218   0.0000       3.486741        94.8790 
 219   0.0000       3.503316        95.3301 
 220   0.0000       3.507544        95.4451 
 221   0.0000       3.528401        96.0127 
 222   0.0000       3.555882        96.7605 
 223   0.0000       3.584562        97.5409 
 224   0.0000       3.760819       102.3371 
 225   0.0000       4.568472       124.3145 
 226   0.0000       4.582096       124.6852 
 227   0.0000       4.590886       124.9244 
 228   0.0000       4.594656       125.0270 
 229   0.0000       4.602711       125.2461 
 230   0.0000       4.609337       125.4264 
 231   0.0000       4.613671       125.5444 
 232   0.0000       4.621461       125.7564 
 233   0.0000       4.622255       125.7780 
 234   0.0000       4.629202       125.9670 
 235   0.0000       4.654695       126.6607 
 236   0.0000       4.660219       126.8110 
 237   0.0000       4.672116       127.1347 
 238   0.0000       4.695821       127.7798 
 239   0.0000       4.703345       127.9845 
 240   0.0000       4.728904       128.6800 
 241   0.0000       4.769700       129.7901 
 242   0.0000       4.782192       130.1301 
 243   0.0000       4.785927       130.2317 
 244   0.0000       4.794907       130.4761 
 245   0.0000       4.829362       131.4136 
 246   0.0000       4.937957       134.3686 
 247   0.0000       4.945382       134.5707 
 248   0.0000       4.975785       135.3980 
 249   0.0000       4.985973       135.6752 
 250   0.0000       5.004902       136.1903 
 251   0.0000       5.012546       136.3983 
 252   0.0000       5.019273       136.5813 
 253   0.0000       5.073015       138.0438 
 254   0.0000       5.168234       140.6348 
 255   0.0000       5.354185       145.6948 
 256   0.0000       5.603045       152.4666 
 257   0.0000       5.657266       153.9420 
 258   0.0000       5.674283       154.4051 
 259   0.0000       5.693039       154.9155 
 260   0.0000       5.703792       155.2081 
 261   0.0000       5.717601       155.5838 
 262   0.0000       5.741905       156.2452 
 263   0.0000       5.750430       156.4771 
 264   0.0000       5.774147       157.1225 
 265   0.0000       5.791830       157.6037 
 266   0.0000       5.808426       158.0553 
 267   0.0000       5.834276       158.7587 
 268   0.0000       5.848253       159.1390 
 269   0.0000       5.871750       159.7784 
 270   0.0000       5.880799       160.0247 
 271   0.0000       5.885454       160.1513 
 272   0.0000       5.889906       160.2725 
 273   0.0000       5.907594       160.7538 
 274   0.0000       5.913709       160.9202 
 275   0.0000       5.924382       161.2106 
 276   0.0000       5.927981       161.3086 
 277   0.0000       5.949225       161.8866 
 278   0.0000       5.965551       162.3309 
 279   0.0000       5.972012       162.5067 
 280   0.0000       5.997717       163.2062 
 281   0.0000       6.005369       163.4144 
 282   0.0000       6.036216       164.2538 
 283   0.0000       6.099168       165.9668 
 284   0.0000       6.140176       167.0827 
 285   0.0000       6.210381       168.9931 
 286   0.0000       6.287651       171.0957 
 287   0.0000       6.318033       171.9224 
 288   0.0000       6.331019       172.2758 
 289   0.0000       6.343066       172.6036 
 290   0.0000       6.397686       174.0899 
 291   0.0000       6.490858       176.6252 
 292   0.0000       6.524522       177.5413 
 293   0.0000       6.564497       178.6291 
 294   0.0000       6.635737       180.5676 
 295   0.0000       6.836532       186.0315 
 296   0.0000       7.102817       193.2775 
 297   0.0000      42.833963      1165.5714 
 298   0.0000      42.896427      1167.2711 
 299   0.0000      42.962671      1169.0737 
 300   0.0000      43.000023      1170.0901 
 301   0.0000      43.215385      1175.9504 
 302   0.0000      43.313185      1178.6117 

                 SPIN DOWN ORBITALS
  NO   OCC          E(Eh)            E(eV) 
   0   1.0000    -257.069063     -6995.2048 
   1   1.0000     -30.824242      -838.7703 
   2   1.0000     -26.657136      -725.3776 
   3   1.0000     -26.650340      -725.1926 
   4   1.0000     -26.649750      -725.1766 
   5   1.0000     -19.769049      -537.9432 
   6   1.0000     -19.767894      -537.9117 
   7   1.0000     -19.763908      -537.8033 
   8   1.0000     -19.762703      -537.7705 
   9   1.0000     -19.762200      -537.7568 
  10   1.0000     -19.741622      -537.1968 
  11   1.0000      -4.150427      -112.9389 
  12   1.0000      -2.910318       -79.1938 
  13   1.0000      -2.898667       -78.8767 
  14   1.0000      -2.889836       -78.6364 
  15   1.0000      -1.623326       -44.1730 
  16   1.0000      -1.617440       -44.0128 
  17   1.0000      -1.596920       -43.4544 
  18   1.0000      -1.580023       -42.9946 
  19   1.0000      -1.576395       -42.8959 
  20   1.0000      -1.556414       -42.3522 
  21   1.0000      -1.177873       -32.0515 
  22   1.0000      -1.163951       -31.6727 
  23   1.0000      -1.153532       -31.3892 
  24   1.0000      -1.145865       -31.1806 
  25   1.0000      -1.141997       -31.0753 
  26   1.0000      -1.126699       -30.6590 
  27   1.0000      -1.002464       -27.2784 
  28   1.0000      -0.987103       -26.8604 
  29   1.0000      -0.978644       -26.6303 
  30   1.0000      -0.962872       -26.2011 
  31   1.0000      -0.935407       -25.4537 
  32   1.0000      -0.928813       -25.2743 
  33   1.0000      -0.922699       -25.1079 
  34   1.0000      -0.907287       -24.6885 
  35   1.0000      -0.898159       -24.4402 
  36   1.0000      -0.889664       -24.2090 
  37   1.0000      -0.881392       -23.9839 
  38   1.0000      -0.876819       -23.8595 
  39   1.0000      -0.868460       -23.6320 
  40   1.0000      -0.861342       -23.4383 
  41   0.0000      -0.700299       -19.0561 
  42   0.0000      -0.698177       -18.9984 
  43   0.0000      -0.690113       -18.7789 
  44   0.0000      -0.519063       -14.1244 
  45   0.0000      -0.467840       -12.7306 
  46   0.0000      -0.452138       -12.3033 
  47   0.0000      -0.428466       -11.6592 
  48   0.0000      -0.416302       -11.3282 
  49   0.0000      -0.391130       -10.6432 
  50   0.0000      -0.372016       -10.1231 
  51   0.0000      -0.354308        -9.6412 
  52   0.0000      -0.331511        -9.0209 
  53   0.0000      -0.315500        -8.5852 
  54   0.0000      -0.309216        -8.4142 
  55   0.0000      -0.298522        -8.1232 
  56   0.0000      -0.287110        -7.8126 
  57   0.0000      -0.277541        -7.5523 
  58   0.0000      -0.269056        -7.3214 
  59   0.0000      -0.255330        -6.9479 
  60   0.0000      -0.242946        -6.6109 
  61   0.0000      -0.237291        -6.4570 
  62   0.0000      -0.225826        -6.1450 
  63   0.0000      -0.207924        -5.6579 
  64   0.0000      -0.176207        -4.7948 
  65   0.0000      -0.161468        -4.3938 
  66   0.0000      -0.147330        -4.0091 
  67   0.0000      -0.124812        -3.3963 
  68   0.0000      -0.120638        -3.2827 
  69   0.0000      -0.101736        -2.7684 
  70   0.0000      -0.057475        -1.5640 
  71   0.0000      -0.033790        -0.9195 
  72   0.0000      -0.017802        -0.4844 
  73   0.0000      -0.003087        -0.0840 
  74   0.0000       0.012076         0.3286 
  75   0.0000       0.039848         1.0843 
  76   0.0000       0.052564         1.4303 
  77   0.0000       0.058872         1.6020 
  78   0.0000       0.066243         1.8026 
  79   0.0000       0.079851         2.1729 
  80   0.0000       0.085450         2.3252 
  81   0.0000       0.097317         2.6481 
  82   0.0000       0.105846         2.8802 
  83   0.0000       0.111905         3.0451 
  84   0.0000       0.113746         3.0952 
  85   0.0000       0.121805         3.3145 
  86   0.0000       0.128218         3.4890 
  87   0.0000       0.135662         3.6916 
  88   0.0000       0.154236         4.1970 
  89   0.0000       0.168304         4.5798 
  90   0.0000       0.193996         5.2789 
  91   0.0000       0.210090         5.7168 
  92   0.0000       0.221439         6.0257 
  93   0.0000       0.244601         6.6559 
  94   0.0000       0.260540         7.0897 
  95   0.0000       0.267327         7.2743 
  96   0.0000       0.274504         7.4696 
  97   0.0000       0.279172         7.5967 
  98   0.0000       0.289433         7.8759 
  99   0.0000       0.321821         8.7572 
 100   0.0000       0.353577         9.6213 
 101   0.0000       0.372485        10.1358 
 102   0.0000       0.401928        10.9370 
 103   0.0000       0.427138        11.6230 
 104   0.0000       0.439503        11.9595 
 105   0.0000       0.482105        13.1188 
 106   0.0000       0.569488        15.4965 
 107   0.0000       0.615534        16.7495 
 108   0.0000       0.648090        17.6354 
 109   0.0000       0.663150        18.0452 
 110   0.0000       0.734710        19.9925 
 111   0.0000       0.758587        20.6422 
 112   0.0000       0.790597        21.5132 
 113   0.0000       0.807205        21.9652 
 114   0.0000       0.819705        22.3053 
 115   0.0000       0.844409        22.9775 
 116   0.0000       0.854130        23.2420 
 117   0.0000       0.898670        24.4541 
 118   0.0000       0.908817        24.7302 
 119   0.0000       0.944882        25.7115 
 120   0.0000       0.975514        26.5451 
 121   0.0000       0.994927        27.0733 
 122   0.0000       0.999489        27.1975 
 123   0.0000       1.008935        27.4545 
 124   0.0000       1.016669        27.6650 
[...]
     54      -0.049813  -0.046008  -0.042896   0.349618  -0.054525   0.363582
     55      -0.154823  -0.127647  -0.126892  -0.196777   0.029308  -0.203602
     56      -0.322492  -0.233687  -0.254979   0.010676  -0.002087   0.013118
                 48         49         50         51         52         53    
      0       0.000042   0.000154   0.000003  -0.000002  -0.000067   0.000006
      1       0.000388   0.000128   0.000002   0.000004  -0.000020  -0.000004
      2       0.000162  -0.000425  -0.000001  -0.000013   0.000174  -0.000013
      3       0.008691  -0.008749  -0.012991   0.020021   0.024412   0.020576
      4       0.000036  -0.000411  -0.000733  -0.019964  -0.024599  -0.020774
      5       0.009284  -0.010128  -0.015124  -0.015355  -0.018933  -0.015888
      6       0.008552  -0.009750   0.013171  -0.021665   0.017391  -0.024509
      7       0.000097  -0.000509   0.000808   0.021726  -0.017592   0.024839
      8       0.009077  -0.011173   0.015176   0.016737  -0.013601   0.019016
      9       0.008729   0.008997   0.007147  -0.017047  -0.017420   0.005984
     10       0.020519   0.020527   0.017004  -0.000400  -0.000247  -0.000023
     11      -0.011364  -0.011167  -0.009364  -0.014677  -0.014988   0.005534
     12       0.007748   0.008446  -0.006925   0.021042  -0.019875  -0.003663
     13       0.018667   0.019646  -0.016794   0.000499  -0.000331   0.000062
     14      -0.010201  -0.010517   0.009111   0.018159  -0.017126  -0.003551
     15      -0.012586   0.011904  -0.012496  -0.012967   0.012067   0.013841
     16       0.008873  -0.009802   0.009816  -0.027717   0.025368   0.030082
     17       0.012403  -0.011852   0.012276   0.008847  -0.008063  -0.008896
     18      -0.014299   0.011779   0.012724   0.011389   0.012710  -0.015114
     19       0.010135  -0.009751  -0.010054   0.024288   0.026544  -0.032561
     20       0.013765  -0.011436  -0.012203  -0.007867  -0.008667   0.009875
     21       0.001963  -0.000050   0.001670  -0.007862   0.006469   0.006215
     22      -0.281047   0.286092  -0.285784   0.301999  -0.275472  -0.331917
     23      -0.033538   0.033322  -0.033558   0.040494  -0.037471  -0.047062
     24       0.160347   0.158690   0.129514   0.087917   0.090536  -0.033579
     25      -0.163175  -0.162672  -0.132735  -0.098511  -0.100908   0.037152
     26       0.289910   0.289555   0.234691   0.171326   0.174470  -0.065707
     27      -0.169291   0.172513   0.251750  -0.269421  -0.327839  -0.276276
     28       0.094629  -0.099123  -0.142044   0.147662   0.180191   0.152298
     29      -0.005122   0.006544   0.010073  -0.017627  -0.021383  -0.018535
     30      -0.269866  -0.287675   0.236639  -0.224007   0.210129   0.036299
     31      -0.152165  -0.159492   0.132317  -0.130851   0.122564   0.022979
     32      -0.099484  -0.104553   0.086186  -0.076991   0.072217   0.013922
     33       0.028533  -0.036030   0.047291   0.050598  -0.040981   0.057191
     34      -0.096214   0.116705  -0.155231  -0.183479   0.148884  -0.211477
     35      -0.141622   0.174580  -0.229625  -0.282711   0.228261  -0.321636
     36       0.226175  -0.188330  -0.196982  -0.187592  -0.207075   0.247230
     37       0.153146  -0.125966  -0.131948  -0.119270  -0.131616   0.155797
     38      -0.186660   0.154976   0.161038   0.157899   0.172771  -0.203622
     39       0.145421   0.151167  -0.127425  -0.108702   0.103402   0.021584
     40      -0.148906  -0.155974   0.131331   0.122251  -0.115721  -0.023891
     41       0.262089   0.275273  -0.230291  -0.210383   0.197926   0.042400
     42       0.199671  -0.191293   0.194294   0.212235  -0.195252  -0.225401
     43       0.136779  -0.129442   0.131648   0.136690  -0.125541  -0.143785
     44      -0.166515   0.158920  -0.160452  -0.180554   0.164330   0.187631
     45       0.029639  -0.033118  -0.047881  -0.047748  -0.058571  -0.049078
     46      -0.097323   0.104806   0.153232   0.167792   0.207354   0.176358
     47      -0.144286   0.157921   0.228156   0.260516   0.319638   0.269863
     48       0.003052  -0.001032  -0.002661   0.007971   0.008251  -0.008268
     49      -0.317693   0.281827   0.289852  -0.265269  -0.288074   0.359168
     50      -0.035182   0.030598   0.031732  -0.033313  -0.036337   0.047705
     51      -0.300543  -0.304011  -0.242334   0.181735   0.184174  -0.060879
     52      -0.167831  -0.167097  -0.134312   0.105316   0.106482  -0.037010
     53      -0.108585  -0.108335  -0.086470   0.061109   0.061910  -0.021924
     54      -0.165932   0.191509  -0.254063   0.292710  -0.234355   0.330388
     55       0.092519  -0.109407   0.142800  -0.159654   0.127863  -0.181240
     56      -0.004450   0.006639  -0.009395   0.018205  -0.014311   0.021017
                 54         55         56    
      0       0.000040  -0.000056   0.000228
      1       0.000008   0.000245   0.000047
      2       0.000002   0.000013   0.000076
      3       0.005603   0.022941  -0.009146
      4      -0.005840  -0.023167   0.008659
      5      -0.004133  -0.017630   0.006097
      6      -0.010931   0.022484  -0.007297
      7       0.011062  -0.022805   0.006770
      8       0.007998  -0.017374   0.004780
      9       0.029365   0.005679  -0.039855
     10       0.000757  -0.000436  -0.001117
     11       0.024654   0.005192  -0.033552
     12      -0.037852   0.004812  -0.028202
     13      -0.001070  -0.000431  -0.000842
     14      -0.031896   0.004433  -0.023854
     15      -0.011339  -0.013754  -0.007961
     16      -0.023650  -0.030482  -0.016376
     17       0.007676   0.009064   0.005220
     18       0.006932  -0.014688  -0.010307
     19       0.014483  -0.032373  -0.021155
     20      -0.004799   0.009797   0.006886
     21      -0.006573  -0.006982  -0.003409
     22       0.254724   0.335648   0.176361
     23       0.034346   0.045834   0.025037
     24      -0.150450  -0.034389   0.203805
     25       0.167636   0.037346  -0.226534
     26      -0.286348  -0.063363   0.389279
     27      -0.076343  -0.307354   0.123728
     28       0.044671   0.170496  -0.068851
     29      -0.006178  -0.020583   0.007849
     30       0.404562  -0.047078   0.300576
     31       0.233492  -0.027076   0.173498
     32       0.136632  -0.015303   0.102188
     33       0.023684  -0.052565   0.014825
     34      -0.090858   0.193359  -0.052806
     35      -0.136861   0.293749  -0.082682
     36      -0.114737   0.241838   0.168139
     37      -0.072843   0.153316   0.106672
     38       0.095352  -0.201401  -0.138166
     39       0.193869  -0.029679   0.144262
     40      -0.216944   0.032268  -0.161027
     41       0.367745  -0.054019   0.274730
     42       0.185548   0.225286   0.128814
     43       0.119302   0.144721   0.082761
     44      -0.155555  -0.189848  -0.106877
     45      -0.012290  -0.054796   0.019173
     46       0.048012   0.195573  -0.067994
     47       0.071289   0.299133  -0.105796
     48       0.005025  -0.008791  -0.005675
     49      -0.156191   0.356968   0.228029
     50      -0.019319   0.045777   0.030012
     51      -0.314014  -0.056049   0.425310
     52      -0.179695  -0.032090   0.243310
     53      -0.103530  -0.017987   0.141037
     54       0.148699  -0.302396   0.098950
     55      -0.084175   0.166967  -0.054074
     56       0.010278  -0.019280   0.005549


-----------
IR SPECTRUM
-----------

 Mode   freq       eps      Int      T**2         TX        TY        TZ
       cm**-1   L/(mol*cm) km/mol    a.u.
----------------------------------------------------------------------------
  6:    109.96   0.000015    0.07  0.000041  (-0.004050  0.002975 -0.003999)
  7:    121.00   0.000029    0.15  0.000076  ( 0.004948  0.004728  0.005359)
  8:    135.25   0.012213   61.72  0.028180  (-0.012720 -0.166781 -0.014222)
  9:    138.40   0.012528   63.31  0.028248  (-0.165389  0.009447 -0.028377)
 10:    169.14   0.000001    0.01  0.000002  ( 0.000758 -0.000565 -0.001233)
 11:    185.58   0.009794   49.49  0.016469  (-0.020337 -0.024350  0.124349)
 12:    201.11   0.002779   14.04  0.004312  (-0.058544 -0.025955 -0.014514)
 13:    202.96   0.002887   14.59  0.004439  (-0.034845  0.055873  0.010167)
 14:    227.38   0.001416    7.16  0.001943  (-0.008094 -0.001492  0.043308)
 15:    248.94   0.000000    0.00  0.000000  ( 0.000391  0.000145  0.000454)
 16:    256.09   0.000000    0.00  0.000001  ( 0.000618  0.000358  0.000001)
 17:    275.20   0.000449    2.27  0.000510  (-0.020846 -0.000042 -0.008660)
 18:    281.69   0.000618    3.12  0.000684  ( 0.015820  0.020499  0.003715)
 19:    323.28   0.000001    0.00  0.000001  ( 0.000078  0.000603  0.000694)
 20:    347.81   0.000008    0.04  0.000007  (-0.000660  0.001215 -0.002244)
 21:    352.99   0.000029    0.14  0.000025  ( 0.001244 -0.000148  0.004876)
 22:    390.03   0.085202  430.58  0.068170  (-0.057533 -0.234468  0.099421)
 23:    393.58   0.081412  411.42  0.064549  (-0.246403  0.061373  0.008264)
 24:    395.23   0.093219  471.09  0.073604  (-0.015961 -0.080694 -0.258530)
 25:    400.88   0.000902    4.56  0.000702  ( 0.022386  0.005343  0.013128)
 26:    410.27   0.000137    0.69  0.000104  ( 0.001980 -0.001560  0.009890)
 27:    413.06   0.000082    0.41  0.000062  ( 0.001933 -0.003199  0.006900)
 28:    429.25   0.000016    0.08  0.000011  ( 0.003182  0.000393  0.001099)
 29:    473.00   0.023828  120.42  0.015721  ( 0.028368  0.034849 -0.117054)
 30:    483.86   0.005746   29.04  0.003706  (-0.003037 -0.054416 -0.027126)
 31:    487.32   0.006950   35.12  0.004451  ( 0.060992 -0.008689  0.025594)
 32:    490.30   0.001281    6.47  0.000815  ( 0.008897 -0.023260 -0.013962)
 33:    686.38   0.000001    0.00  0.000000  (-0.000499 -0.000423 -0.000055)
 34:    716.29   0.000004    0.02  0.000002  ( 0.000452  0.000768 -0.001008)
 35:    716.82   0.000003    0.02  0.000001  ( 0.000095 -0.000845  0.000849)
 36:    735.64   0.027003  136.46  0.011455  (-0.017764 -0.012392  0.104814)
 37:    759.40   0.029168  147.40  0.011986  ( 0.107041  0.011423  0.019948)
 38:    761.34   0.028647  144.77  0.011742  (-0.013165  0.106873  0.012110)
 39:   1645.47   0.000596    3.01  0.000113  (-0.000725  0.005407  0.009123)
 40:   1645.54   0.000638    3.22  0.000121  ( 0.007950  0.001254  0.007491)
 41:   1646.83   0.033309  168.33  0.006312  ( 0.077785  0.007020 -0.014564)
 42:   1646.87   0.035931  181.58  0.006809  (-0.003885 -0.047751 -0.067181)
 43:   1647.97   0.035461  179.21  0.006715  (-0.008688  0.060940 -0.054091)
 44:   1668.69   0.000003    0.01  0.000001  (-0.000650  0.000302 -0.000187)
 45:   3676.16   0.000075    0.38  0.000006  ( 0.000380  0.000408 -0.002458)
 46:   3677.26   0.000442    2.23  0.000038  ( 0.000775 -0.006059  0.000463)
 47:   3679.86   0.133896  676.65  0.011355  ( 0.099893 -0.018574  0.032110)
 48:   3680.48   0.132642  670.32  0.011247  (-0.007400 -0.098899 -0.037560)
 49:   3682.24   0.151803  767.15  0.012865  (-0.036701 -0.032973  0.102132)
 50:   3707.75   0.000009    0.04  0.000001  (-0.000795 -0.000237  0.000185)
 51:   3758.65   0.000416    2.10  0.000035  (-0.000777  0.001479 -0.005637)
 52:   3759.99   0.084821  428.65  0.007040  (-0.027891 -0.008379  0.078687)
 53:   3760.65   0.000551    2.78  0.000046  ( 0.002749 -0.001584 -0.005969)
 54:   3761.06   0.003803   19.22  0.000316  ( 0.017305  0.003993  0.000347)
 55:   3762.05   0.138668  700.77  0.011503  (-0.025188  0.104050  0.006470)
 56:   3762.38   0.133860  676.47  0.011103  ( 0.097707  0.022615  0.032321)

* The epsilon (eps) is given for a Dirac delta lineshape.
** The dipole moment derivative (T) already includes vibrational overlap.

The first frequency considered to be a vibration is 6
The total number of vibrations considered is 51


--------------------------
THERMOCHEMISTRY AT 298.15K
--------------------------

Temperature         ... 298.15 K
Pressure            ... 1.00 atm
Total Mass          ... 163.94 AMU

Throughout the following assumptions are being made:
  (1) The electronic state is orbitally nondegenerate
      but the spin degeneracy is treated
  (2) There are no thermally accessible electronically excited states
  (3) Hindered rotations indicated by low frequency modes are not
      treated as such but are treated as vibrations and this may
      cause some error
  (4) All equations used are the standard statistical mechanics
      equations for an ideal gas
  (5) All vibrations are strictly harmonic

freq.     109.96  E(vib)   ...       0.45 
freq.     121.00  E(vib)   ...       0.44 
freq.     135.25  E(vib)   ...       0.42 
freq.     138.40  E(vib)   ...       0.42 
freq.     169.14  E(vib)   ...       0.38 
freq.     185.58  E(vib)   ...       0.37 
freq.     201.11  E(vib)   ...       0.35 
freq.     202.96  E(vib)   ...       0.35 
freq.     227.38  E(vib)   ...       0.33 
freq.     248.94  E(vib)   ...       0.31 
freq.     256.09  E(vib)   ...       0.30 
freq.     275.20  E(vib)   ...       0.28 
freq.     281.69  E(vib)   ...       0.28 
freq.     323.28  E(vib)   ...       0.25 
freq.     347.81  E(vib)   ...       0.23 
freq.     352.99  E(vib)   ...       0.22 
freq.     390.03  E(vib)   ...       0.20 
freq.     393.58  E(vib)   ...       0.20 
freq.     395.23  E(vib)   ...       0.20 
freq.     400.88  E(vib)   ...       0.19 
freq.     410.27  E(vib)   ...       0.19 
freq.     413.06  E(vib)   ...       0.19 
freq.     429.25  E(vib)   ...       0.18 
freq.     473.00  E(vib)   ...       0.15 
freq.     483.86  E(vib)   ...       0.15 
freq.     487.32  E(vib)   ...       0.15 
freq.     490.30  E(vib)   ...       0.15 
freq.     686.38  E(vib)   ...       0.07 
freq.     716.29  E(vib)   ...       0.07 
freq.     716.82  E(vib)   ...       0.07 
freq.     735.64  E(vib)   ...       0.06 
freq.     759.40  E(vib)   ...       0.06 
freq.     761.34  E(vib)   ...       0.06 
freq.    1645.47  E(vib)   ...       0.00 
freq.    1645.54  E(vib)   ...       0.00 
freq.    1646.83  E(vib)   ...       0.00 
freq.    1646.87  E(vib)   ...       0.00 
freq.    1647.97  E(vib)   ...       0.00 
freq.    1668.69  E(vib)   ...       0.00 
freq.    3676.16  E(vib)   ...       0.00 
freq.    3677.26  E(vib)   ...       0.00 
freq.    3679.86  E(vib)   ...       0.00 
freq.    3680.48  E(vib)   ...       0.00 
freq.    3682.24  E(vib)   ...       0.00 
freq.    3707.75  E(vib)   ...       0.00 
freq.    3758.65  E(vib)   ...       0.00 
freq.    3759.99  E(vib)   ...       0.00 
freq.    3760.65  E(vib)   ...       0.00 
freq.    3761.06  E(vib)   ...       0.00 
freq.    3762.05  E(vib)   ...       0.00 
freq.    3762.38  E(vib)   ...       0.00 

------------
INNER ENERGY
------------

The inner energy is: U= E(el) + E(ZPE) + E(vib) + E(rot) + E(trans)
    E(el)   - is the total energy from the electronic structure calculation
              = E(kin-el) + E(nuc-el) + E(el-el) + E(nuc-nuc)
    E(ZPE)  - the the zero temperature vibrational energy from the frequency calculation
    E(vib)  - the the finite temperature correction to E(ZPE) due to population
              of excited vibrational states
    E(rot)  - is the rotational thermal energy
    E(trans)- is the translational thermal energy

Summary of contributions to the inner energy U:
Electronic energy                ...  -1720.68450133 Eh
Zero point energy                ...      0.15329640 Eh      96.19 kcal/mol
Thermal vibrational correction   ...      0.01225690 Eh       7.69 kcal/mol
Thermal rotational correction    ...      0.00141627 Eh       0.89 kcal/mol
Thermal translational correction ...      0.00141627 Eh       0.89 kcal/mol
-----------------------------------------------------------------------
Total thermal energy                  -1720.51611550 Eh


Summary of corrections to the electronic energy:
(perhaps to be used in another calculation)
Total thermal correction                  0.01508944 Eh       9.47 kcal/mol
Non-thermal (ZPE) correction              0.15329640 Eh      96.19 kcal/mol
-----------------------------------------------------------------------
Total correction                          0.16838583 Eh     105.66 kcal/mol


--------
ENTHALPY
--------

The enthalpy is H = U + kB*T
                kB is Boltzmann's constant
Total free energy                 ...  -1720.51611550 Eh 
Thermal Enthalpy correction       ...      0.00094421 Eh       0.59 kcal/mol
-----------------------------------------------------------------------
Total Enthalpy                    ...  -1720.51517129 Eh


Note: Only C1 symmetry has been detected, increase convergence thresholds 
      if your molecule has a higher symmetry. Symmetry factor of 1.0 is   
      used for the rotational entropy correction. 
 

Note: Rotational entropy computed according to Herzberg 
Infrared and Raman Spectra, Chapter V,1, Van Nostrand Reinhold, 1945 
Point Group:  C1, Symmetry Number:   1  
Rotational constants in cm-1:     0.057854     0.057615     0.055634 

Vibrational entropy computed according to the QRRHO of S. Grimme
Chem.Eur.J. 2012 18 9955


-------
ENTROPY
-------

The entropy contributions are T*S = T*(S(el)+S(vib)+S(rot)+S(trans))
     S(el)   - electronic entropy
     S(vib)  - vibrational entropy
     S(rot)  - rotational entropy
     S(trans)- translational entropy
The entropies will be listed as multiplied by the temperature to get
units of energy

Electronic entropy                ...      0.00065446 Eh      0.41 kcal/mol
Vibrational entropy               ...      0.02077107 Eh     13.03 kcal/mol
Rotational entropy                ...      0.01356737 Eh      8.51 kcal/mol
Translational entropy             ...      0.01957135 Eh     12.28 kcal/mol
-----------------------------------------------------------------------
Final entropy term                ...      0.05456425 Eh     34.24 kcal/mol

In case the symmetry of your molecule has not been determined correctly
or in case you have a reason to use a different symmetry number we print 
out the resulting rotational entropy values for sn=1,12 :
 --------------------------------------------------------
|  sn= 1 | S(rot)=       0.01356737 Eh      8.51 kcal/mol|
|  sn= 2 | S(rot)=       0.01291292 Eh      8.10 kcal/mol|
|  sn= 3 | S(rot)=       0.01253009 Eh      7.86 kcal/mol|
|  sn= 4 | S(rot)=       0.01225846 Eh      7.69 kcal/mol|
|  sn= 5 | S(rot)=       0.01204777 Eh      7.56 kcal/mol|
|  sn= 6 | S(rot)=       0.01187563 Eh      7.45 kcal/mol|
|  sn= 7 | S(rot)=       0.01173008 Eh      7.36 kcal/mol|
|  sn= 8 | S(rot)=       0.01160400 Eh      7.28 kcal/mol|
|  sn= 9 | S(rot)=       0.01149280 Eh      7.21 kcal/mol|
|  sn=10 | S(rot)=       0.01139332 Eh      7.15 kcal/mol|
|  sn=11 | S(rot)=       0.01130333 Eh      7.09 kcal/mol|
|  sn=12 | S(rot)=       0.01122117 Eh      7.04 kcal/mol|
 --------------------------------------------------------


-------------------
GIBBS FREE ENERGY
-------------------

The Gibbs free energy is G = H - T*S

Total enthalpy                    ...  -1720.51517129 Eh 
Total entropy correction          ...     -0.05456425 Eh    -34.24 kcal/mol
-----------------------------------------------------------------------
Final Gibbs free energy         ...  -1720.56973553 Eh

For completeness - the Gibbs free energy minus the electronic energy
G-E(el)                           ...      0.11476580 Eh     72.02 kcal/mol


Timings for individual modules:

Sum of individual times         ...     1759.459 sec (=  29.324 min)
GTO integral calculation        ...       23.228 sec (=   0.387 min)   1.3 %
SCF iterations                  ...     1410.415 sec (=  23.507 min)  80.2 %
SCF Gradient evaluation         ...      122.413 sec (=   2.040 min)   7.0 %
Geometry relaxation             ...        1.234 sec (=   0.021 min)   0.1 %
Analytical frequency calculation...      202.169 sec (=   3.369 min)  11.5 %
                             ****ORCA TERMINATED NORMALLY****
TOTAL RUN TIME: 0 days 0 hours 29 minutes 35 seconds 838 msec
