
                                 *****************
                                 * O   R   C   A *
                                 *****************

                                            #,                                       
                                            ###                                      
                                            ####                                     
                                            #####                                    
                                            ######                                   
                                           ########,                                 
                                     ,,################,,,,,                         
                               ,,#################################,,                 
                          ,,##########################################,,             
                       ,#########################################, ''#####,          
                    ,#############################################,,   '####,        
                  ,##################################################,,,,####,       
                ,###########''''           ''''###############################       
              ,#####''   ,,,,##########,,,,          '''####'''          '####       
            ,##' ,,,,###########################,,,                        '##       
           ' ,,###''''                  '''############,,,                           
         ,,##''                                '''############,,,,        ,,,,,,###''
      ,#''                                            '''#######################'''  
     '                                                          ''''####''''         
             ,#######,   #######,   ,#######,      ##                                
            ,#'     '#,  ##    ##  ,#'     '#,    #''#        ######   ,####,        
            ##       ##  ##   ,#'  ##            #'  '#       #        #'  '#        
            ##       ##  #######   ##           ,######,      #####,   #    #        
            '#,     ,#'  ##    ##  '#,     ,#' ,#      #,         ##   #,  ,#        
             '#######'   ##     ##  '#######'  #'      '#     #####' # '####'        



                  #######################################################
                  #                        -***-                        #
                  #          Department of theory and spectroscopy      #
                  #    Directorship and core code : Frank Neese         #
                  #        Max Planck Institute fuer Kohlenforschung    #
                  #                Kaiser Wilhelm Platz 1               #
                  #                 D-45470 Muelheim/Ruhr               #
                  #                      Germany                        #
                  #                                                     #
                  #                  All rights reserved                #
                  #                        -***-                        #
                  #######################################################


                         Program Version 5.0.2 -  RELEASE  -


 With contributions from (in alphabetic order):
   Daniel Aravena         : Magnetic Suceptibility
   Michael Atanasov       : Ab Initio Ligand Field Theory (pilot matlab implementation)
   Alexander A. Auer      : GIAO ZORA, VPT2 properties, NMR spectrum
   Ute Becker             : Parallelization
   Giovanni Bistoni       : ED, misc. LED, open-shell LED, HFLD
   Martin Brehm           : Molecular dynamics
   Dmytro Bykov           : SCF Hessian
   Vijay G. Chilkuri      : MRCI spin determinant printing, contributions to CSF-ICE
   Dipayan Datta          : RHF DLPNO-CCSD density
   Achintya Kumar Dutta   : EOM-CC, STEOM-CC
   Dmitry Ganyushin       : Spin-Orbit,Spin-Spin,Magnetic field MRCI
   Miquel Garcia          : C-PCM and meta-GGA Hessian, CC/C-PCM, Gaussian charge scheme
   Yang Guo               : DLPNO-NEVPT2, F12-NEVPT2, CIM, IAO-localization
   Andreas Hansen         : Spin unrestricted coupled pair/coupled cluster methods
   Benjamin Helmich-Paris : MC-RPA, TRAH-SCF, COSX integrals
   Lee Huntington         : MR-EOM, pCC
   Robert Izsak           : Overlap fitted RIJCOSX, COSX-SCS-MP3, EOM
   Marcus Kettner         : VPT2
   Christian Kollmar      : KDIIS, OOCD, Brueckner-CCSD(T), CCSD density, CASPT2, CASPT2-K
   Simone Kossmann        : Meta GGA functionals, TD-DFT gradient, OOMP2, MP2 Hessian
   Martin Krupicka        : Initial AUTO-CI
   Lucas Lang             : DCDCAS
   Marvin Lechner         : AUTO-CI (C++ implementation), FIC-MRCC
   Dagmar Lenk            : GEPOL surface, SMD
   Dimitrios Liakos       : Extrapolation schemes; Compound Job, initial MDCI parallelization
   Dimitrios Manganas     : Further ROCIS development; embedding schemes
   Dimitrios Pantazis     : SARC Basis sets
   Anastasios Papadopoulos: AUTO-CI, single reference methods and gradients
   Taras Petrenko         : DFT Hessian,TD-DFT gradient, ASA, ECA, R-Raman, ABS, FL, XAS/XES, NRVS
   Peter Pinski           : DLPNO-MP2, DLPNO-MP2 Gradient
   Christoph Reimann      : Effective Core Potentials
   Marius Retegan         : Local ZFS, SOC
   Christoph Riplinger    : Optimizer, TS searches, QM/MM, DLPNO-CCSD(T), (RO)-DLPNO pert. Triples
   Tobias Risthaus        : Range-separated hybrids, TD-DFT gradient, RPA, STAB
   Michael Roemelt        : Original ROCIS implementation
   Masaaki Saitow         : Open-shell DLPNO-CCSD energy and density
   Barbara Sandhoefer     : DKH picture change effects
   Avijit Sen             : IP-ROCIS
   Kantharuban Sivalingam : CASSCF convergence, NEVPT2, FIC-MRCI
   Bernardo de Souza      : ESD, SOC TD-DFT
   Georgi Stoychev        : AutoAux, RI-MP2 NMR, DLPNO-MP2 response
   Willem Van den Heuvel  : Paramagnetic NMR
   Boris Wezisla          : Elementary symmetry handling
   Frank Wennmohs         : Technical directorship


 We gratefully acknowledge several colleagues who have allowed us to
 interface, adapt or use parts of their codes:
   Stefan Grimme, W. Hujo, H. Kruse, P. Pracht,  : VdW corrections, initial TS optimization,
                  C. Bannwarth, S. Ehlert          DFT functionals, gCP, sTDA/sTD-DF
   Ed Valeev, F. Pavosevic, A. Kumar             : LibInt (2-el integral package), F12 methods
   Garnet Chan, S. Sharma, J. Yang, R. Olivares  : DMRG
   Ulf Ekstrom                                   : XCFun DFT Library
   Mihaly Kallay                                 : mrcc  (arbitrary order and MRCC methods)
   Jiri Pittner, Ondrej Demel                    : Mk-CCSD
   Frank Weinhold                                : gennbo (NPA and NBO analysis)
   Christopher J. Cramer and Donald G. Truhlar   : smd solvation model
   Lars Goerigk                                  : TD-DFT with DH, B97 family of functionals
   V. Asgeirsson, H. Jonsson                     : NEB implementation
   FAccTs GmbH                                   : IRC, NEB, NEB-TS, DLPNO-Multilevel, CI-OPT
                                                   MM, QMMM, 2- and 3-layer-ONIOM, Crystal-QMMM,
                                                   LR-CPCM, SF, NACMEs, symmetry and pop. for TD-DFT,
                                                   nearIR, NL-DFT gradient (VV10), updates on ESD,
                                                   ML-optimized integration grids
   S Lehtola, MJT Oliveira, MAL Marques          : LibXC Library
   Liviu Ungur et al                             : ANISO software


 Your calculation uses the libint2 library for the computation of 2-el integrals
 For citations please refer to: http://libint.valeyev.net

 Your ORCA version has been built with support for libXC version: 5.1.0
 For citations please refer to: https://tddft.org/programs/libxc/

 This ORCA versions uses:
   CBLAS   interface :  Fast vector & matrix operations
   LAPACKE interface :  Fast linear algebra routines
   SCALAPACK package :  Parallel linear algebra routines
   Shared memory     :  Shared parallel matrices
   BLAS/LAPACK       :  OpenBLAS 0.3.15  USE64BITINT DYNAMIC_ARCH NO_AFFINITY Zen SINGLE_THREADED
        Core in use  :  Zen
   Copyright (c) 2011-2014, The OpenBLAS Project


================================================================================

----- Orbital basis set information -----
Your calculation utilizes the basis: def2-TZVP
   F. Weigend and R. Ahlrichs, Phys. Chem. Chem. Phys. 7, 3297 (2005).

----- AuxJ basis set information -----
Your calculation utilizes the auxiliary basis: def2/J
   F. Weigend, Phys. Chem. Chem. Phys. 8, 1057 (2006).

================================================================================
                                        WARNINGS
                       Please study these warnings very carefully!
================================================================================


WARNING: your system is open-shell and RHF/RKS was chosen
  ===> : WILL SWITCH to UHF/UKS


WARNING: Geometry Optimization
  ===> : Switching off AutoStart
         For restart on a previous wavefunction, please use MOREAD

INFO   : the flag for use of the SHARK integral package has been found!

================================================================================
                                       INPUT FILE
================================================================================
NAME = Fe_H2O_6_HighSpin.inp
|  1> ! PBE0 OPT FREQ def2-TZVP
|  2> %pal nprocs 16 end
|  3> %maxcore 3000
|  4> 
|  5> * xyz 3 6
|  6> Fe        -0.56480       -0.17888        0.17143
|  7> O         -2.02799       -0.48345       -1.55265
|  8> O          0.89832        0.12565        1.89551
|  9> O          0.09932        1.80349       -0.74238
| 10> O         -1.22898       -2.16130        1.08524
| 11> O         -2.18474        0.90894        1.35402
| 12> O          1.05508       -1.26674       -1.01116
| 13> H         -1.80316        1.69256        1.77974
| 14> H         -0.45585        2.52043       -0.39787
| 15> H         -2.88461       -0.09058       -1.32296
| 16> H         -1.97237       -2.00619        1.68874
| 17> H          0.45638        0.60483        2.61381
| 18> H          1.89579       -0.79144       -0.92063
| 19> H         -0.57618       -2.54900        1.08524
| 20> H         -3.03762        0.71317        1.10999
| 21> H         -1.38802       -1.03907       -2.18609
| 22> H          0.87312       -1.81437       -1.61639
| 23> H          0.99498        1.61043       -0.97830
| 24> H          1.71932       -0.24973        1.64655
| 25> **                         ****END OF INPUT****
================================================================================

                       *****************************
                       * Geometry Optimization Run *
                       *****************************

Geometry optimization settings:
Update method            Update   .... BFGS
Choice of coordinates    CoordSys .... Z-matrix Internals
Initial Hessian          InHess   .... Almoef's Model

Convergence Tolerances:
Energy Change            TolE     ....  5.0000e-06 Eh
Max. Gradient            TolMAXG  ....  3.0000e-04 Eh/bohr
RMS Gradient             TolRMSG  ....  1.0000e-04 Eh/bohr
Max. Displacement        TolMAXD  ....  4.0000e-03 bohr
RMS Displacement         TolRMSD  ....  2.0000e-03 bohr
Strict Convergence                ....  False
------------------------------------------------------------------------------
                        ORCA OPTIMIZATION COORDINATE SETUP
------------------------------------------------------------------------------

The optimization will be done in new redundant internal coordinates
Making redundant internal coordinates   ...  (new redundants) done
Evaluating the initial hessian          ...  (Almloef) done
Evaluating the coordinates              ...  done
Calculating the B-matrix                .... done
Calculating the G-matrix                .... done
Diagonalizing the G-matrix              .... done
The first mode is                       ....   57
The number of degrees of freedom        ....   51

    -----------------------------------------------------------------
                    Redundant Internal Coordinates


    -----------------------------------------------------------------
         Definition                    Initial Value    Approx d2E/dq
    -----------------------------------------------------------------
      1. B(O   1,Fe  0)                  2.2817         0.213971   
      2. B(O   2,Fe  0)                  2.2816         0.214011   
      3. B(O   3,Fe  0)                  2.2816         0.214013   
      4. B(O   4,Fe  0)                  2.2817         0.213965   
      5. B(O   5,Fe  0)                  2.2817         0.213982   
      6. B(O   6,Fe  0)                  2.2817         0.214000   
      7. B(H   7,O   5)                  0.9700         0.501200   
      8. B(H   8,O   3)                  0.9700         0.501198   
      9. B(H   9,O   1)                  0.9700         0.501199   
     10. B(H  10,O   4)                  0.9700         0.501201   
     11. B(H  11,O   2)                  0.9700         0.501221   
     12. B(H  12,O   6)                  0.9700         0.501202   
     13. B(H  13,O   4)                  0.7592         1.087056   
     14. B(H  14,O   5)                  0.9084         0.628365   
     15. B(H  15,O   1)                  1.0581         0.362656   
     16. B(H  16,O   6)                  0.8362         0.819227   
     17. B(H  17,O   3)                  0.9461         0.547162   
     18. B(H  18,O   2)                  0.9364         0.566950   
     19. A(O   2,Fe  0,O   6)           90.0010         0.370068   
     20. A(O   3,Fe  0,O   6)           90.0009         0.370069   
     21. A(O   2,Fe  0,O   4)           90.0000         0.370058   
     22. A(O   4,Fe  0,O   5)           89.9991         0.370049   
     23. A(O   2,Fe  0,O   3)           90.0011         0.370072   
     24. A(O   1,Fe  0,O   6)           89.9998         0.370056   
     25. A(O   4,Fe  0,O   6)           89.9995         0.370055   
     26. A(O   1,Fe  0,O   3)           90.0002         0.370060   
     27. A(O   3,Fe  0,O   5)           90.0004         0.370063   
     28. A(O   2,Fe  0,O   5)           90.0001         0.370063   
     29. A(O   1,Fe  0,O   5)           89.9991         0.370051   
     30. A(O   1,Fe  0,O   4)           89.9986         0.370046   
     31. A(H   9,O   1,H  15)          152.6969         0.301823   
     32. A(Fe  0,O   1,H  15)           97.7349         0.324775   
     33. A(Fe  0,O   1,H   9)          109.4709         0.342689   
     34. A(H  11,O   2,H  18)          142.5932         0.324475   
     35. A(Fe  0,O   2,H  18)          107.9273         0.349877   
     36. A(Fe  0,O   2,H  11)          109.4711         0.342702   
     37. A(H   8,O   3,H  17)          141.3704         0.322586   
     38. A(Fe  0,O   3,H   8)          109.4710         0.342700   
     39. A(Fe  0,O   3,H  17)          101.4274         0.347789   
     40. A(H  10,O   4,H  13)          137.7814         0.361852   
     41. A(Fe  0,O   4,H  13)          101.1501         0.391276   
     42. A(Fe  0,O   4,H  10)          109.4708         0.342688   
     43. A(Fe  0,O   5,H   7)          109.4715         0.342692   
     44. A(H   7,O   5,H  14)          131.3995         0.330018   
     45. A(Fe  0,O   5,H  14)          115.1240         0.356013   
     46. A(H  12,O   6,H  16)          125.2412         0.344931   
     47. A(Fe  0,O   6,H  16)          122.1994         0.372540   
     48. A(Fe  0,O   6,H  12)          109.4710         0.342697   
     49. D(H   9,O   1,Fe  0,O   6)    179.9998         0.001747   
     50. D(H   9,O   1,Fe  0,O   3)    -89.9993         0.001747   
     51. D(H   9,O   1,Fe  0,O   5)      0.0011         0.001747   
     52. D(H   9,O   1,Fe  0,O   4)     90.0002         0.001747   
     53. D(H  15,O   1,Fe  0,O   5)   -177.6617         0.001747   
     54. D(H  15,O   1,Fe  0,O   6)      2.3369         0.001747   
     55. D(H  15,O   1,Fe  0,O   4)    -87.6626         0.001747   
     56. D(H  15,O   1,Fe  0,O   3)     92.3379         0.001747   
     57. D(H  18,O   2,Fe  0,O   3)    -89.1935         0.001747   
     58. D(H  18,O   2,Fe  0,O   4)     90.8070         0.001747   
     59. D(H  11,O   2,Fe  0,O   5)     -0.0014         0.001747   
     60. D(H  11,O   2,Fe  0,O   6)    179.9999         0.001747   
     61. D(H  11,O   2,Fe  0,O   4)    -90.0005         0.001747   
     62. D(H  18,O   2,Fe  0,O   5)   -179.1939         0.001747   
     63. D(H  18,O   2,O   1,H   9)   -179.1932         0.001500   
     64. D(H  11,O   2,O   1,H  15)   -177.6628         0.001500   
     65. D(H  11,O   2,O   1,H   9)     -0.0003         0.001500   
     66. D(H  11,O   2,Fe  0,O   3)     89.9990         0.001747   
     67. D(H  18,O   2,O   1,H  15)      3.1443         0.001500   
     68. D(H  18,O   2,Fe  0,O   6)      0.8075         0.001747   
     69. D(H  17,O   3,Fe  0,O   6)    -23.5367         0.001747   
     70. D(H  17,O   3,Fe  0,O   2)     66.4642         0.001747   
     71. D(H  17,O   3,Fe  0,O   1)   -113.5365         0.001747   
     72. D(H   8,O   3,Fe  0,O   6)    179.9998         0.001747   
     73. D(H   8,O   3,Fe  0,O   5)      0.0009         0.001747   
     74. D(H  17,O   3,Fe  0,O   5)    156.4644         0.001747   
     75. D(H   8,O   3,Fe  0,O   2)    -89.9993         0.001747   
     76. D(H   8,O   3,Fe  0,O   1)     90.0000         0.001747   
     77. D(H  10,O   4,Fe  0,O   5)     -0.0015         0.001747   
     78. D(H  10,O   4,Fe  0,O   2)     89.9987         0.001747   
     79. D(H  10,O   4,Fe  0,O   1)    -90.0006         0.001747   
     80. D(H  13,O   4,O   3,H  17)      5.9688         0.001500   
     81. D(H  10,O   4,O   3,H  17)    156.4632         0.001500   
     82. D(H  10,O   4,O   3,H   8)     -0.0006         0.001500   
     83. D(H  13,O   4,Fe  0,O   6)     29.5055         0.001747   
     84. D(H  13,O   4,Fe  0,O   5)   -150.4956         0.001747   
     85. D(H  13,O   4,Fe  0,O   2)    -60.4955         0.001747   
     86. D(H  13,O   4,O   3,H   8)   -150.4950         0.001500   
     87. D(H  13,O   4,Fe  0,O   1)    119.5053         0.001747   
     88. D(H  10,O   4,Fe  0,O   6)    179.9996         0.001747   
     89. D(H  14,O   5,Fe  0,O   4)    -67.0575         0.001747   
     90. D(H  14,O   5,Fe  0,O   2)   -157.0575         0.001747   
     91. D(H  14,O   5,Fe  0,O   1)     22.9411         0.001747   
     92. D(H   7,O   5,Fe  0,O   4)    132.8043         0.001747   
     93. D(H   7,O   5,Fe  0,O   3)    -47.1969         0.001747   
     94. D(H  14,O   5,Fe  0,O   3)    112.9414         0.001747   
     95. D(H   7,O   5,Fe  0,O   2)     42.8043         0.001747   
     96. D(H   7,O   5,Fe  0,O   1)   -137.1971         0.001747   
     97. D(H  16,O   6,O   5,H  14)     -0.9292         0.001500   
     98. D(H  12,O   6,O   5,H  14)    160.1378         0.001500   
     99. D(H  12,O   6,O   5,H   7)     -0.0007         0.001500   
    100. D(H  16,O   6,Fe  0,O   4)     66.1284         0.001747   
    101. D(H  16,O   6,Fe  0,O   3)   -113.8705         0.001747   
    102. D(H  16,O   6,Fe  0,O   2)    156.1284         0.001747   
    103. D(H  16,O   6,Fe  0,O   1)    -23.8703         0.001747   
    104. D(H  12,O   6,Fe  0,O   4)   -132.8049         0.001747   
    105. D(H  12,O   6,Fe  0,O   3)     47.1962         0.001747   
    106. D(H  16,O   6,O   5,H   7)   -161.0677         0.001500   
    107. D(H  12,O   6,Fe  0,O   2)    -42.8049         0.001747   
    108. D(H  12,O   6,Fe  0,O   1)    137.1965         0.001747   
    -----------------------------------------------------------------

Number of atoms                         .... 19
Number of degrees of freedom            .... 108

         *************************************************************
         *                GEOMETRY OPTIMIZATION CYCLE   1            *
         *************************************************************
---------------------------------
CARTESIAN COORDINATES (ANGSTROEM)
---------------------------------
  Fe    -0.564800   -0.178880    0.171430
  O     -2.027990   -0.483450   -1.552650
  O      0.898320    0.125650    1.895510
  O      0.099320    1.803490   -0.742380
  O     -1.228980   -2.161300    1.085240
  O     -2.184740    0.908940    1.354020
  O      1.055080   -1.266740   -1.011160
  H     -1.803160    1.692560    1.779740
  H     -0.455850    2.520430   -0.397870
  H     -2.884610   -0.090580   -1.322960
  H     -1.972370   -2.006190    1.688740
  H      0.456380    0.604830    2.613810
  H      1.895790   -0.791440   -0.920630
  H     -0.576180   -2.549000    1.085240
  H     -3.037620    0.713170    1.109990
  H     -1.388020   -1.039070   -2.186090
  H      0.873120   -1.814370   -1.616390
  H      0.994980    1.610430   -0.978300
  H      1.719320   -0.249730    1.646550

----------------------------
CARTESIAN COORDINATES (A.U.)
----------------------------
  NO LB      ZA    FRAG     MASS         X           Y           Z
   0 Fe   26.0000    0    55.850   -1.067317   -0.338034    0.323956
   1 O     8.0000    0    15.999   -3.832346   -0.913588   -2.934083
   2 O     8.0000    0    15.999    1.697579    0.237444    3.581995
   3 O     8.0000    0    15.999    0.187688    3.408102   -1.402895
   4 O     8.0000    0    15.999   -2.322436   -4.084265    2.050806
   5 O     8.0000    0    15.999   -4.128560    1.717648    2.558727
   6 O     8.0000    0    15.999    1.993812   -2.393792   -1.910815
   7 H     1.0000    0     1.008   -3.407479    3.198475    3.363221
   8 H     1.0000    0     1.008   -0.861432    4.762922   -0.751865
   9 H     1.0000    0     1.008   -5.451123   -0.171171   -2.500032
  10 H     1.0000    0     1.008   -3.727239   -3.791150    3.191256
  11 H     1.0000    0     1.008    0.862433    1.142963    4.939385
  12 H     1.0000    0     1.008    3.582524   -1.495605   -1.739739
  13 H     1.0000    0     1.008   -1.088822   -4.816912    2.050806
  14 H     1.0000    0     1.008   -5.740270    1.347696    2.097577
  15 H     1.0000    0     1.008   -2.622978   -1.963558   -4.131111
  16 H     1.0000    0     1.008    1.649958   -3.428662   -3.054534
  17 H     1.0000    0     1.008    1.880240    3.043272   -1.848719
  18 H     1.0000    0     1.008    3.249044   -0.471921    3.111529

--------------------------------
INTERNAL COORDINATES (ANGSTROEM)
--------------------------------
 Fe     0   0   0     0.000000000000     0.00000000     0.00000000
 O      1   0   0     2.281696672961     0.00000000     0.00000000
 O      1   2   0     2.281646445377   179.99841636     0.00000000
 O      1   2   3     2.281643028039    90.00024905   209.05454097
 O      1   2   4     2.281703934541    89.99861719   179.99952894
 O      1   2   5     2.281682945569    89.99908760   270.00086052
 O      1   2   6     2.281659418515    89.99981213   179.99868875
 H      6   1   2     0.970000576907   109.47145202   222.80287634
 H      4   1   2     0.970001975565   109.47098493    89.99996753
 H      2   1   4     0.970001112061   109.47089196   270.00069787
 H      5   1   2     0.970000027938   109.47080819   269.99941999
 H      3   1   4     0.969989343240   109.47110671    89.99901811
 H      7   1   2     0.969999523196   109.47103945   137.19645540
 H      5   1   2     0.759249056634   101.15008919   119.50528215
 H      6   1   2     0.908449683912   115.12400620    22.94112923
 H      2   1   4     1.058074391950    97.73493351    92.33786806
 H      7   1   2     0.836248414886   122.19944150   336.12974230
 H      4   1   2     0.946116930194   101.42741044   246.46345717
 H      3   1   4     0.936446595381   107.92732629   270.80653791

---------------------------
INTERNAL COORDINATES (A.U.)
---------------------------
 Fe     0   0   0     0.000000000000     0.00000000     0.00000000
 O      1   0   0     4.311781832575     0.00000000     0.00000000
 O      1   2   0     4.311686916197   179.99841636     0.00000000
 O      1   2   3     4.311680458365    90.00024905   209.05454097
 O      1   2   4     4.311795554973    89.99861719   179.99952894
 O      1   2   5     4.311755891564    89.99908760   270.00086052
 O      1   2   6     4.311711431876    89.99981213   179.99868875
 H      6   1   2     1.833035440100   109.47145202   222.80287634
 H      4   1   2     1.833038083180   109.47098493    89.99996753
 H      2   1   4     1.833036451395   109.47089196   270.00069787
 H      5   1   2     1.833034402699   109.47080819   269.99941999
 H      3   1   4     1.833014211547   109.47110671    89.99901811
 H      7   1   2     1.833033448874   109.47103945   137.19645540
 H      5   1   2     1.434772784477   101.15008919   119.50528215
 H      6   1   2     1.716721109041   115.12400620    22.94112923
 H      2   1   4     1.999470830100    97.73493351    92.33786806
 H      7   1   2     1.580280484061   122.19944150   336.12974230
 H      4   1   2     1.787901888733   101.42741044   246.46345717
 H      3   1   4     1.769627604312   107.92732629   270.80653791

---------------------
BASIS SET INFORMATION
---------------------
There are 3 groups of distinct atoms

 Group   1 Type Fe  : 17s11p7d1f contracted to 6s4p4d1f pattern {842111/6311/4111/1}
 Group   2 Type O   : 11s6p2d1f contracted to 5s3p2d1f pattern {62111/411/11/1}
 Group   3 Type H   : 5s1p contracted to 3s1p pattern {311/1}

Atom   0Fe   basis set group =>   1
Atom   1O    basis set group =>   2
Atom   2O    basis set group =>   2
Atom   3O    basis set group =>   2
Atom   4O    basis set group =>   2
Atom   5O    basis set group =>   2
Atom   6O    basis set group =>   2
Atom   7H    basis set group =>   3
Atom   8H    basis set group =>   3
Atom   9H    basis set group =>   3
Atom  10H    basis set group =>   3
Atom  11H    basis set group =>   3
Atom  12H    basis set group =>   3
Atom  13H    basis set group =>   3
Atom  14H    basis set group =>   3
Atom  15H    basis set group =>   3
Atom  16H    basis set group =>   3
Atom  17H    basis set group =>   3
Atom  18H    basis set group =>   3
---------------------------------
AUXILIARY/J BASIS SET INFORMATION
---------------------------------
There are 3 groups of distinct atoms

 Group   1 Type Fe  : 19s5p5d3f3g contracted to 8s5p5d2f3g pattern {121111111/11111/11111/21/111}
 Group   2 Type O   : 12s5p4d2f1g contracted to 6s4p3d1f1g pattern {711111/2111/211/2/1}
 Group   3 Type H   : 5s2p1d contracted to 3s1p1d pattern {311/2/1}

Atom   0Fe   basis set group =>   1
Atom   1O    basis set group =>   2
Atom   2O    basis set group =>   2
Atom   3O    basis set group =>   2
Atom   4O    basis set group =>   2
Atom   5O    basis set group =>   2
Atom   6O    basis set group =>   2
Atom   7H    basis set group =>   3
Atom   8H    basis set group =>   3
Atom   9H    basis set group =>   3
Atom  10H    basis set group =>   3
Atom  11H    basis set group =>   3
Atom  12H    basis set group =>   3
Atom  13H    basis set group =>   3
Atom  14H    basis set group =>   3
Atom  15H    basis set group =>   3
Atom  16H    basis set group =>   3
Atom  17H    basis set group =>   3
Atom  18H    basis set group =>   3


           ************************************************************
           *        Program running with 16 parallel MPI-processes    *
           *              working on a common directory               *
           ************************************************************
------------------------------------------------------------------------------
                           ORCA GTO INTEGRAL CALCULATION
                           -- RI-GTO INTEGRALS CHOSEN --
------------------------------------------------------------------------------
------------------------------------------------------------------------------
                   ___                                                        
                  /   \      - P O W E R E D   B Y -                         
                 /     \                                                     
                 |  |  |   _    _      __       _____    __    __             
                 |  |  |  | |  | |    /  \     |  _  \  |  |  /  |          
                  \  \/   | |  | |   /    \    | | | |  |  | /  /          
                 / \  \   | |__| |  /  /\  \   | |_| |  |  |/  /          
                |  |  |   |  __  | /  /__\  \  |    /   |      \           
                |  |  |   | |  | | |   __   |  |    \   |  |\   \          
                \     /   | |  | | |  |  |  |  | |\  \  |  | \   \       
                 \___/    |_|  |_| |__|  |__|  |_| \__\ |__|  \__/        
                                                                              
                      - O R C A' S   B I G   F R I E N D -                    
                                      &                                       
                       - I N T E G R A L  F E E D E R -                       
                                                                              
 v1 FN, 2020, v2 2021                                                         
------------------------------------------------------------------------------


Reading SHARK input file Fe_H2O_6_HighSpin.SHARKINP.tmp ... ok
----------------------
SHARK INTEGRAL PACKAGE
----------------------

Number of atoms                             ...     19
Number of basis functions                   ...    303
Number of shells                            ...    129
Maximum angular momentum                    ...      3
Integral batch strategy                     ... SHARK/LIBINT Hybrid
RI-J (if used) integral strategy            ... SPLIT-RIJ (Revised 2003 algorithm where possible)
Printlevel                                  ...      1
Contraction scheme used                     ... SEGMENTED contraction
Coulomb Range Separation                    ... NOT USED
Exchange Range Separation                   ... NOT USED
Finite Nucleus Model                        ... NOT USED
Auxiliary Coulomb fitting basis             ... AVAILABLE
   # of basis functions in Aux-J            ...    515
   # of shells in Aux-J                     ...    173
   Maximum angular momentum in Aux-J        ...      4
Auxiliary J/K fitting basis                 ... NOT available
Auxiliary Correlation fitting basis         ... NOT available
Auxiliary 'external' fitting basis          ... NOT available
Integral threshold                          ...     2.500000e-11
Primitive cut-off                           ...     2.500000e-12
Primitive pair pre-selection threshold      ...     2.500000e-12

Calculating pre-screening integrals         ... done (  0.0 sec) Dimension = 129
Organizing shell pair data                  ... done (  0.1 sec)
Shell pair information
Total number of shell pairs                 ...      8385
Shell pairs after pre-screening             ...      7199
Total number of primitive shell pairs       ...     26333
Primitive shell pairs kept                  ...     15708
          la=0 lb=0:   2191 shell pairs
          la=1 lb=0:   2131 shell pairs
          la=1 lb=1:    552 shell pairs
          la=2 lb=0:    982 shell pairs
          la=2 lb=1:    468 shell pairs
          la=2 lb=2:    115 shell pairs
          la=3 lb=0:    409 shell pairs
          la=3 lb=1:    220 shell pairs
          la=3 lb=2:    106 shell pairs
          la=3 lb=3:     25 shell pairs

Calculating one electron integrals          ... done (  0.0 sec)
Calculating RI/J V-Matrix + Cholesky decomp.... done (  0.0 sec)
Calculating Nuclear repulsion               ... done (  0.0 sec) ENN=    631.320992387018 Eh

SHARK setup successfully completed in   0.3 seconds

Maximum memory used throughout the entire GTOINT-calculation: 23.9 MB


           ************************************************************
           *        Program running with 16 parallel MPI-processes    *
           *              working on a common directory               *
           ************************************************************
-------------------------------------------------------------------------------
                                 ORCA SCF
-------------------------------------------------------------------------------

------------
SCF SETTINGS
------------
Hamiltonian:
 Density Functional     Method          .... DFT(GTOs)
 Exchange Functional    Exchange        .... PBE
   PBE kappa parameter   XKappa         ....  0.804000
   PBE mue parameter    XMuePBE         ....  0.219520
 Correlation Functional Correlation     .... PBE
   PBE beta parameter  CBetaPBE         ....  0.066725
 LDA part of GGA corr.  LDAOpt          .... PW91-LDA
 Gradients option       PostSCFGGA      .... off
 Hybrid DFT is turned on
   Fraction HF Exchange ScalHFX         ....  0.250000
   Scaling of DF-GGA-X  ScalDFX         ....  0.750000
   Scaling of DF-GGA-C  ScalDFC         ....  1.000000
   Scaling of DF-LDA-C  ScalLDAC        ....  1.000000
   Perturbative correction              ....  0.000000
   Density functional embedding theory  .... OFF
   NL short-range parameter             ....  6.900000
 RI-approximation to the Coulomb term is turned on
   Number of AuxJ basis functions       .... 515
   RIJ-COSX (HFX calculated with COS-X)).... on


General Settings:
 Integral files         IntName         .... Fe_H2O_6_HighSpin
 Hartree-Fock type      HFTyp           .... UHF
 Total Charge           Charge          ....    3
 Multiplicity           Mult            ....    6
 Number of Electrons    NEL             ....   83
 Basis Dimension        Dim             ....  303
 Nuclear Repulsion      ENuc            ....    631.3209923870 Eh

Convergence Acceleration:
 DIIS                   CNVDIIS         .... on
   Start iteration      DIISMaxIt       ....    12
   Startup error        DIISStart       ....  0.200000
   # of expansion vecs  DIISMaxEq       ....     5
   Bias factor          DIISBfac        ....   1.050
   Max. coefficient     DIISMaxC        ....  10.000
 Trust-Rad. Augm. Hess. CNVTRAH         .... auto
   Auto Start mean grad. ratio tolernc. ....  1.125000
   Auto Start start iteration           ....    20
   Auto Start num. interpolation iter.  ....    10
   Max. Number of Micro iterations      ....    16
   Max. Number of Macro iterations      .... Maxiter - #DIIS iter
   Number of Davidson start vectors     ....     2
   Converg. threshold I  (grad. norm)   ....   1.000e-05
   Converg. threshold II (energy diff.) ....   1.000e-08
   Grad. Scal. Fac. for Micro threshold ....   0.100
   Minimum threshold for Micro iter.    ....   0.010
   NR start threshold (gradient norm)   ....   0.001
   Initial trust radius                 ....   0.400
   Minimum AH scaling param. (alpha)    ....   1.000
   Maximum AH scaling param. (alpha)    .... 1000.000
   Orbital update algorithm             .... Taylor
   White noise on init. David. guess    .... on
   Maximum white noise                  ....   0.010
   Quad. conv. algorithm                .... NR
 SOSCF                  CNVSOSCF        .... off
 Level Shifting         CNVShift        .... on
   Level shift para.    LevelShift      ....    0.2500
   Turn off err/grad.   ShiftErr        ....    0.0010
 Zerner damping         CNVZerner       .... off
 Static damping         CNVDamp         .... on
   Fraction old density DampFac         ....    0.7000
   Max. Damping (<1)    DampMax         ....    0.9800
   Min. Damping (>=0)   DampMin         ....    0.0000
   Turn off err/grad.   DampErr         ....    0.1000
 Fernandez-Rico         CNVRico         .... off

SCF Procedure:
 Maximum # iterations   MaxIter         ....   125
 SCF integral mode      SCFMode         .... Direct
   Integral package                     .... SHARK and LIBINT hybrid scheme
 Reset frequency        DirectResetFreq ....    20
 Integral Threshold     Thresh          ....  2.500e-11 Eh
 Primitive CutOff       TCut            ....  2.500e-12 Eh

Convergence Tolerance:
 Convergence Check Mode ConvCheckMode   .... Total+1el-Energy
 Convergence forced     ConvForced      .... 0
 Energy Change          TolE            ....  1.000e-08 Eh
 1-El. energy change                    ....  1.000e-05 Eh
 DIIS Error             TolErr          ....  5.000e-07


Diagonalization of the overlap matrix:
Smallest eigenvalue                        ... 2.099e-03
Time for diagonalization                   ...    0.010 sec
Threshold for overlap eigenvalues          ... 1.000e-08
Number of eigenvalues below threshold      ... 0
Time for construction of square roots      ...    0.011 sec
Total time needed                          ...    0.021 sec

Time for model grid setup =    0.114 sec

------------------------------
INITIAL GUESS: MODEL POTENTIAL
------------------------------
Loading Hartree-Fock densities                     ... done
Calculating cut-offs                               ... done
Initializing the effective Hamiltonian             ... done
Setting up the integral package (SHARK)            ... done
Starting the Coulomb interaction                   ... done (   0.0 sec)
Reading the grid                                   ... done
Mapping shells                                     ... done
Starting the XC term evaluation                    ... done (   0.0 sec)
  promolecular density results
     # of electrons  =     85.997284327
     EX              =   -106.719755212
     EC              =     -3.116050480
     EX+EC           =   -109.835805693
Transforming the Hamiltonian                       ... done (   0.0 sec)
Diagonalizing the Hamiltonian                      ... done (   0.0 sec)
Back transforming the eigenvectors                 ... done (   0.0 sec)
Now organizing SCF variables                       ... done
                      ------------------
                      INITIAL GUESS DONE (   0.2 sec)
                      ------------------
-------------------
DFT GRID GENERATION
-------------------

General Integration Accuracy     IntAcc      ... 4.388
Radial Grid Type                 RadialGrid  ... OptM3 with GC (2021)
Angular Grid (max. ang.)         AngularGrid ... 4 (Lebedev-302)
Angular grid pruning method      GridPruning ... 4 (adaptive)
Weight generation scheme         WeightScheme... Becke
Basis function cutoff            BFCut       ... 1.0000e-11
Integration weight cutoff        WCut        ... 1.0000e-14
Angular grids for H and He will be reduced by one unit
Partially contracted basis set               ... off
Rotationally invariant grid construction     ... off

Total number of grid points                  ...    86558
Total number of batches                      ...     1364
Average number of points per batch           ...       63
Average number of grid points per atom       ...     4556
Time for grid setup =    0.386 sec

--------------------
COSX GRID GENERATION
--------------------

GRIDX 1
-------
General Integration Accuracy     IntAcc      ... 3.816
Radial Grid Type                 RadialGrid  ... OptM3 with GC (2021)
Angular Grid (max. ang.)         AngularGrid ... 1 (Lebedev-50)
Angular grid pruning method      GridPruning ... 4 (adaptive)
Weight generation scheme         WeightScheme... Becke
Basis function cutoff            BFCut       ... 1.0000e-11
Integration weight cutoff        WCut        ... 1.0000e-14
Angular grids for H and He will be reduced by one unit
Partially contracted basis set               ... on
Rotationally invariant grid construction     ... off

Total number of grid points                  ...    10912
Total number of batches                      ...      181
Average number of points per batch           ...       60
Average number of grid points per atom       ...      574
UseSFitting                                  ... on

GRIDX 2
-------
General Integration Accuracy     IntAcc      ... 4.020
Radial Grid Type                 RadialGrid  ... OptM3 with GC (2021)
Angular Grid (max. ang.)         AngularGrid ... 2 (Lebedev-110)
Angular grid pruning method      GridPruning ... 4 (adaptive)
Weight generation scheme         WeightScheme... Becke
Basis function cutoff            BFCut       ... 1.0000e-11
Integration weight cutoff        WCut        ... 1.0000e-14
Angular grids for H and He will be reduced by one unit
Partially contracted basis set               ... on
Rotationally invariant grid construction     ... off

Total number of grid points                  ...    22786
Total number of batches                      ...      367
Average number of points per batch           ...       62
Average number of grid points per atom       ...     1199
UseSFitting                                  ... on

GRIDX 3
-------
General Integration Accuracy     IntAcc      ... 4.338
Radial Grid Type                 RadialGrid  ... OptM3 with GC (2021)
Angular Grid (max. ang.)         AngularGrid ... 3 (Lebedev-194)
Angular grid pruning method      GridPruning ... 4 (adaptive)
Weight generation scheme         WeightScheme... Becke
Basis function cutoff            BFCut       ... 1.0000e-11
Integration weight cutoff        WCut        ... 1.0000e-14
Angular grids for H and He will be reduced by one unit
Partially contracted basis set               ... on
Rotationally invariant grid construction     ... off

Total number of grid points                  ...    49970
Total number of batches                      ...      791
Average number of points per batch           ...       63
Average number of grid points per atom       ...     2630
UseSFitting                                  ... on

Time for X-Grid setup             =    0.326 sec

--------------
SCF ITERATIONS
--------------
ITER       Energy         Delta-E        Max-DP      RMS-DP      [F,P]     Damp
               ***  Starting incremental Fock matrix formation  ***
  0  -1719.6582895982   0.000000000000 0.14516175  0.00131421  0.3392341 0.7000
  1  -1719.7127077086  -0.054418110407 0.04037889  0.00045888  0.2780373 0.7000
                               ***Turning on DIIS***
  2  -1720.0032630541  -0.290555345470 0.09498967  0.00078451  0.0538932 0.0000
  3  -1720.1881575196  -0.184894465474 0.00746841  0.00008939  0.2712314 0.7000
  4  -1720.2314998244  -0.043342304819 0.00715084  0.00008720  0.2406612 0.7000
  5  -1720.2698597978  -0.038359973388 0.00733627  0.00007815  0.2122695 0.7000
  6  -1720.3014611193  -0.031601321514 0.00809276  0.00007556  0.1877571 0.7000
  7  -1720.3290704537  -0.027609334406 0.02597078  0.00019235  0.1651861 0.7000
  8  -1720.3779565940  -0.048886140347 0.01725082  0.00013600  0.1099983 0.7000
  9  -1720.4037513581  -0.025794764035 0.03038522  0.00028681  0.0722040 0.0000
 10  -1720.4363407593  -0.032589401204 0.00852123  0.00003900  0.0120629 0.0000
 11  -1720.4367886969  -0.000447937650 0.00415840  0.00001716  0.0055644 0.0000
 12  -1720.4369038154  -0.000115118522 0.00251604  0.00001040  0.0022923 0.0000
 13  -1720.4369345504  -0.000030734936 0.00197608  0.00001081  0.0006726 0.0000
               *** Restarting incremental Fock matrix formation ***
                                   *** Resetting DIIS ***
 14  -1720.4369361515  -0.000001601156 0.00050772  0.00000483  0.0001987 0.0000
 15  -1720.4369375094  -0.000001357844 0.00034396  0.00000258  0.0005724 0.0000
 16  -1720.4369392805  -0.000001771078 0.00014226  0.00000175  0.0002077 0.0000
 17  -1720.4369399209  -0.000000640431 0.00011450  0.00000148  0.0001480 0.0000
 18  -1720.4369402644  -0.000000343493 0.00005905  0.00000101  0.0000263 0.0000
 19  -1720.4369403647  -0.000000100275 0.00001687  0.00000025  0.0000199 0.0000
 20  -1720.4369403656  -0.000000000939 0.00000666  0.00000008  0.0000123 0.0000
 21  -1720.4369403327   0.000000032864 0.00000526  0.00000006  0.0000037 0.0000
 22  -1720.4369403365  -0.000000003722 0.00000222  0.00000003  0.0000036 0.0000
 23  -1720.4369403141   0.000000022367 0.00000226  0.00000002  0.0000039 0.0000
 24  -1720.4369403216  -0.000000007544 0.00000132  0.00000002  0.0000011 0.0000
                            ***DIIS convergence achieved***

               *****************************************************
               *                     SUCCESS                       *
               *           SCF CONVERGED AFTER  25 CYCLES          *
               *****************************************************

Old exchange energy                            =    -26.816060648 Eh
New exchange energy                            =    -26.816003751 Eh
Exchange energy change after final integration =      0.000056897 Eh
Total energy after final integration           =  -1720.436883437 Eh
Final COS-X integration done in                =     1.183 sec

----------------
TOTAL SCF ENERGY
----------------

Total Energy       :        -1720.43688344 Eh          -46815.46765 eV

Components:
Nuclear Repulsion  :          631.32099239 Eh           17179.11757 eV
Electronic Energy  :        -2351.75787582 Eh          -63994.58522 eV
One Electron Energy:        -3584.33689310 Eh          -97534.76543 eV
Two Electron Energy:         1232.57901728 Eh           33540.18021 eV
Max COSX asymmetry :            0.00000077 Eh               0.00002 eV

Virial components:
Potential Energy   :        -3438.02777775 Eh          -93553.49200 eV
Kinetic Energy     :         1717.59089431 Eh           46738.02435 eV
Virial Ratio       :            2.00165697


DFT components:
N(Alpha)           :       43.999996758657 electrons
N(Beta)            :       38.999995533216 electrons
N(Total)           :       82.999992291873 electrons
E(X)               :      -80.371863103517 Eh       
E(C)               :       -3.044940937001 Eh       
E(XC)              :      -83.416804040518 Eh       
DFET-embed. en.    :        0.000000000000 Eh       

---------------
SCF CONVERGENCE
---------------

  Last Energy change         ...   -1.2621e-08  Tolerance :   1.0000e-08
  Last MAX-Density change    ...    0.0000e+00  Tolerance :   1.0000e-07
  Last RMS-Density change    ...    0.0000e+00  Tolerance :   5.0000e-09
  Last DIIS Error            ...    3.3048e-07  Tolerance :   5.0000e-07

             **** THE GBW FILE WAS UPDATED (Fe_H2O_6_HighSpin.gbw) ****
             **** DENSITY Fe_H2O_6_HighSpin.scfp WAS UPDATED ****
             **** ENERGY FILE WAS UPDATED (Fe_H2O_6_HighSpin.en.tmp) ****
----------------------
UHF SPIN CONTAMINATION
----------------------

Warning: in a DFT calculation there is little theoretical justification to 
         calculate <S**2> as in Hartree-Fock theory. We will do it anyways
         but you should keep in mind that the values have only limited relevance

Expectation value of <S**2>     :     8.756152
Ideal value S*(S+1) for S=2.5   :     8.750000
Deviation                       :     0.006152

             **** THE GBW FILE WAS UPDATED (Fe_H2O_6_HighSpin.gbw) ****
             **** DENSITY Fe_H2O_6_HighSpin.scfp WAS UPDATED ****
----------------
ORBITAL ENERGIES
----------------
                 SPIN UP ORBITALS
  NO   OCC          E(Eh)            E(eV) 
   0   1.0000    -257.120195     -6996.5962 
   1   1.0000     -30.942259      -841.9817 
   2   1.0000     -26.762171      -728.2357 
   3   1.0000     -26.758853      -728.1454 
   4   1.0000     -26.758112      -728.1252 
   5   1.0000     -19.771972      -538.0227 
   6   1.0000     -19.768904      -537.9392 
   7   1.0000     -19.759186      -537.6748 
   8   1.0000     -19.758796      -537.6642 
   9   1.0000     -19.757990      -537.6423 
  10   1.0000     -19.734908      -537.0142 
  11   1.0000      -4.362667      -118.7142 
  12   1.0000      -3.128241       -85.1238 
  13   1.0000      -3.120022       -84.9001 
  14   1.0000      -3.118036       -84.8461 
  15   1.0000      -1.625822       -44.2409 
  16   1.0000      -1.621079       -44.1118 
  17   1.0000      -1.603642       -43.6373 
  18   1.0000      -1.581267       -43.0285 
  19   1.0000      -1.577482       -42.9255 
  20   1.0000      -1.553995       -42.2864 
  21   1.0000      -1.176544       -32.0154 
  22   1.0000      -1.171700       -31.8836 
  23   1.0000      -1.159214       -31.5438 
  24   1.0000      -1.147202       -31.2169 
  25   1.0000      -1.143262       -31.1097 
  26   1.0000      -1.126749       -30.6604 
  27   1.0000      -1.118692       -30.4412 
  28   1.0000      -1.107905       -30.1476 
  29   1.0000      -1.104541       -30.0561 
  30   1.0000      -1.102582       -30.0028 
  31   1.0000      -1.100710       -29.9518 
  32   1.0000      -1.004315       -27.3288 
  33   1.0000      -0.975891       -26.5554 
  34   1.0000      -0.941310       -25.6143 
  35   1.0000      -0.935826       -25.4651 
  36   1.0000      -0.918127       -24.9835 
  37   1.0000      -0.900732       -24.5102 
  38   1.0000      -0.895495       -24.3677 
  39   1.0000      -0.890196       -24.2235 
  40   1.0000      -0.886392       -24.1200 
  41   1.0000      -0.875807       -23.8319 
  42   1.0000      -0.870884       -23.6980 
  43   1.0000      -0.862738       -23.4763 
  44   0.0000      -0.539856       -14.6902 
  45   0.0000      -0.472346       -12.8532 
  46   0.0000      -0.460401       -12.5282 
  47   0.0000      -0.444044       -12.0830 
  48   0.0000      -0.430223       -11.7070 
  49   0.0000      -0.398388       -10.8407 
  50   0.0000      -0.375678       -10.2227 
  51   0.0000      -0.358170        -9.7463 
  52   0.0000      -0.340108        -9.2548 
  53   0.0000      -0.333095        -9.0640 
  54   0.0000      -0.328832        -8.9480 
  55   0.0000      -0.309868        -8.4319 
  56   0.0000      -0.296691        -8.0734 
  57   0.0000      -0.290362        -7.9012 
  58   0.0000      -0.283410        -7.7120 
  59   0.0000      -0.266974        -7.2647 
  60   0.0000      -0.257185        -6.9984 
  61   0.0000      -0.250712        -6.8222 
  62   0.0000      -0.236781        -6.4431 
  63   0.0000      -0.217495        -5.9183 
  64   0.0000      -0.178880        -4.8676 
  65   0.0000      -0.163584        -4.4513 
  66   0.0000      -0.149585        -4.0704 
  67   0.0000      -0.126501        -3.4423 
  68   0.0000      -0.123984        -3.3738 
  69   0.0000      -0.106020        -2.8850 
  70   0.0000      -0.062913        -1.7119 
  71   0.0000      -0.039259        -1.0683 
  72   0.0000      -0.021490        -0.5848 
  73   0.0000      -0.006081        -0.1655 
  74   0.0000       0.006919         0.1883 
  75   0.0000       0.033143         0.9019 
  76   0.0000       0.046912         1.2765 
  77   0.0000       0.050637         1.3779 
  78   0.0000       0.063512         1.7282 
  79   0.0000       0.075311         2.0493 
  80   0.0000       0.079468         2.1624 
  81   0.0000       0.093865         2.5542 
  82   0.0000       0.099513         2.7079 
  83   0.0000       0.108306         2.9471 
  84   0.0000       0.109469         2.9788 
  85   0.0000       0.116699         3.1755 
  86   0.0000       0.122063         3.3215 
  87   0.0000       0.130945         3.5632 
  88   0.0000       0.148205         4.0329 
  89   0.0000       0.164182         4.4676 
  90   0.0000       0.186420         5.0727 
  91   0.0000       0.206318         5.6142 
  92   0.0000       0.214460         5.8357 
  93   0.0000       0.239551         6.5185 
  94   0.0000       0.250776         6.8240 
  95   0.0000       0.258365         7.0305 
  96   0.0000       0.268681         7.3112 
  97   0.0000       0.271380         7.3846 
  98   0.0000       0.280331         7.6282 
  99   0.0000       0.299984         8.1630 
 100   0.0000       0.303842         8.2680 
 101   0.0000       0.344969         9.3871 
 102   0.0000       0.349107         9.4997 
 103   0.0000       0.387890        10.5550 
 104   0.0000       0.417459        11.3596 
 105   0.0000       0.443681        12.0732 
 106   0.0000       0.562835        15.3155 
 107   0.0000       0.615922        16.7601 
 108   0.0000       0.644378        17.5344 
 109   0.0000       0.657914        17.9027 
 110   0.0000       0.730342        19.8736 
 111   0.0000       0.755785        20.5660 
 112   0.0000       0.779448        21.2099 
 113   0.0000       0.799381        21.7523 
 114   0.0000       0.813388        22.1334 
 115   0.0000       0.840637        22.8749 
 116   0.0000       0.848221        23.0813 
 117   0.0000       0.896899        24.4059 
 118   0.0000       0.907824        24.7032 
 119   0.0000       0.942204        25.6387 
 120   0.0000       0.969006        26.3680 
 121   0.0000       0.990526        26.9536 
 122   0.0000       0.995253        27.0822 
 123   0.0000       1.003795        27.3147 
 124   0.0000       1.011978        27.5373 
 125   0.0000       1.021410        27.7940 
 126   0.0000       1.022091        27.8125 
 127   0.0000       1.038629        28.2625 
 128   0.0000       1.060237        28.8505 
 129   0.0000       1.078117        29.3371 
 130   0.0000       1.092216        29.7207 
 131   0.0000       1.110708        30.2239 
 132   0.0000       1.120257        30.4837 
 133   0.0000       1.141931        31.0735 
 134   0.0000       1.161364        31.6023 
 135   0.0000       1.236522        33.6475 
 136   0.0000       1.263121        34.3713 
 137   0.0000       1.288701        35.0673 
 138   0.0000       1.310890        35.6711 
 139   0.0000       1.313323        35.7373 
 140   0.0000       1.330671        36.2094 
 141   0.0000       1.355059        36.8730 
 142   0.0000       1.375680        37.4341 
 143   0.0000       1.383398        37.6442 
 144   0.0000       1.415849        38.5272 
 145   0.0000       1.421251        38.6742 
 146   0.0000       1.452885        39.5350 
 147   0.0000       1.456445        39.6319 
 148   0.0000       1.466177        39.8967 
 149   0.0000       1.476095        40.1666 
 150   0.0000       1.485648        40.4265 
 151   0.0000       1.490224        40.5511 
 152   0.0000       1.512292        41.1516 
 153   0.0000       1.533789        41.7365 
 154   0.0000       1.545972        42.0680 
 155   0.0000       1.551727        42.2246 
 156   0.0000       1.615884        43.9704 
 157   0.0000       1.660408        45.1820 
 158   0.0000       1.756779        47.8044 
 159   0.0000       1.783898        48.5423 
 160   0.0000       1.800552        48.9955 
 161   0.0000       1.803620        49.0790 
 162   0.0000       1.816782        49.4371 
 163   0.0000       1.818545        49.4851 
 164   0.0000       1.843791        50.1721 
 165   0.0000       1.851179        50.3731 
 166   0.0000       1.856884        50.5284 
 167   0.0000       1.867212        50.8094 
 168   0.0000       1.919502        52.2323 
 169   0.0000       1.942342        52.8538 
 170   0.0000       1.948236        53.0142 
 171   0.0000       1.981260        53.9128 
 172   0.0000       2.009777        54.6888 
 173   0.0000       2.035123        55.3785 
 174   0.0000       2.068661        56.2911 
 175   0.0000       2.093658        56.9713 
 176   0.0000       2.107703        57.3535 
 177   0.0000       2.115904        57.5767 
 178   0.0000       2.136679        58.1420 
 179   0.0000       2.141201        58.2650 
 180   0.0000       2.155536        58.6551 
 181   0.0000       2.158807        58.7441 
 182   0.0000       2.174961        59.1837 
 183   0.0000       2.178152        59.2705 
 184   0.0000       2.200214        59.8709 
 185   0.0000       2.216072        60.3024 
 186   0.0000       2.231866        60.7321 
 187   0.0000       2.239308        60.9347 
 188   0.0000       2.254757        61.3550 
 189   0.0000       2.270950        61.7957 
 190   0.0000       2.284954        62.1768 
 191   0.0000       2.315369        63.0044 
 192   0.0000       2.331379        63.4400 
 193   0.0000       2.342201        63.7345 
 194   0.0000       2.395269        65.1786 
 195   0.0000       2.428890        66.0935 
 196   0.0000       2.484785        67.6144 
 197   0.0000       2.558868        69.6303 
 198   0.0000       2.673153        72.7402 
 199   0.0000       2.698027        73.4170 
 200   0.0000       2.833343        77.0992 
 201   0.0000       2.875668        78.2509 
 202   0.0000       2.886059        78.5336 
 203   0.0000       2.955375        80.4199 
 204   0.0000       3.151502        85.7567 
 205   0.0000       3.167606        86.1949 
 206   0.0000       3.197005        86.9949 
 207   0.0000       3.284688        89.3809 
 208   0.0000       3.294219        89.6402 
 209   0.0000       3.304824        89.9288 
 210   0.0000       3.311149        90.1009 
 211   0.0000       3.324956        90.4766 
 212   0.0000       3.326812        90.5272 
 213   0.0000       3.340052        90.8874 
 214   0.0000       3.345410        91.0332 
 215   0.0000       3.354013        91.2673 
 216   0.0000       3.371993        91.7566 
 217   0.0000       3.380884        91.9985 
 218   0.0000       3.412820        92.8676 
 219   0.0000       3.439166        93.5845 
 220   0.0000       3.467205        94.3474 
 221   0.0000       3.484277        94.8120 
 222   0.0000       3.538223        96.2799 
 223   0.0000       3.576752        97.3284 
 224   0.0000       3.760759       102.3355 
 225   0.0000       4.558880       124.0534 
 226   0.0000       4.573945       124.4634 
 227   0.0000       4.588375       124.8560 
 228   0.0000       4.591360       124.9372 
 229   0.0000       4.599556       125.1603 
 230   0.0000       4.604701       125.3003 
 231   0.0000       4.609702       125.4364 
 232   0.0000       4.615104       125.5834 
 233   0.0000       4.616641       125.6252 
 234   0.0000       4.629508       125.9753 
 235   0.0000       4.649525       126.5200 
 236   0.0000       4.657979       126.7501 
 237   0.0000       4.665921       126.9662 
 238   0.0000       4.693990       127.7300 
 239   0.0000       4.698691       127.8579 
 240   0.0000       4.726560       128.6162 
 241   0.0000       4.767120       129.7199 
 242   0.0000       4.780329       130.0794 
 243   0.0000       4.781434       130.1094 
 244   0.0000       4.791538       130.3844 
 245   0.0000       4.821274       131.1935 
 246   0.0000       4.930994       134.1792 
 247   0.0000       4.945922       134.5854 
 248   0.0000       4.969924       135.2385 
 249   0.0000       4.988315       135.7389 
 250   0.0000       5.003897       136.1629 
 251   0.0000       5.009885       136.3259 
 252   0.0000       5.013413       136.4219 
 253   0.0000       5.064845       137.8214 
 254   0.0000       5.167840       140.6241 
 255   0.0000       5.355868       145.7406 
 256   0.0000       5.594956       152.2465 
 257   0.0000       5.650774       153.7654 
 258   0.0000       5.672163       154.3474 
 259   0.0000       5.691376       154.8702 
 260   0.0000       5.699400       155.0885 
 261   0.0000       5.713094       155.4612 
 262   0.0000       5.735795       156.0789 
 263   0.0000       5.746763       156.3774 
 264   0.0000       5.765776       156.8947 
 265   0.0000       5.787910       157.4971 
 266   0.0000       5.805033       157.9630 
 267   0.0000       5.829062       158.6169 
 268   0.0000       5.843784       159.0175 
 269   0.0000       5.870373       159.7410 
 270   0.0000       5.878680       159.9670 
 271   0.0000       5.882512       160.0713 
 272   0.0000       5.886696       160.1851 
 273   0.0000       5.903830       160.6514 
 274   0.0000       5.910625       160.8363 
 275   0.0000       5.918997       161.0641 
 276   0.0000       5.922412       161.1570 
 277   0.0000       5.942576       161.7057 
 278   0.0000       5.960357       162.1896 
 279   0.0000       5.966130       162.3467 
 280   0.0000       5.994220       163.1110 
 281   0.0000       5.999723       163.2608 
 282   0.0000       6.031015       164.1123 
 283   0.0000       6.089967       165.7164 
 284   0.0000       6.134492       166.9280 
 285   0.0000       6.209665       168.9736 
 286   0.0000       6.285631       171.0407 
 287   0.0000       6.313946       171.8112 
 288   0.0000       6.326924       172.1643 
 289   0.0000       6.335523       172.3983 
 290   0.0000       6.397215       174.0771 
 291   0.0000       6.491327       176.6380 
 292   0.0000       6.522827       177.4951 
 293   0.0000       6.562302       178.5693 
 294   0.0000       6.629433       180.3960 
 295   0.0000       6.829001       185.8266 
 296   0.0000       7.104053       193.3111 
 297   0.0000      42.833380      1165.5555 
 298   0.0000      42.892255      1167.1576 
 299   0.0000      42.966179      1169.1692 
 300   0.0000      43.003930      1170.1964 
 301   0.0000      43.219411      1176.0600 
 302   0.0000      43.312503      1178.5931 

                 SPIN DOWN ORBITALS
  NO   OCC          E(Eh)            E(eV) 
   0   1.0000    -257.118712     -6996.5559 
   1   1.0000     -30.841945      -839.2520 
   2   1.0000     -26.676531      -725.9053 
   3   1.0000     -26.675063      -725.8654 
   4   1.0000     -26.674554      -725.8515 
   5   1.0000     -19.768786      -537.9360 
   6   1.0000     -19.766219      -537.8662 
   7   1.0000     -19.755512      -537.5748 
   8   1.0000     -19.754281      -537.5413 
   9   1.0000     -19.754175      -537.5384 
  10   1.0000     -19.731330      -536.9168 
  11   1.0000      -4.122543      -112.1801 
  12   1.0000      -2.865733       -77.9806 
  13   1.0000      -2.862988       -77.9059 
  14   1.0000      -2.862064       -77.8807 
  15   1.0000      -1.620069       -44.0843 
  16   1.0000      -1.613232       -43.8983 
  17   1.0000      -1.596677       -43.4478 
  18   1.0000      -1.573759       -42.8242 
  19   1.0000      -1.568780       -42.6887 
  20   1.0000      -1.542419       -41.9713 
  21   1.0000      -1.172389       -31.9023 
  22   1.0000      -1.167247       -31.7624 
  23   1.0000      -1.155042       -31.4303 
  24   1.0000      -1.143958       -31.1287 
  25   1.0000      -1.138881       -30.9905 
  26   1.0000      -1.119484       -30.4627 
  27   1.0000      -0.995304       -27.0836 
  28   1.0000      -0.961663       -26.1682 
  29   1.0000      -0.949113       -25.8267 
  30   1.0000      -0.939357       -25.5612 
  31   1.0000      -0.924474       -25.1562 
  32   1.0000      -0.907602       -24.6971 
  33   1.0000      -0.898175       -24.4406 
  34   1.0000      -0.894267       -24.3343 
  35   1.0000      -0.884939       -24.0804 
  36   1.0000      -0.869137       -23.6504 
  37   1.0000      -0.859775       -23.3957 
  38   1.0000      -0.852198       -23.1895 
  39   0.0000      -0.719499       -19.5786 
  40   0.0000      -0.717587       -19.5265 
  41   0.0000      -0.713803       -19.4236 
  42   0.0000      -0.703043       -19.1308 
  43   0.0000      -0.698889       -19.0177 
  44   0.0000      -0.520774       -14.1710 
  45   0.0000      -0.467917       -12.7327 
  46   0.0000      -0.455503       -12.3949 
  47   0.0000      -0.429901       -11.6982 
  48   0.0000      -0.417609       -11.3637 
  49   0.0000      -0.392110       -10.6699 
  50   0.0000      -0.372576       -10.1383 
  51   0.0000      -0.354868        -9.6564 
  52   0.0000      -0.332513        -9.0482 
  53   0.0000      -0.318452        -8.6655 
  54   0.0000      -0.313537        -8.5318 
  55   0.0000      -0.299621        -8.1531 
  56   0.0000      -0.289300        -7.8723 
  57   0.0000      -0.280349        -7.6287 
  58   0.0000      -0.271700        -7.3933 
  59   0.0000      -0.256673        -6.9844 
  60   0.0000      -0.245740        -6.6869 
  61   0.0000      -0.240120        -6.5340 
  62   0.0000      -0.228183        -6.2092 
  63   0.0000      -0.209240        -5.6937 
  64   0.0000      -0.176390        -4.7998 
  65   0.0000      -0.161836        -4.4038 
  66   0.0000      -0.147178        -4.0049 
  67   0.0000      -0.124038        -3.3752 
  68   0.0000      -0.122187        -3.3249 
  69   0.0000      -0.104690        -2.8488 
  70   0.0000      -0.058065        -1.5800 
  71   0.0000      -0.033378        -0.9083 
  72   0.0000      -0.018551        -0.5048 
  73   0.0000      -0.003015        -0.0820 
  74   0.0000       0.010130         0.2757 
  75   0.0000       0.039364         1.0711 
  76   0.0000       0.051070         1.3897 
  77   0.0000       0.055968         1.5230 
  78   0.0000       0.065189         1.7739 
  79   0.0000       0.082065         2.2331 
  80   0.0000       0.084018         2.2862 
  81   0.0000       0.099136         2.6976 
  82   0.0000       0.104926         2.8552 
  83   0.0000       0.111601         3.0368 
  84   0.0000       0.113888         3.0990 
  85   0.0000       0.121966         3.3189 
  86   0.0000       0.125182         3.4064 
  87   0.0000       0.134492         3.6597 
  88   0.0000       0.153330         4.1723 
  89   0.0000       0.168844         4.5945 
  90   0.0000       0.192535         5.2391 
  91   0.0000       0.211510         5.7555 
  92   0.0000       0.219636         5.9766 
  93   0.0000       0.243363         6.6223 
  94   0.0000       0.259528         7.0621 
  95   0.0000       0.263209         7.1623 
  96   0.0000       0.274361         7.4657 
  97   0.0000       0.277784         7.5589 
  98   0.0000       0.288426         7.8485 
  99   0.0000       0.319459         8.6929 
 100   0.0000       0.343676         9.3519 
 101   0.0000       0.371446        10.1076 
 102   0.0000       0.395488        10.7618 
 103   0.0000       0.429588        11.6897 
 104   0.0000       0.435997        11.8641 
 105   0.0000       0.483369        13.1531 
 106   0.0000       0.568234        15.4624 
 107   0.0000       0.617378        16.7997 
 108   0.0000       0.649496        17.6737 
 109   0.0000       0.661184        17.9917 
 110   0.0000       0.735295        20.0084 
 111   0.0000       0.759874        20.6772 
 112   0.0000       0.788683        21.4612 
 113   0.0000       0.806048        21.9337 
 114   0.0000       0.820166        22.3178 
 115   0.0000       0.845905        23.0183 
 116   0.0000       0.854474        23.2514 
 117   0.0000       0.899311        24.4715 
 118   0.0000       0.911842        24.8125 
 119   0.0000       0.945469        25.7275 
 120   0.0000       0.973183        26.4816 
 121   0.0000       0.995452        27.0876 
 122   0.0000       1.000936        27.2369 
 123   0.0000       1.008222        27.4351 
 124   0.0000       1.016290        27.6547 
 125   0.0000       1.024195        27.8698 
 126   0.0000       1.025574        27.9073 
 127   0.0000       1.042685        28.3729 
 128   0.0000       1.066879        29.0312 
 129   0.0000       1.088292        29.6139 
 130   0.0000       1.105025        30.0692 
 131   0.0000       1.125502        30.6265 
 132   0.0000       1.127369        30.6773 
 133   0.0000       1.158977        31.5374 
 134   0.0000       1.170839        31.8602 
 135   0.0000       1.239112        33.7180 
 136   0.0000       1.271060        34.5873 
 137   0.0000       1.293682        35.2029 
 138   0.0000       1.315193        35.7882 
 139   0.0000       1.320921        35.9441 
 140   0.0000       1.337320        36.3903 
 141   0.0000       1.363858        37.1125 
 142   0.0000       1.378901        37.5218 
 143   0.0000       1.387958        37.7683 
 144   0.0000       1.421755        38.6879 
 145   0.0000       1.429167        38.8896 
 146   0.0000       1.458141        39.6780 
 147   0.0000       1.468916        39.9712 
 148   0.0000       1.481094        40.3026 
 149   0.0000       1.490595        40.5612 
 150   0.0000       1.503101        40.9015 
 151   0.0000       1.512743        41.1638 
 152   0.0000       1.542709        41.9793 
 153   0.0000       1.562959        42.5303 
 154   0.0000       1.575348        42.8674 
 155   0.0000       1.585655        43.1479 
 156   0.0000       1.627523        44.2872 
 157   0.0000       1.673510        45.5385 
 158   0.0000       1.758891        47.8619 
 159   0.0000       1.788075        48.6560 
 160   0.0000       1.803055        49.0636 
 161   0.0000       1.806392        49.1544 
 162   0.0000       1.818371        49.4804 
 163   0.0000       1.821990        49.5789 
 164   0.0000       1.847552        50.2745 
 165   0.0000       1.856837        50.5271 
 166   0.0000       1.861535        50.6549 
 167   0.0000       1.874971        51.0206 
 168   0.0000       1.924879        52.3786 
 169   0.0000       1.952251        53.1235 
 170   0.0000       1.954929        53.1963 
 171   0.0000       1.987634        54.0863 
 172   0.0000       2.013363        54.7864 
 173   0.0000       2.038975        55.4833 
 174   0.0000       2.072619        56.3988 
 175   0.0000       2.099677        57.1351 
 176   0.0000       2.114217        57.5308 
 177   0.0000       2.121568        57.7308 
 178   0.0000       2.141750        58.2800 
 179   0.0000       2.147546        58.4377 
 180   0.0000       2.160630        58.7937 
 181   0.0000       2.166754        58.9604 
 182   0.0000       2.181448        59.3602 
 183   0.0000       2.184757        59.4502 
 184   0.0000       2.204335        59.9830 
 185   0.0000       2.228225        60.6331 
 186   0.0000       2.242665        61.0260 
 187   0.0000       2.243774        61.0562 
 188   0.0000       2.261825        61.5474 
 189   0.0000       2.279952        62.0406 
 190   0.0000       2.294057        62.4245 
 191   0.0000       2.322118        63.1880 
 192   0.0000       2.336966        63.5921 
 193   0.0000       2.351619        63.9908 
 194   0.0000       2.403582        65.4048 
 195   0.0000       2.435529        66.2741 
 196   0.0000       2.493387        67.8485 
 197   0.0000       2.575793        70.0909 
 198   0.0000       2.688625        73.1612 
 199   0.0000       2.733330        74.3777 
 200   0.0000       2.948714        80.2386 
 201   0.0000       2.974671        80.9449 
 202   0.0000       3.012884        81.9847 
 203   0.0000       3.082767        83.8863 
 204   0.0000       3.156019        85.8796 
 205   0.0000       3.177932        86.4759 
 206   0.0000       3.202650        87.1485 
 207   0.0000       3.336756        90.7977 
 208   0.0000       3.354287        91.2748 
 209   0.0000       3.377863        91.9163 
 210   0.0000       3.388256        92.1991 
 211   0.0000       3.398842        92.4872 
 212   0.0000       3.439539        93.5946 
 213   0.0000       3.470060        94.4251 
 214   0.0000       3.479241        94.6750 
 215   0.0000       3.480288        94.7034 
 216   0.0000       3.496189        95.1361 
 217   0.0000       3.509466        95.4974 
 218   0.0000       3.522285        95.8463 
 219   0.0000       3.528195        96.0071 
 220   0.0000       3.534348        96.1745 
 221   0.0000       3.544855        96.4604 
 222   0.0000       3.564936        97.0068 
 223   0.0000       3.582031        97.4720 
 224   0.0000       3.763699       102.4155 
 225   0.0000       4.564018       124.1932 
 226   0.0000       4.579878       124.6248 
 227   0.0000       4.595849       125.0594 
 228   0.0000       4.598342       125.1272 
 229   0.0000       4.606994       125.3627 
 230   0.0000       4.612303       125.5071 
 231   0.0000       4.617615       125.6517 
 232   0.0000       4.622536       125.7856 
 233   0.0000       4.624241       125.8320 
 234   0.0000       4.636650       126.1697 
 235   0.0000       4.657844       126.7464 
 236   0.0000       4.666729       126.9882 
 237   0.0000       4.674781       127.2073 
 238   0.0000       4.698510       127.8530 
 239   0.0000       4.708989       128.1381 
 240   0.0000       4.732624       128.7812 
 241   0.0000       4.772153       129.8569 
 242   0.0000       4.785555       130.2216 
 243   0.0000       4.786577       130.2494 
 244   0.0000       4.796442       130.5178 
 245   0.0000       4.824786       131.2891 
 246   0.0000       4.934999       134.2881 
 247   0.0000       4.950137       134.7001 
 248   0.0000       4.973531       135.3367 
 249   0.0000       4.992151       135.8433 
 250   0.0000       5.007920       136.2724 
 251   0.0000       5.013351       136.4202 
 252   0.0000       5.016324       136.5011 
 253   0.0000       5.068032       137.9082 
 254   0.0000       5.172641       140.7547 
 255   0.0000       5.361370       145.8903 
 256   0.0000       5.598686       152.3480 
 257   0.0000       5.655901       153.9049 
 258   0.0000       5.680498       154.5742 
 259   0.0000       5.696820       155.0183 
 260   0.0000       5.709035       155.3507 
 261   0.0000       5.721795       155.6980 
 262   0.0000       5.747752       156.4043 
 263   0.0000       5.755497       156.6150 
 264   0.0000       5.774379       157.1288 
 265   0.0000       5.795393       157.7007 
 266   0.0000       5.811330       158.1343 
 267   0.0000       5.838613       158.8767 
 268   0.0000       5.851234       159.2202 
 269   0.0000       5.878433       159.9603 
 270   0.0000       5.885199       160.1444 
 271   0.0000       5.888834       160.2433 
 272   0.0000       5.892198       160.3349 
 273   0.0000       5.910588       160.8353 
 274   0.0000       5.920792       161.1129 
 275   0.0000       5.927273       161.2893 
 276   0.0000       5.932979       161.4446 
 277   0.0000       5.950247       161.9145 
 278   0.0000       5.969837       162.4475 
 279   0.0000       5.978388       162.6802 
 280   0.0000       6.001806       163.3174 
 281   0.0000       6.005530       163.4188 
 282   0.0000       6.038897       164.3267 
 283   0.0000       6.099864       165.9857 
 284   0.0000       6.146732       167.2611 
 285   0.0000       6.217384       169.1836 
 286   0.0000       6.289833       171.1550 
 287   0.0000       6.318808       171.9435 
 288   0.0000       6.331581       172.2911 
 289   0.0000       6.339842       172.5159 
 290   0.0000       6.402004       174.2074 
 291   0.0000       6.497579       176.8081 
 292   0.0000       6.527546       177.6236 
 293   0.0000       6.567421       178.7086 
 294   0.0000       6.633612       180.5098 
 295   0.0000       6.831736       185.9010 
 296   0.0000       7.106827       193.3866 
 297   0.0000      42.836451      1165.6391 
 298   0.0000      42.895067      1167.2341 
 299   0.0000      42.969606      1169.2624 
 300   0.0000      43.007568      1170.2954 
 301   0.0000      43.223108      1176.1606 
 302   0.0000      43.315691      1178.6799 

                    ********************************
                    * MULLIKEN POPULATION ANALYSIS *
                    ********************************

--------------------------------------------
MULLIKEN ATOMIC CHARGES AND SPIN POPULATIONS
--------------------------------------------
   0 Fe:    1.030482    4.411888
   1 O :   -0.559074    0.145171
   2 O :   -0.580836    0.089233
   3 O :   -0.541274    0.108934
   4 O :   -0.411267    0.101249
   5 O :   -0.584961    0.081893
   6 O :   -0.536680    0.064714
   7 H :    0.451069    0.000213
   8 H :    0.456257   -0.000515
   9 H :    0.459334   -0.000768
  10 H :    0.462615   -0.000854
  11 H :    0.465072    0.000057
  12 H :    0.443445    0.000182
  13 H :    0.282974    0.000040
  14 H :    0.428731    0.000593
  15 H :    0.484343   -0.002041
  16 H :    0.373470    0.000748
  17 H :    0.430670   -0.000864
  18 H :    0.445630    0.000127
Sum of atomic charges         :    3.0000000
Sum of atomic spin populations:    5.0000000

-----------------------------------------------------
MULLIKEN REDUCED ORBITAL CHARGES AND SPIN POPULATIONS
-----------------------------------------------------
CHARGE
  0 Fes       :     6.494659  s :     6.494659
      pz      :     4.195586  p :    12.595192
      px      :     4.195632
      py      :     4.203975
      dz2     :     1.135511  d :     5.879120
      dxz     :     1.239941
      dyz     :     1.179395
      dx2y2   :     1.146714
      dxy     :     1.177559
      f0      :     0.000065  f :     0.000548
      f+1     :     0.000101
      f-1     :     0.000034
      f+2     :     0.000111
      f-2     :     0.000112
      f+3     :     0.000059
      f-3     :     0.000064
  1 O s       :     3.725606  s :     3.725606
      pz      :     1.615970  p :     4.823918
      px      :     1.453086
      py      :     1.754862
      dz2     :     0.000739  d :     0.007667
      dxz     :     0.002166
      dyz     :     0.001202
      dx2y2   :     0.001204
      dxy     :     0.002357
      f0      :     0.000172  f :     0.001882
      f+1     :     0.000156
      f-1     :     0.000117
      f+2     :     0.000147
      f-2     :     0.000496
      f+3     :     0.000215
      f-3     :     0.000579
  2 O s       :     3.697117  s :     3.697117
      pz      :     1.590212  p :     4.873156
      px      :     1.500898
      py      :     1.782045
      dz2     :     0.001302  d :     0.008417
      dxz     :     0.001884
      dyz     :     0.001900
      dx2y2   :     0.001434
      dxy     :     0.001897
      f0      :     0.000150  f :     0.002146
      f+1     :     0.000234
      f-1     :     0.000298
      f+2     :     0.000173
      f-2     :     0.000578
      f+3     :     0.000194
      f-3     :     0.000520
  3 O s       :     3.711347  s :     3.711347
      pz      :     1.809124  p :     4.817680
      px      :     1.458415
      py      :     1.550140
      dz2     :     0.001564  d :     0.010224
      dxz     :     0.001034
      dyz     :     0.002304
      dx2y2   :     0.003550
      dxy     :     0.001773
      f0      :     0.000341  f :     0.002023
      f+1     :     0.000285
      f-1     :     0.000090
      f+2     :     0.000189
      f-2     :     0.000378
      f+3     :     0.000448
      f-3     :     0.000293
  4 O s       :     3.621419  s :     3.621419
      pz      :     1.734124  p :     4.779118
      px      :     1.422146
      py      :     1.622848
      dz2     :     0.001041  d :     0.008303
      dxz     :     0.003650
      dyz     :     0.000492
      dx2y2   :     0.001498
      dxy     :     0.001622
      f0      :     0.000196  f :     0.002426
      f+1     :     0.000511
      f-1     :     0.000099
      f+2     :     0.000408
      f-2     :     0.000215
      f+3     :     0.000248
      f-3     :     0.000750
  5 O s       :     3.709888  s :     3.709888
      pz      :     1.770954  p :     4.863079
      px      :     1.471504
      py      :     1.620621
      dz2     :     0.001147  d :     0.010026
      dxz     :     0.001621
      dyz     :     0.001795
      dx2y2   :     0.004299
      dxy     :     0.001164
      f0      :     0.000360  f :     0.001968
      f+1     :     0.000196
      f-1     :     0.000113
      f+2     :     0.000310
      f-2     :     0.000366
      f+3     :     0.000419
      f-3     :     0.000205
  6 O s       :     3.677723  s :     3.677723
      pz      :     1.690475  p :     4.847545
      px      :     1.524699
      py      :     1.632372
      dz2     :     0.002259  d :     0.009385
      dxz     :     0.000140
      dyz     :     0.002701
      dx2y2   :     0.001161
      dxy     :     0.003125
      f0      :     0.000115  f :     0.002027
      f+1     :     0.000161
      f-1     :     0.000564
      f+2     :     0.000296
      f-2     :     0.000333
      f+3     :     0.000119
      f-3     :     0.000441
  7 H s       :     0.503247  s :     0.503247
      pz      :     0.015998  p :     0.045684
      px      :     0.010689
      py      :     0.018998
  8 H s       :     0.496373  s :     0.496373
      pz      :     0.015123  p :     0.047370
      px      :     0.014557
      py      :     0.017691
  9 H s       :     0.491124  s :     0.491124
[...]
     54       0.002993   0.042403   0.029395   0.191151  -0.314681   0.018204
     55       0.010905   0.149231   0.107451  -0.071949   0.118290  -0.007120
     56       0.028015   0.369738   0.266122  -0.006300   0.009325  -0.001329
                 48         49         50         51         52         53    
      0       0.000370  -0.000246  -0.000000  -0.000005   0.000006   0.000021
      1      -0.000002  -0.000505  -0.000002  -0.000012  -0.000002   0.000001
      2       0.000470   0.000188   0.000001   0.000005  -0.000003   0.000023
      3       0.022086  -0.001154  -0.013368   0.000356  -0.037088   0.001136
      4       0.003258  -0.000200  -0.001990  -0.000242   0.025941  -0.000705
      5       0.025511  -0.001434  -0.015475  -0.000293   0.028853  -0.001197
      6       0.022592  -0.003752   0.013377  -0.000362   0.032933  -0.002442
      7       0.003406  -0.000584   0.002038   0.000280  -0.023295   0.001379
      8       0.026109  -0.004413   0.015505   0.000301  -0.025583   0.001632
      9      -0.002038  -0.009628   0.006412   0.000361  -0.001899  -0.041167
     10      -0.003510  -0.026732   0.017695   0.000273  -0.000272  -0.006040
     11       0.000590   0.012063  -0.007926   0.000599  -0.002178  -0.047396
     12      -0.002032  -0.011875  -0.006672   0.000221   0.001234   0.022470
     13      -0.003433  -0.032187  -0.017909  -0.000009   0.000156   0.003193
     14       0.000559   0.014449   0.007940  -0.000092   0.001445   0.025863
     15       0.000397   0.000375  -0.014044   0.017691  -0.000112   0.000016
     16      -0.000124   0.001079   0.009808   0.049465   0.000200   0.000123
     17      -0.000346  -0.000472   0.010889  -0.022150  -0.000204  -0.000053
     18      -0.000189  -0.001626   0.014070  -0.013780  -0.000200  -0.000261
     19       0.000276   0.002474  -0.009832  -0.038093  -0.000829  -0.000636
     20       0.000111   0.001092  -0.010926   0.016824   0.000551   0.000258
     21      -0.001776   0.000754   0.036580   0.086384   0.001790   0.000704
     22       0.006193  -0.009431  -0.281836  -0.554590  -0.002715  -0.001482
     23      -0.001131   0.000850   0.006644   0.000542   0.001566   0.000562
     24      -0.016822  -0.162682   0.104140  -0.000428   0.010066   0.208794
     25       0.020062   0.182741  -0.118177   0.001442  -0.012665  -0.267974
     26      -0.039942  -0.376290   0.241888  -0.005669   0.023292   0.513528
     27      -0.458880   0.024848   0.270607  -0.004878   0.496750  -0.014401
     28       0.170381  -0.007848  -0.100021   0.001052  -0.176513   0.003177
     29       0.013120  -0.001188  -0.007021   0.000232   0.003824   0.000554
     30       0.046625   0.387758   0.210401  -0.002765  -0.012700  -0.241726
     31       0.035605   0.301399   0.164273  -0.000106  -0.011018  -0.197158
     32       0.026925   0.219223   0.118372   0.000334  -0.007275  -0.128011
     33       0.103528  -0.017069   0.059006   0.000727  -0.079911   0.005467
     34      -0.230389   0.040079  -0.133107  -0.003137   0.210589  -0.011261
     35      -0.435067   0.072843  -0.251786  -0.004613   0.409107  -0.026019
     36       0.001512   0.021850  -0.186441   0.283457   0.005334   0.005403
     37       0.001443   0.014200  -0.127571   0.177015   0.003977   0.003082
     38      -0.003337  -0.020552   0.177867  -0.268182  -0.007796  -0.003842
     39      -0.016353  -0.195545  -0.104909  -0.001217  -0.006836  -0.114313
     40       0.019520   0.218665   0.118704   0.000819   0.008527   0.146554
     41      -0.038904  -0.452324  -0.243854   0.001464  -0.015601  -0.281795
     42      -0.006456  -0.005200   0.185264  -0.366648   0.000452  -0.000923
     43      -0.004085  -0.004696   0.126919  -0.229201  -0.000311  -0.000437
     44       0.004328   0.005364  -0.178622   0.350376   0.002343   0.000333
     45       0.101977  -0.005234  -0.059392  -0.000760   0.090928  -0.004160
     46      -0.222728   0.013542   0.131461   0.002754  -0.234532   0.007291
     47      -0.425520   0.023044   0.251537   0.004424  -0.460980   0.018318
     48      -0.000274   0.005669  -0.035828  -0.065147  -0.002770  -0.001204
     49      -0.005794  -0.050598   0.282908   0.426591   0.009130   0.007019
     50      -0.000845   0.001803  -0.005297   0.001637  -0.001498  -0.000121
     51       0.047180   0.318712  -0.205477  -0.004641   0.020023   0.443469
     52       0.036235   0.249330  -0.161333  -0.005909   0.016959   0.363714
     53       0.027499   0.181695  -0.116689  -0.004356   0.011184   0.237385
     54      -0.468592   0.078780  -0.270389   0.005011  -0.441965   0.033103
     55       0.175679  -0.028162   0.100923  -0.001355   0.158535  -0.009975
     56       0.013049  -0.002698   0.006781  -0.000130  -0.003790  -0.000573
                 54         55         56    
      0      -0.000037  -0.000074   0.000071
      1      -0.000096   0.000053   0.000007
      2       0.000042   0.000063   0.000081
      3      -0.000808   0.033046  -0.001267
      4       0.000679  -0.023124   0.000406
      5       0.000630  -0.025760   0.000045
      6      -0.000263   0.037015  -0.001038
      7       0.000295  -0.026184   0.000361
      8       0.000206  -0.028784  -0.000187
      9       0.000431  -0.001046  -0.022489
     10       0.000706  -0.000195  -0.003289
     11      -0.000135  -0.001348  -0.025899
     12       0.001232  -0.000283  -0.041228
     13       0.000852  -0.000082  -0.005832
     14       0.000854  -0.000467  -0.047478
     15       0.013607   0.000786   0.000311
     16       0.038061   0.000279   0.001030
     17      -0.017041  -0.000741  -0.000536
     18       0.017914   0.000840   0.000197
     19       0.049514   0.000363   0.000779
     20      -0.021868  -0.000761  -0.000392
     21       0.066282   0.000011   0.002289
     22      -0.426548   0.002021  -0.011552
     23       0.000595  -0.000103   0.000573
     24       0.002495   0.005139   0.114207
     25      -0.002779  -0.006933  -0.146228
     26       0.006159   0.014636   0.280525
     27       0.010934  -0.442222   0.018754
     28      -0.004749   0.157112  -0.006212
     29       0.000430  -0.003143  -0.000365
     30      -0.017453   0.003037   0.443060
     31      -0.014310   0.003426   0.361143
     32      -0.009747   0.002424   0.234928
     33       0.000495  -0.090150  -0.000754
     34      -0.002709   0.236746   0.000317
     35      -0.003542   0.459935   0.001593
     36      -0.368176  -0.011994  -0.004985
     37      -0.230270  -0.007841  -0.003337
     38       0.348369   0.011272   0.005717
     39      -0.001398   0.001219   0.210107
     40       0.002420  -0.001923  -0.268707
     41      -0.004578   0.005144   0.517230
     42      -0.281827  -0.011101  -0.007019
     43      -0.176447  -0.007357  -0.004733
     44       0.269369   0.010849   0.008189
     45       0.001780  -0.081402   0.000200
     46      -0.006318   0.209189  -0.000214
     47      -0.010255   0.411217  -0.001809
     48       0.084398  -0.000009   0.002059
     49      -0.554201   0.001153  -0.008957
     50      -0.001938  -0.000279   0.000773
     51      -0.008781   0.011208   0.242068
     52      -0.006715   0.010219   0.198388
     53      -0.004707   0.006887   0.129728
     54       0.003594  -0.496377   0.015935
     55      -0.002253   0.178046  -0.006402
     56       0.000419  -0.003962   0.000067


-----------
IR SPECTRUM
-----------

 Mode   freq       eps      Int      T**2         TX        TY        TZ
       cm**-1   L/(mol*cm) km/mol    a.u.
----------------------------------------------------------------------------
  6:    115.29   0.000207    1.05  0.000560  (-0.008812  0.019581  0.009970)
  7:    116.97   0.000205    1.03  0.000546  ( 0.020793  0.003652  0.010030)
  8:    117.61   0.000209    1.05  0.000554  (-0.006636 -0.011953  0.019150)
  9:    171.95   0.000000    0.00  0.000000  (-0.000022 -0.000077  0.000014)
 10:    172.29   0.000000    0.00  0.000000  ( 0.000070  0.000094 -0.000056)
 11:    172.61   0.000000    0.00  0.000000  ( 0.000026 -0.000004 -0.000076)
 12:    176.89   0.000021    0.11  0.000037  (-0.005104  0.000240  0.003370)
 13:    177.66   0.000018    0.09  0.000032  (-0.003427  0.002513 -0.003782)
 14:    178.42   0.000030    0.15  0.000052  (-0.001387 -0.006471 -0.002842)
 15:    250.52   0.000001    0.00  0.000001  ( 0.000619  0.000032  0.000709)
 16:    250.71   0.000000    0.00  0.000000  ( 0.000429  0.000450 -0.000037)
 17:    330.67   0.000000    0.00  0.000000  ( 0.000452  0.000141  0.000114)
 18:    332.20   0.000000    0.00  0.000000  ( 0.000078  0.000213  0.000204)
 19:    333.99   0.000000    0.00  0.000000  (-0.000046 -0.000055  0.000052)
 20:    335.61   0.000000    0.00  0.000000  ( 0.000116 -0.000002 -0.000133)
 21:    336.70   0.000000    0.00  0.000000  ( 0.000036 -0.000066 -0.000053)
 22:    410.13   0.000163    0.83  0.000124  ( 0.004709  0.007496 -0.006783)
 23:    411.51   0.000177    0.90  0.000134  (-0.008839 -0.001533 -0.007337)
 24:    413.27   0.000228    1.15  0.000173  ( 0.007481 -0.009003 -0.005959)
 25:    429.73   0.000000    0.00  0.000000  ( 0.000199 -0.000218  0.000051)
 26:    467.96   0.000015    0.08  0.000010  ( 0.000699 -0.001815 -0.002533)
 27:    496.11   0.000017    0.09  0.000011  (-0.000134 -0.002666 -0.001901)
 28:    496.16   0.000027    0.13  0.000017  (-0.001213  0.002526  0.002973)
 29:    497.23   0.000020    0.10  0.000013  (-0.000168  0.001343 -0.003300)
 30:    512.79   0.088555  447.52  0.053891  (-0.017817 -0.226130  0.049380)
 31:    513.05   0.087562  442.50  0.053259  (-0.157694  0.049534  0.161054)
 32:    513.68   0.087652  442.96  0.053249  ( 0.166958  0.022277  0.157727)
 33:    645.67   0.000012    0.06  0.000006  ( 0.000521 -0.000962 -0.002172)
 34:    645.92   0.000002    0.01  0.000001  ( 0.000106 -0.000524  0.000860)
 35:    646.36   0.000007    0.04  0.000003  (-0.000365  0.001758 -0.000423)
 36:    657.69   0.059024  298.28  0.028006  (-0.094155 -0.109552 -0.084492)
 37:    658.06   0.059156  298.95  0.028053  ( 0.067965 -0.125085  0.088246)
 38:    658.41   0.059151  298.92  0.028036  ( 0.120869 -0.014768 -0.114926)
 39:   1652.87   0.048516  245.18  0.009160  (-0.066140 -0.016416  0.067200)
 40:   1652.97   0.048492  245.06  0.009155  (-0.064450  0.049168 -0.050828)
 41:   1653.06   0.048607  245.64  0.009176  (-0.025991 -0.080457 -0.045024)
 42:   1655.11   0.000151    0.76  0.000028  ( 0.003873  0.001092 -0.003492)
 43:   1655.15   0.000064    0.32  0.000012  (-0.000224 -0.003439 -0.000499)
 44:   1665.83   0.000003    0.02  0.000001  (-0.000203  0.000759  0.000016)
 45:   3678.06   0.000473    2.39  0.000040  ( 0.003296  0.002676 -0.004701)
 46:   3678.31   0.001673    8.45  0.000142  ( 0.005378  0.010169 -0.003099)
 47:   3679.14   0.146319  739.44  0.012411  (-0.074757  0.058269  0.058540)
 48:   3679.50   0.146272  739.20  0.012406  (-0.068511  0.000182 -0.087816)
 49:   3679.55   0.144177  728.61  0.012228  ( 0.045897  0.094153 -0.035445)
 50:   3705.40   0.000002    0.01  0.000000  ( 0.000236  0.000379 -0.000069)
 51:   3749.76   0.001961    9.91  0.000163  (-0.004260 -0.011138  0.004586)
 52:   3750.24   0.000419    2.12  0.000035  ( 0.004898 -0.001801 -0.002764)
 53:   3750.36   0.009321   47.10  0.000776  ( 0.019323  0.002615  0.019883)
 54:   3750.57   0.115178  582.06  0.009583  (-0.030537 -0.085935  0.035581)
 55:   3751.03   0.116657  589.54  0.009705  (-0.067081  0.046603  0.055077)
 56:   3751.30   0.107794  544.75  0.008967  ( 0.062406  0.006166  0.070956)

* The epsilon (eps) is given for a Dirac delta lineshape.
** The dipole moment derivative (T) already includes vibrational overlap.

The first frequency considered to be a vibration is 6
The total number of vibrations considered is 51


--------------------------
THERMOCHEMISTRY AT 298.15K
--------------------------

Temperature         ... 298.15 K
Pressure            ... 1.00 atm
Total Mass          ... 163.94 AMU

Throughout the following assumptions are being made:
  (1) The electronic state is orbitally nondegenerate
      but the spin degeneracy is treated
  (2) There are no thermally accessible electronically excited states
  (3) Hindered rotations indicated by low frequency modes are not
      treated as such but are treated as vibrations and this may
      cause some error
  (4) All equations used are the standard statistical mechanics
      equations for an ideal gas
  (5) All vibrations are strictly harmonic

freq.     115.29  E(vib)   ...       0.44 
freq.     116.97  E(vib)   ...       0.44 
freq.     117.61  E(vib)   ...       0.44 
freq.     171.95  E(vib)   ...       0.38 
freq.     172.29  E(vib)   ...       0.38 
freq.     172.61  E(vib)   ...       0.38 
freq.     176.89  E(vib)   ...       0.38 
freq.     177.66  E(vib)   ...       0.37 
freq.     178.42  E(vib)   ...       0.37 
freq.     250.52  E(vib)   ...       0.30 
freq.     250.71  E(vib)   ...       0.30 
freq.     330.67  E(vib)   ...       0.24 
freq.     332.20  E(vib)   ...       0.24 
freq.     333.99  E(vib)   ...       0.24 
freq.     335.61  E(vib)   ...       0.24 
freq.     336.70  E(vib)   ...       0.24 
freq.     410.13  E(vib)   ...       0.19 
freq.     411.51  E(vib)   ...       0.19 
freq.     413.27  E(vib)   ...       0.19 
freq.     429.73  E(vib)   ...       0.18 
freq.     467.96  E(vib)   ...       0.16 
freq.     496.11  E(vib)   ...       0.14 
freq.     496.16  E(vib)   ...       0.14 
freq.     497.23  E(vib)   ...       0.14 
freq.     512.79  E(vib)   ...       0.13 
freq.     513.05  E(vib)   ...       0.13 
freq.     513.68  E(vib)   ...       0.13 
freq.     645.67  E(vib)   ...       0.09 
freq.     645.92  E(vib)   ...       0.09 
freq.     646.36  E(vib)   ...       0.09 
freq.     657.69  E(vib)   ...       0.08 
freq.     658.06  E(vib)   ...       0.08 
freq.     658.41  E(vib)   ...       0.08 
freq.    1652.87  E(vib)   ...       0.00 
freq.    1652.97  E(vib)   ...       0.00 
freq.    1653.06  E(vib)   ...       0.00 
freq.    1655.11  E(vib)   ...       0.00 
freq.    1655.15  E(vib)   ...       0.00 
freq.    1665.83  E(vib)   ...       0.00 
freq.    3678.06  E(vib)   ...       0.00 
freq.    3678.31  E(vib)   ...       0.00 
freq.    3679.14  E(vib)   ...       0.00 
freq.    3679.50  E(vib)   ...       0.00 
freq.    3679.55  E(vib)   ...       0.00 
freq.    3705.40  E(vib)   ...       0.00 
freq.    3749.76  E(vib)   ...       0.00 
freq.    3750.24  E(vib)   ...       0.00 
freq.    3750.36  E(vib)   ...       0.00 
freq.    3750.57  E(vib)   ...       0.00 
freq.    3751.03  E(vib)   ...       0.00 
freq.    3751.30  E(vib)   ...       0.00 

------------
INNER ENERGY
------------

The inner energy is: U= E(el) + E(ZPE) + E(vib) + E(rot) + E(trans)
    E(el)   - is the total energy from the electronic structure calculation
              = E(kin-el) + E(nuc-el) + E(el-el) + E(nuc-nuc)
    E(ZPE)  - the the zero temperature vibrational energy from the frequency calculation
    E(vib)  - the the finite temperature correction to E(ZPE) due to population
              of excited vibrational states
    E(rot)  - is the rotational thermal energy
    E(trans)- is the translational thermal energy

Summary of contributions to the inner energy U:
Electronic energy                ...  -1720.74662204 Eh
Zero point energy                ...      0.15305189 Eh      96.04 kcal/mol
Thermal vibrational correction   ...      0.01215090 Eh       7.62 kcal/mol
Thermal rotational correction    ...      0.00141627 Eh       0.89 kcal/mol
Thermal translational correction ...      0.00141627 Eh       0.89 kcal/mol
-----------------------------------------------------------------------
Total thermal energy                  -1720.57858670 Eh


Summary of corrections to the electronic energy:
(perhaps to be used in another calculation)
Total thermal correction                  0.01498345 Eh       9.40 kcal/mol
Non-thermal (ZPE) correction              0.15305189 Eh      96.04 kcal/mol
-----------------------------------------------------------------------
Total correction                          0.16803534 Eh     105.44 kcal/mol


--------
ENTHALPY
--------

The enthalpy is H = U + kB*T
                kB is Boltzmann's constant
Total free energy                 ...  -1720.57858670 Eh 
Thermal Enthalpy correction       ...      0.00094421 Eh       0.59 kcal/mol
-----------------------------------------------------------------------
Total Enthalpy                    ...  -1720.57764249 Eh


Note: Only C1 symmetry has been detected, increase convergence thresholds 
      if your molecule has a higher symmetry. Symmetry factor of 1.0 is   
      used for the rotational entropy correction. 
 

Note: Rotational entropy computed according to Herzberg 
Infrared and Raman Spectra, Chapter V,1, Van Nostrand Reinhold, 1945 
Point Group:  C1, Symmetry Number:   1  
Rotational constants in cm-1:     0.051909     0.051724     0.051638 

Vibrational entropy computed according to the QRRHO of S. Grimme
Chem.Eur.J. 2012 18 9955


-------
ENTROPY
-------

The entropy contributions are T*S = T*(S(el)+S(vib)+S(rot)+S(trans))
     S(el)   - electronic entropy
     S(vib)  - vibrational entropy
     S(rot)  - rotational entropy
     S(trans)- translational entropy
The entropies will be listed as multiplied by the temperature to get
units of energy

Electronic entropy                ...      0.00169175 Eh      1.06 kcal/mol
Vibrational entropy               ...      0.02063354 Eh     12.95 kcal/mol
Rotational entropy                ...      0.01370466 Eh      8.60 kcal/mol
Translational entropy             ...      0.01957135 Eh     12.28 kcal/mol
-----------------------------------------------------------------------
Final entropy term                ...      0.05560130 Eh     34.89 kcal/mol

In case the symmetry of your molecule has not been determined correctly
or in case you have a reason to use a different symmetry number we print 
out the resulting rotational entropy values for sn=1,12 :
 --------------------------------------------------------
|  sn= 1 | S(rot)=       0.01370466 Eh      8.60 kcal/mol|
|  sn= 2 | S(rot)=       0.01305021 Eh      8.19 kcal/mol|
|  sn= 3 | S(rot)=       0.01266737 Eh      7.95 kcal/mol|
|  sn= 4 | S(rot)=       0.01239575 Eh      7.78 kcal/mol|
|  sn= 5 | S(rot)=       0.01218506 Eh      7.65 kcal/mol|
|  sn= 6 | S(rot)=       0.01201292 Eh      7.54 kcal/mol|
|  sn= 7 | S(rot)=       0.01186737 Eh      7.45 kcal/mol|
|  sn= 8 | S(rot)=       0.01174129 Eh      7.37 kcal/mol|
|  sn= 9 | S(rot)=       0.01163009 Eh      7.30 kcal/mol|
|  sn=10 | S(rot)=       0.01153061 Eh      7.24 kcal/mol|
|  sn=11 | S(rot)=       0.01144062 Eh      7.18 kcal/mol|
|  sn=12 | S(rot)=       0.01135846 Eh      7.13 kcal/mol|
 --------------------------------------------------------


-------------------
GIBBS FREE ENERGY
-------------------

The Gibbs free energy is G = H - T*S

Total enthalpy                    ...  -1720.57764249 Eh 
Total entropy correction          ...     -0.05560130 Eh    -34.89 kcal/mol
-----------------------------------------------------------------------
Final Gibbs free energy         ...  -1720.63324379 Eh

For completeness - the Gibbs free energy minus the electronic energy
G-E(el)                           ...      0.11337825 Eh     71.15 kcal/mol


Timings for individual modules:

Sum of individual times         ...      754.116 sec (=  12.569 min)
GTO integral calculation        ...       22.817 sec (=   0.380 min)   3.0 %
SCF iterations                  ...      497.465 sec (=   8.291 min)  66.0 %
SCF Gradient evaluation         ...      121.668 sec (=   2.028 min)  16.1 %
Geometry relaxation             ...        1.268 sec (=   0.021 min)   0.2 %
Analytical frequency calculation...      110.899 sec (=   1.848 min)  14.7 %
                             ****ORCA TERMINATED NORMALLY****
TOTAL RUN TIME: 0 days 0 hours 12 minutes 51 seconds 238 msec
