==================================================================================
It's Sat 26 Apr 2025 12:25:57 AM BST.
*** Starting onetep_launcher (node nid004115, PIDs 195179 195180 195181 195182 195183 195184 195185 195186 195187 195188 195189 195190 195191 195192 195193 195194 195195 195196 195197 195198 195199 195200 195201 195202 195203 195204 195205 195206 195207 195208 195209 195210)...
    - ONETEP arguments: Co.dat
    - Current directory: /mnt/lustre/a2fs-work3/work/e89/e89/phsmea/Co_bulk_single_point/nsp
    - Launcher executable directory: /mnt/lustre/a2fs-work3/work/e89/e89/phsmea/Co_bulk_single_point
    - (-e) ONETEP executable specified through command-line: /work/e89/e89/phsmea/onetep.archer2_2024_cray_2
      ... trying /work/e89/e89/phsmea/onetep.archer2_2024_cray_2
          -> looks OK
*** Setting up environment...
    - (-s) Process stack size: unlimited
    - (-t) OMP_NUM_THREADS: 4
    - (-o) OMP_STACKSIZE: 64M
    - (-c) Maximum core file size: 2048000
    - (-d) decfort_dump_flag: n
    - (-m) I_MPI_OFA_TRANSLATION_CACHE: 0
    - (-m) I_MPI_DAPL_TRANSLATION_CACHE: 0
    - (-m) I_MPI_DAPL_UD_TRANSLATION_CACHE: 0
*** Starting ONETEP...
    - /work/e89/e89/phsmea/onetep.archer2_2024_cray_2 Co.dat
=================================================================================
_________________________________________________________________________________
 +---------------------------------------------------------------+
 |                                                               |
 |        ####### #     # ####### ####### ####### ######         |
 |        #     # ##    # #          #    #       #     #        |
 |        #     # # #   # #          #    #       #     #        |
 |        #     # #  #  # #####      #    #####   ######         |
 |        #     # #   # # #          #    #       #              |
 |        #     # #    ## #          #    #       #              |
 |        ####### #     # #######    #    ####### #              |
 |                                                               |
 |        Linear-Scaling Ab Initio Total Energy Program          |
 |                                                               |
 |          Release for academic collaborators of ODG            |
 |                                             Version 7.3.0     |
 | Remote: git@github.com:Miesaz/onetep_mea.git                  |
 | Local branch: master                                          |
 | Commit ID: 4af45e89288c8df5499704252eec3e032ee3d0c8           |
 | Date: Tue Aug 6 11:28:44 2024 +0100                           |
 | Locally modified files:                                       |
 |   src/hubbard_build_mod.F90                                   |
 |   src/services_mod.F90                                        |
 |                                                               |
 +---------------------------------------------------------------+
 |                                                               |
 |  Authors:                                                     |
 |  Jacek Dziedzic, Peter D. Haynes, Nicholas D. M. Hine,        |
 |  Arash A. Mostofi, Mike C. Payne and Chris-Kriton Skylaris    |
 |                                                               |
 |  Contributors:                                                |
 |  J. Aarons, L. Andrinopoulos, P. W. Avraam, R. A. Bell,       |
 |  A. Bhandari, G. A. Bramley, R. J. Charlton, S. J. Clark,     |
 |  R. J. Clements, G. C. Constantinescu, F. Corsetti,           |
 |  N. Corsini, O. Dieguez, S. M. M. Dubois, K. K. B. Duff,      |
 |  J. M. Escartin, M. Escobar Azor, A. Greco,                   |
 |  H. Helal, Q. O. Hill, L. P. Lee, J.-H. Li,                   |
 |  T. Li, E. B. Linscott, G. Moynihan, D. D. O`Regan,           |
 |  O. K. Okan, E. Parkinson, M. J. S. Phipps,                   |
 |  C. J. Pickard, J. C. A. Prentice, M. I. J. Probert,          |
 |  L. E. Ratcliff, M. Robinson, A. Ruiz Serrano,                |
 |  M. dos Santos Dias, J. S. Spencer, E. W. Tait,               |
 |  G. Teobaldi, D. Turban, V. Vitale, K. A. Wilkinson,          |
 |  C. Weber, J. C. Womack, Chengcheng Xiao, N. Yeung,           |
 |  and T. J. Zuehlsdorff.                                       |
 |                                                               |
 |                                   Copyright (c) 2004-2025     |
 |                                                               |
 |  Please cite:                                                 |
 |  "The ONETEP linear-scaling density functional theory program"|
 |   J. Chem. Phys. 152(17) 174111 (2020)                        |
 |                                                               |
 |          in all publications arising from your use of ONETEP. |
 |                                                               |
 +---------------------------------------------------------------+
 |                                                               |
 |   ONETEP is based on developments described in the following  |
 |   publications:                                               |
 |                                                               |
 |  "Nonorthogonal generalized Wannier function pseudopotential  |
 |   plane-wave method".                                         |
 |   C.-K. Skylaris, A. A. Mostofi, P. D. Haynes, O. Dieguez,    |
 |   M. C. Payne.                                                |
 |   Phys. Rev. B 66 035119 (2002).                              |
 |                                                               |
 |  "Preconditioned iterative minimization for linear-scaling    |
 |   electronic structure calculations".                         |
 |   A. A. Mostofi, P. D. Haynes, C.-K. Skylaris, M. C. Payne.   |
 |   J. Chem. Phys. 119(17), pp.8842-8848 (2003).                |
 |                                                               |
 |  "Total-energy calculations on a real space grid with         |
 |   localized functions and a plane-wave basis".                |
 |   A. A. Mostofi, C.-K. Skylaris, P. D. Haynes, M. C. Payne.   |
 |   Comput. Phys. Commun. 147, pp.788-802 (2002).               |
 |                                                               |
 |  "Accurate kinetic energy evaluation in electronic structure  |
 |   calculations with localized functions on real space grids"  |
 |   C.-K. Skylaris, A. A. Mostofi, P. D. Haynes, C. J. Pickard, |
 |   M. C. Payne.                                                |
 |   Comput. Phys. Commun. 140, pp.315-322 (2001).               |
 |                                                               |
 |  "Accurate ionic forces and geometry optimization in linear-  |
 |   scaling density-functional theory with local orbitals"      |
 |   N. D. M. Hine, M. Robinson, P. D. Haynes, C.-K. Skylaris,   |
 |   M. C. Payne, and A. A. Mostofi.                             |
 |   Phys. Rev. B 83 195102 (2011).                              |
 |                                                               |
 +---------------------------------------------------------------+

Job started: 26-04-2025 00:26 (+0100)
 
Reading parameters from file "Co.dat" ...... done

If your calculation crashes here, before "Checking processes and threads..."
is displayed, then your stack size is insufficient.
If so, use "ulimit -s unlimited" at runtime.
You can disable this check with "check_stack_size F".

Checking processes and threads...
      Default threads: 4
   Running with 320 MPI processes.
   There are 32 MPI processes running on the same node as the root process.
   Each MPI process is using: 
               1 threads for simulation cell FFTs.
               1 threads for threaded FFT box operations.
               4 threads for loops over batched FFT box operations.
               4 threads in other parallel regions.
   MPI Interface: S1 (use mpi_f08) (-DMPI -DUSE_MPI_F08).
   MPI_ASYNC_PROTECTS_NONBLOCKING: Yes. MPI_SUBARRAYS_SUPPORTED: Yes.
   FFTW Interface: OMP-capable and MODERN. (-DUSE_MODERN_FFTW specified).
   GPU Interface: None.
   GPU FFT Backend: None.
... done

Basic input checks...
Resetting ngwf_cg_rotate to TRUE for EDFT calculations
... done

Reading geometry and species blocks from file "Co.dat" ...... done


--------------------------------------------------------------------------------
---------------------------------- INPUT FILE ----------------------------------
--------------------------------------------------------------------------------

charge : 0                                                                      
cutoff_energy : 600 eV                                                          
do_properties : T                                                               
edft : T                                                                        
edft_maxit : 15                                                                 
edft_spin_fix : 0                                                               
fine_grid_scale : 4                                                             
geom_continuation : F                                                           
maxit_ngwf_cg : 100                                                             
ngwf_threshold_orig : 1e-07                                                     
ngwfs_spin_polarized : F                                                        
paw : T                                                                         
pseudo_path : ..                                                                
read_denskern : T                                                               
read_hamiltonian : T                                                            
read_tightbox_ngwfs : T                                                         
spin : 2592                                                                     
spin_polarized : T                                                              
task : SinglePoint                                                              
write_denskern : T                                                              
write_forces : T                                                                
write_hamiltonian : T                                                           
write_tightbox_ngwfs : T                                                        
xc_functional : PBE                                                             
%BLOCK LATTICE_CART                                                             
ang                                                                             
14.99119730     0.00000000    0.00000000                                        
0.00000000    25.95883166    0.00000000                                         
0.00000000     0.00000000   24.23272929                                         
%ENDBLOCK LATTICE_CART                                                          
%BLOCK POSITIONS_ABS                                                            
ang                                                                             
Co       0.00000000       0.00000000       0.00000000                           
Co       0.00000000       1.44216649       2.01939411                           
Co       1.24926644       2.16323321       0.00000000                           
Co       1.24926644       3.60540968       2.01939411                           
Co       0.00000000       0.00000000       4.03878822                           
Co       0.00000000       1.44216649       6.05818233                           
Co       1.24926644       2.16323321       4.03878822                           
Co       1.24926644       3.60540968       6.05818233                           
Co       0.00000000       0.00000000       8.07757643                           
Co       0.00000000       1.44216649      10.09697054                           
Co       1.24926644       2.16323321       8.07757643                           
Co       1.24926644       3.60540968      10.09697054                           
Co       0.00000000       0.00000000      12.11636465                           
Co       0.00000000       1.44216649      14.13575876                           
Co       1.24926644       2.16323321      12.11636465                           
Co       1.24926644       3.60540968      14.13575876                           
Co       0.00000000       0.00000000      16.15515286                           
Co       0.00000000       1.44216649      18.17454697                           
Co       1.24926644       2.16323321      16.15515286                           
Co       1.24926644       3.60540968      18.17454697                           
Co       0.00000000       0.00000000      20.19394108                           
Co       0.00000000       1.44216649      22.21333519                           
Co       1.24926644       2.16323321      20.19394108                           
Co       1.24926644       3.60540968      22.21333519                           
Co       0.00000000       4.32647194       0.00000000                           
Co       0.00000000       5.76863843       2.01939411                           
Co       1.24926644       6.48970515       0.00000000                           
Co       1.24926644       7.93188162       2.01939411                           
Co       0.00000000       4.32647194       4.03878822                           
Co       0.00000000       5.76863843       6.05818233                           
Co       1.24926644       6.48970515       4.03878822                           
Co       1.24926644       7.93188162       6.05818233                           
Co       0.00000000       4.32647194       8.07757643                           
Co       0.00000000       5.76863843      10.09697054                           
Co       1.24926644       6.48970515       8.07757643                           
Co       1.24926644       7.93188162      10.09697054                           
Co       0.00000000       4.32647194      12.11636465                           
Co       0.00000000       5.76863843      14.13575876                           
Co       1.24926644       6.48970515      12.11636465                           
Co       1.24926644       7.93188162      14.13575876                           
Co       0.00000000       4.32647194      16.15515286                           
Co       0.00000000       5.76863843      18.17454697                           
Co       1.24926644       6.48970515      16.15515286                           
Co       1.24926644       7.93188162      18.17454697                           
Co       0.00000000       4.32647194      20.19394108                           
Co       0.00000000       5.76863843      22.21333519                           
Co       1.24926644       6.48970515      20.19394108                           
Co       1.24926644       7.93188162      22.21333519                           
Co       0.00000000       8.65294389       0.00000000                           
Co       0.00000000      10.09511038       2.01939411                           
Co       1.24926644      10.81617710       0.00000000                           
Co       1.24926644      12.25835357       2.01939411                           
Co       0.00000000       8.65294389       4.03878822                           
Co       0.00000000      10.09511038       6.05818233                           
Co       1.24926644      10.81617710       4.03878822                           
Co       1.24926644      12.25835357       6.05818233                           
Co       0.00000000       8.65294389       8.07757643                           
Co       0.00000000      10.09511038      10.09697054                           
Co       1.24926644      10.81617710       8.07757643                           
Co       1.24926644      12.25835357      10.09697054                           
Co       0.00000000       8.65294389      12.11636465                           
Co       0.00000000      10.09511038      14.13575876                           
Co       1.24926644      10.81617710      12.11636465                           
Co       1.24926644      12.25835357      14.13575876                           
Co       0.00000000       8.65294389      16.15515286                           
Co       0.00000000      10.09511038      18.17454697                           
Co       1.24926644      10.81617710      16.15515286                           
Co       1.24926644      12.25835357      18.17454697                           
Co       0.00000000       8.65294389      20.19394108                           
Co       0.00000000      10.09511038      22.21333519                           
Co       1.24926644      10.81617710      20.19394108                           
Co       1.24926644      12.25835357      22.21333519                           
Co       0.00000000      12.97941583       0.00000000                           
Co       0.00000000      14.42158232       2.01939411                           
Co       1.24926644      15.14264904       0.00000000                           
Co       1.24926644      16.58482551       2.01939411                           
Co       0.00000000      12.97941583       4.03878822                           
Co       0.00000000      14.42158232       6.05818233                           
Co       1.24926644      15.14264904       4.03878822                           
Co       1.24926644      16.58482551       6.05818233                           
Co       0.00000000      12.97941583       8.07757643                           
Co       0.00000000      14.42158232      10.09697054                           
Co       1.24926644      15.14264904       8.07757643                           
Co       1.24926644      16.58482551      10.09697054                           
Co       0.00000000      12.97941583      12.11636465                           
Co       0.00000000      14.42158232      14.13575876                           
Co       1.24926644      15.14264904      12.11636465                           
Co       1.24926644      16.58482551      14.13575876                           
Co       0.00000000      12.97941583      16.15515286                           
Co       0.00000000      14.42158232      18.17454697                           
Co       1.24926644      15.14264904      16.15515286                           
Co       1.24926644      16.58482551      18.17454697                           
Co       0.00000000      12.97941583      20.19394108                           
Co       0.00000000      14.42158232      22.21333519                           
Co       1.24926644      15.14264904      20.19394108                           
Co       1.24926644      16.58482551      22.21333519                           
Co       0.00000000      17.30588777       0.00000000                           
Co       0.00000000      18.74805426       2.01939411                           
Co       1.24926644      19.46912098       0.00000000                           
Co       1.24926644      20.91129745       2.01939411                           
Co       0.00000000      17.30588777       4.03878822                           
Co       0.00000000      18.74805426       6.05818233                           
Co       1.24926644      19.46912098       4.03878822                           
Co       1.24926644      20.91129745       6.05818233                           
Co       0.00000000      17.30588777       8.07757643                           
Co       0.00000000      18.74805426      10.09697054                           
Co       1.24926644      19.46912098       8.07757643                           
Co       1.24926644      20.91129745      10.09697054                           
Co       0.00000000      17.30588777      12.11636465                           
Co       0.00000000      18.74805426      14.13575876                           
Co       1.24926644      19.46912098      12.11636465                           
Co       1.24926644      20.91129745      14.13575876                           
Co       0.00000000      17.30588777      16.15515286                           
Co       0.00000000      18.74805426      18.17454697                           
Co       1.24926644      19.46912098      16.15515286                           
Co       1.24926644      20.91129745      18.17454697                           
Co       0.00000000      17.30588777      20.19394108                           
Co       0.00000000      18.74805426      22.21333519                           
Co       1.24926644      19.46912098      20.19394108                           
Co       1.24926644      20.91129745      22.21333519                           
Co       0.00000000      21.63235971       0.00000000                           
Co       0.00000000      23.07452620       2.01939411                           
Co       1.24926644      23.79559293       0.00000000                           
Co       1.24926644      25.23776940       2.01939411                           
Co       0.00000000      21.63235971       4.03878822                           
Co       0.00000000      23.07452620       6.05818233                           
Co       1.24926644      23.79559293       4.03878822                           
Co       1.24926644      25.23776940       6.05818233                           
Co       0.00000000      21.63235971       8.07757643                           
Co       0.00000000      23.07452620      10.09697054                           
Co       1.24926644      23.79559293       8.07757643                           
Co       1.24926644      25.23776940      10.09697054                           
Co       0.00000000      21.63235971      12.11636465                           
Co       0.00000000      23.07452620      14.13575876                           
Co       1.24926644      23.79559293      12.11636465                           
Co       1.24926644      25.23776940      14.13575876                           
Co       0.00000000      21.63235971      16.15515286                           
Co       0.00000000      23.07452620      18.17454697                           
Co       1.24926644      23.79559293      16.15515286                           
Co       1.24926644      25.23776940      18.17454697                           
Co       0.00000000      21.63235971      20.19394108                           
Co       0.00000000      23.07452620      22.21333519                           
Co       1.24926644      23.79559293      20.19394108                           
Co       1.24926644      25.23776940      22.21333519                           
Co       2.49853288       0.00000000       0.00000000                           
Co       2.49853288       1.44216649       2.01939411                           
Co       3.74779932       2.16323321       0.00000000                           
Co       3.74779932       3.60540968       2.01939411                           
Co       2.49853288       0.00000000       4.03878822                           
Co       2.49853288       1.44216649       6.05818233                           
Co       3.74779932       2.16323321       4.03878822                           
Co       3.74779932       3.60540968       6.05818233                           
Co       2.49853288       0.00000000       8.07757643                           
Co       2.49853288       1.44216649      10.09697054                           
Co       3.74779932       2.16323321       8.07757643                           
Co       3.74779932       3.60540968      10.09697054                           
Co       2.49853288       0.00000000      12.11636465                           
Co       2.49853288       1.44216649      14.13575876                           
Co       3.74779932       2.16323321      12.11636465                           
Co       3.74779932       3.60540968      14.13575876                           
Co       2.49853288       0.00000000      16.15515286                           
Co       2.49853288       1.44216649      18.17454697                           
Co       3.74779932       2.16323321      16.15515286                           
Co       3.74779932       3.60540968      18.17454697                           
Co       2.49853288       0.00000000      20.19394108                           
Co       2.49853288       1.44216649      22.21333519                           
Co       3.74779932       2.16323321      20.19394108                           
Co       3.74779932       3.60540968      22.21333519                           
Co       2.49853288       4.32647194       0.00000000                           
Co       2.49853288       5.76863843       2.01939411                           
Co       3.74779932       6.48970515       0.00000000                           
Co       3.74779932       7.93188162       2.01939411                           
Co       2.49853288       4.32647194       4.03878822                           
Co       2.49853288       5.76863843       6.05818233                           
Co       3.74779932       6.48970515       4.03878822                           
Co       3.74779932       7.93188162       6.05818233                           
Co       2.49853288       4.32647194       8.07757643                           
Co       2.49853288       5.76863843      10.09697054                           
Co       3.74779932       6.48970515       8.07757643                           
Co       3.74779932       7.93188162      10.09697054                           
Co       2.49853288       4.32647194      12.11636465                           
Co       2.49853288       5.76863843      14.13575876                           
Co       3.74779932       6.48970515      12.11636465                           
Co       3.74779932       7.93188162      14.13575876                           
Co       2.49853288       4.32647194      16.15515286                           
Co       2.49853288       5.76863843      18.17454697                           
Co       3.74779932       6.48970515      16.15515286                           
Co       3.74779932       7.93188162      18.17454697                           
Co       2.49853288       4.32647194      20.19394108                           
Co       2.49853288       5.76863843      22.21333519                           
Co       3.74779932       6.48970515      20.19394108                           
Co       3.74779932       7.93188162      22.21333519                           
Co       2.49853288       8.65294389       0.00000000                           
Co       2.49853288      10.09511038       2.01939411                           
Co       3.74779932      10.81617710       0.00000000                           
Co       3.74779932      12.25835357       2.01939411                           
Co       2.49853288       8.65294389       4.03878822                           
Co       2.49853288      10.09511038       6.05818233                           
Co       3.74779932      10.81617710       4.03878822                           
Co       3.74779932      12.25835357       6.05818233                           
Co       2.49853288       8.65294389       8.07757643                           
Co       2.49853288      10.09511038      10.09697054                           
Co       3.74779932      10.81617710       8.07757643                           
Co       3.74779932      12.25835357      10.09697054                           
Co       2.49853288       8.65294389      12.11636465                           
Co       2.49853288      10.09511038      14.13575876                           
Co       3.74779932      10.81617710      12.11636465                           
Co       3.74779932      12.25835357      14.13575876                           
Co       2.49853288       8.65294389      16.15515286                           
Co       2.49853288      10.09511038      18.17454697                           
Co       3.74779932      10.81617710      16.15515286                           
Co       3.74779932      12.25835357      18.17454697                           
Co       2.49853288       8.65294389      20.19394108                           
Co       2.49853288      10.09511038      22.21333519                           
Co       3.74779932      10.81617710      20.19394108                           
Co       3.74779932      12.25835357      22.21333519                           
Co       2.49853288      12.97941583       0.00000000                           
Co       2.49853288      14.42158232       2.01939411                           
Co       3.74779932      15.14264904       0.00000000                           
Co       3.74779932      16.58482551       2.01939411                           
Co       2.49853288      12.97941583       4.03878822                           
Co       2.49853288      14.42158232       6.05818233                           
Co       3.74779932      15.14264904       4.03878822                           
Co       3.74779932      16.58482551       6.05818233                           
Co       2.49853288      12.97941583       8.07757643                           
Co       2.49853288      14.42158232      10.09697054                           
Co       3.74779932      15.14264904       8.07757643                           
Co       3.74779932      16.58482551      10.09697054                           
Co       2.49853288      12.97941583      12.11636465                           
Co       2.49853288      14.42158232      14.13575876                           
Co       3.74779932      15.14264904      12.11636465                           
Co       3.74779932      16.58482551      14.13575876                           
Co       2.49853288      12.97941583      16.15515286                           
Co       2.49853288      14.42158232      18.17454697                           
Co       3.74779932      15.14264904      16.15515286                           
Co       3.74779932      16.58482551      18.17454697                           
Co       2.49853288      12.97941583      20.19394108                           
Co       2.49853288      14.42158232      22.21333519                           
Co       3.74779932      15.14264904      20.19394108                           
Co       3.74779932      16.58482551      22.21333519                           
Co       2.49853288      17.30588777       0.00000000                           
Co       2.49853288      18.74805426       2.01939411                           
Co       3.74779932      19.46912098       0.00000000                           
Co       3.74779932      20.91129745       2.01939411                           
Co       2.49853288      17.30588777       4.03878822                           
Co       2.49853288      18.74805426       6.05818233                           
Co       3.74779932      19.46912098       4.03878822                           
Co       3.74779932      20.91129745       6.05818233                           
Co       2.49853288      17.30588777       8.07757643                           
Co       2.49853288      18.74805426      10.09697054                           
Co       3.74779932      19.46912098       8.07757643                           
Co       3.74779932      20.91129745      10.09697054                           
Co       2.49853288      17.30588777      12.11636465                           
Co       2.49853288      18.74805426      14.13575876                           
Co       3.74779932      19.46912098      12.11636465                           
Co       3.74779932      20.91129745      14.13575876                           
Co       2.49853288      17.30588777      16.15515286                           
Co       2.49853288      18.74805426      18.17454697                           
Co       3.74779932      19.46912098      16.15515286                           
Co       3.74779932      20.91129745      18.17454697                           
Co       2.49853288      17.30588777      20.19394108                           
Co       2.49853288      18.74805426      22.21333519                           
Co       3.74779932      19.46912098      20.19394108                           
Co       3.74779932      20.91129745      22.21333519                           
Co       2.49853288      21.63235971       0.00000000                           
Co       2.49853288      23.07452620       2.01939411                           
Co       3.74779932      23.79559293       0.00000000                           
Co       3.74779932      25.23776940       2.01939411                           
Co       2.49853288      21.63235971       4.03878822                           
Co       2.49853288      23.07452620       6.05818233                           
Co       3.74779932      23.79559293       4.03878822                           
Co       3.74779932      25.23776940       6.05818233                           
Co       2.49853288      21.63235971       8.07757643                           
Co       2.49853288      23.07452620      10.09697054                           
Co       3.74779932      23.79559293       8.07757643                           
Co       3.74779932      25.23776940      10.09697054                           
Co       2.49853288      21.63235971      12.11636465                           
Co       2.49853288      23.07452620      14.13575876                           
Co       3.74779932      23.79559293      12.11636465                           
Co       3.74779932      25.23776940      14.13575876                           
Co       2.49853288      21.63235971      16.15515286                           
Co       2.49853288      23.07452620      18.17454697                           
Co       3.74779932      23.79559293      16.15515286                           
Co       3.74779932      25.23776940      18.17454697                           
Co       2.49853288      21.63235971      20.19394108                           
Co       2.49853288      23.07452620      22.21333519                           
Co       3.74779932      23.79559293      20.19394108                           
Co       3.74779932      25.23776940      22.21333519                           
Co       4.99706577       0.00000000       0.00000000                           
Co       4.99706577       1.44216649       2.01939411                           
Co       6.24633221       2.16323321       0.00000000                           
Co       6.24633221       3.60540968       2.01939411                           
Co       4.99706577       0.00000000       4.03878822                           
Co       4.99706577       1.44216649       6.05818233                           
Co       6.24633221       2.16323321       4.03878822                           
Co       6.24633221       3.60540968       6.05818233                           
Co       4.99706577       0.00000000       8.07757643                           
Co       4.99706577       1.44216649      10.09697054                           
Co       6.24633221       2.16323321       8.07757643                           
Co       6.24633221       3.60540968      10.09697054                           
Co       4.99706577       0.00000000      12.11636465                           
Co       4.99706577       1.44216649      14.13575876                           
Co       6.24633221       2.16323321      12.11636465                           
Co       6.24633221       3.60540968      14.13575876                           
Co       4.99706577       0.00000000      16.15515286                           
Co       4.99706577       1.44216649      18.17454697                           
Co       6.24633221       2.16323321      16.15515286                           
Co       6.24633221       3.60540968      18.17454697                           
Co       4.99706577       0.00000000      20.19394108                           
Co       4.99706577       1.44216649      22.21333519                           
Co       6.24633221       2.16323321      20.19394108                           
Co       6.24633221       3.60540968      22.21333519                           
Co       4.99706577       4.32647194       0.00000000                           
Co       4.99706577       5.76863843       2.01939411                           
Co       6.24633221       6.48970515       0.00000000                           
Co       6.24633221       7.93188162       2.01939411                           
Co       4.99706577       4.32647194       4.03878822                           
Co       4.99706577       5.76863843       6.05818233                           
Co       6.24633221       6.48970515       4.03878822                           
Co       6.24633221       7.93188162       6.05818233                           
Co       4.99706577       4.32647194       8.07757643                           
Co       4.99706577       5.76863843      10.09697054                           
Co       6.24633221       6.48970515       8.07757643                           
Co       6.24633221       7.93188162      10.09697054                           
Co       4.99706577       4.32647194      12.11636465                           
Co       4.99706577       5.76863843      14.13575876                           
Co       6.24633221       6.48970515      12.11636465                           
Co       6.24633221       7.93188162      14.13575876                           
Co       4.99706577       4.32647194      16.15515286                           
Co       4.99706577       5.76863843      18.17454697                           
Co       6.24633221       6.48970515      16.15515286                           
Co       6.24633221       7.93188162      18.17454697                           
Co       4.99706577       4.32647194      20.19394108                           
Co       4.99706577       5.76863843      22.21333519                           
Co       6.24633221       6.48970515      20.19394108                           
Co       6.24633221       7.93188162      22.21333519                           
Co       4.99706577       8.65294389       0.00000000                           
Co       4.99706577      10.09511038       2.01939411                           
Co       6.24633221      10.81617710       0.00000000                           
Co       6.24633221      12.25835357       2.01939411                           
Co       4.99706577       8.65294389       4.03878822                           
Co       4.99706577      10.09511038       6.05818233                           
Co       6.24633221      10.81617710       4.03878822                           
Co       6.24633221      12.25835357       6.05818233                           
Co       4.99706577       8.65294389       8.07757643                           
Co       4.99706577      10.09511038      10.09697054                           
Co       6.24633221      10.81617710       8.07757643                           
Co       6.24633221      12.25835357      10.09697054                           
Co       4.99706577       8.65294389      12.11636465                           
Co       4.99706577      10.09511038      14.13575876                           
Co       6.24633221      10.81617710      12.11636465                           
Co       6.24633221      12.25835357      14.13575876                           
Co       4.99706577       8.65294389      16.15515286                           
Co       4.99706577      10.09511038      18.17454697                           
Co       6.24633221      10.81617710      16.15515286                           
Co       6.24633221      12.25835357      18.17454697                           
Co       4.99706577       8.65294389      20.19394108                           
Co       4.99706577      10.09511038      22.21333519                           
Co       6.24633221      10.81617710      20.19394108                           
Co       6.24633221      12.25835357      22.21333519                           
Co       4.99706577      12.97941583       0.00000000                           
Co       4.99706577      14.42158232       2.01939411                           
Co       6.24633221      15.14264904       0.00000000                           
Co       6.24633221      16.58482551       2.01939411                           
Co       4.99706577      12.97941583       4.03878822                           
Co       4.99706577      14.42158232       6.05818233                           
Co       6.24633221      15.14264904       4.03878822                           
Co       6.24633221      16.58482551       6.05818233                           
Co       4.99706577      12.97941583       8.07757643                           
Co       4.99706577      14.42158232      10.09697054                           
Co       6.24633221      15.14264904       8.07757643                           
Co       6.24633221      16.58482551      10.09697054                           
Co       4.99706577      12.97941583      12.11636465                           
Co       4.99706577      14.42158232      14.13575876                           
Co       6.24633221      15.14264904      12.11636465                           
Co       6.24633221      16.58482551      14.13575876                           
Co       4.99706577      12.97941583      16.15515286                           
Co       4.99706577      14.42158232      18.17454697                           
Co       6.24633221      15.14264904      16.15515286                           
Co       6.24633221      16.58482551      18.17454697                           
Co       4.99706577      12.97941583      20.19394108                           
Co       4.99706577      14.42158232      22.21333519                           
Co       6.24633221      15.14264904      20.19394108                           
Co       6.24633221      16.58482551      22.21333519                           
Co       4.99706577      17.30588777       0.00000000                           
Co       4.99706577      18.74805426       2.01939411                           
Co       6.24633221      19.46912098       0.00000000                           
Co       6.24633221      20.91129745       2.01939411                           
Co       4.99706577      17.30588777       4.03878822                           
Co       4.99706577      18.74805426       6.05818233                           
Co       6.24633221      19.46912098       4.03878822                           
Co       6.24633221      20.91129745       6.05818233                           
Co       4.99706577      17.30588777       8.07757643                           
Co       4.99706577      18.74805426      10.09697054                           
Co       6.24633221      19.46912098       8.07757643                           
Co       6.24633221      20.91129745      10.09697054                           
Co       4.99706577      17.30588777      12.11636465                           
Co       4.99706577      18.74805426      14.13575876                           
Co       6.24633221      19.46912098      12.11636465                           
Co       6.24633221      20.91129745      14.13575876                           
Co       4.99706577      17.30588777      16.15515286                           
Co       4.99706577      18.74805426      18.17454697                           
Co       6.24633221      19.46912098      16.15515286                           
Co       6.24633221      20.91129745      18.17454697                           
Co       4.99706577      17.30588777      20.19394108                           
Co       4.99706577      18.74805426      22.21333519                           
Co       6.24633221      19.46912098      20.19394108                           
Co       6.24633221      20.91129745      22.21333519                           
Co       4.99706577      21.63235971       0.00000000                           
Co       4.99706577      23.07452620       2.01939411                           
Co       6.24633221      23.79559293       0.00000000                           
Co       6.24633221      25.23776940       2.01939411                           
Co       4.99706577      21.63235971       4.03878822                           
Co       4.99706577      23.07452620       6.05818233                           
Co       6.24633221      23.79559293       4.03878822                           
Co       6.24633221      25.23776940       6.05818233                           
Co       4.99706577      21.63235971       8.07757643                           
Co       4.99706577      23.07452620      10.09697054                           
Co       6.24633221      23.79559293       8.07757643                           
Co       6.24633221      25.23776940      10.09697054                           
Co       4.99706577      21.63235971      12.11636465                           
Co       4.99706577      23.07452620      14.13575876                           
Co       6.24633221      23.79559293      12.11636465                           
Co       6.24633221      25.23776940      14.13575876                           
Co       4.99706577      21.63235971      16.15515286                           
Co       4.99706577      23.07452620      18.17454697                           
Co       6.24633221      23.79559293      16.15515286                           
Co       6.24633221      25.23776940      18.17454697                           
Co       4.99706577      21.63235971      20.19394108                           
Co       4.99706577      23.07452620      22.21333519                           
Co       6.24633221      23.79559293      20.19394108                           
Co       6.24633221      25.23776940      22.21333519                           
Co       7.49559865       0.00000000       0.00000000                           
Co       7.49559865       1.44216649       2.01939411                           
Co       8.74486509       2.16323321       0.00000000                           
Co       8.74486509       3.60540968       2.01939411                           
Co       7.49559865       0.00000000       4.03878822                           
Co       7.49559865       1.44216649       6.05818233                           
Co       8.74486509       2.16323321       4.03878822                           
Co       8.74486509       3.60540968       6.05818233                           
Co       7.49559865       0.00000000       8.07757643                           
Co       7.49559865       1.44216649      10.09697054                           
Co       8.74486509       2.16323321       8.07757643                           
Co       8.74486509       3.60540968      10.09697054                           
Co       7.49559865       0.00000000      12.11636465                           
Co       7.49559865       1.44216649      14.13575876                           
Co       8.74486509       2.16323321      12.11636465                           
Co       8.74486509       3.60540968      14.13575876                           
Co       7.49559865       0.00000000      16.15515286                           
Co       7.49559865       1.44216649      18.17454697                           
Co       8.74486509       2.16323321      16.15515286                           
Co       8.74486509       3.60540968      18.17454697                           
Co       7.49559865       0.00000000      20.19394108                           
Co       7.49559865       1.44216649      22.21333519                           
Co       8.74486509       2.16323321      20.19394108                           
Co       8.74486509       3.60540968      22.21333519                           
Co       7.49559865       4.32647194       0.00000000                           
Co       7.49559865       5.76863843       2.01939411                           
Co       8.74486509       6.48970515       0.00000000                           
Co       8.74486509       7.93188162       2.01939411                           
Co       7.49559865       4.32647194       4.03878822                           
Co       7.49559865       5.76863843       6.05818233                           
Co       8.74486509       6.48970515       4.03878822                           
Co       8.74486509       7.93188162       6.05818233                           
Co       7.49559865       4.32647194       8.07757643                           
Co       7.49559865       5.76863843      10.09697054                           
Co       8.74486509       6.48970515       8.07757643                           
Co       8.74486509       7.93188162      10.09697054                           
Co       7.49559865       4.32647194      12.11636465                           
Co       7.49559865       5.76863843      14.13575876                           
Co       8.74486509       6.48970515      12.11636465                           
Co       8.74486509       7.93188162      14.13575876                           
Co       7.49559865       4.32647194      16.15515286                           
Co       7.49559865       5.76863843      18.17454697                           
Co       8.74486509       6.48970515      16.15515286                           
Co       8.74486509       7.93188162      18.17454697                           
Co       7.49559865       4.32647194      20.19394108                           
Co       7.49559865       5.76863843      22.21333519                           
Co       8.74486509       6.48970515      20.19394108                           
Co       8.74486509       7.93188162      22.21333519                           
Co       7.49559865       8.65294389       0.00000000                           
Co       7.49559865      10.09511038       2.01939411                           
Co       8.74486509      10.81617710       0.00000000                           
Co       8.74486509      12.25835357       2.01939411                           
Co       7.49559865       8.65294389       4.03878822                           
Co       7.49559865      10.09511038       6.05818233                           
Co       8.74486509      10.81617710       4.03878822                           
Co       8.74486509      12.25835357       6.05818233                           
Co       7.49559865       8.65294389       8.07757643                           
Co       7.49559865      10.09511038      10.09697054                           
Co       8.74486509      10.81617710       8.07757643                           
Co       8.74486509      12.25835357      10.09697054                           
Co       7.49559865       8.65294389      12.11636465                           
Co       7.49559865      10.09511038      14.13575876                           
Co       8.74486509      10.81617710      12.11636465                           
Co       8.74486509      12.25835357      14.13575876                           
Co       7.49559865       8.65294389      16.15515286                           
Co       7.49559865      10.09511038      18.17454697                           
Co       8.74486509      10.81617710      16.15515286                           
Co       8.74486509      12.25835357      18.17454697                           
Co       7.49559865       8.65294389      20.19394108                           
Co       7.49559865      10.09511038      22.21333519                           
Co       8.74486509      10.81617710      20.19394108                           
Co       8.74486509      12.25835357      22.21333519                           
Co       7.49559865      12.97941583       0.00000000                           
Co       7.49559865      14.42158232       2.01939411                           
Co       8.74486509      15.14264904       0.00000000                           
Co       8.74486509      16.58482551       2.01939411                           
Co       7.49559865      12.97941583       4.03878822                           
Co       7.49559865      14.42158232       6.05818233                           
Co       8.74486509      15.14264904       4.03878822                           
Co       8.74486509      16.58482551       6.05818233                           
Co       7.49559865      12.97941583       8.07757643                           
Co       7.49559865      14.42158232      10.09697054                           
Co       8.74486509      15.14264904       8.07757643                           
Co       8.74486509      16.58482551      10.09697054                           
Co       7.49559865      12.97941583      12.11636465                           
Co       7.49559865      14.42158232      14.13575876                           
Co       8.74486509      15.14264904      12.11636465                           
Co       8.74486509      16.58482551      14.13575876                           
Co       7.49559865      12.97941583      16.15515286                           
Co       7.49559865      14.42158232      18.17454697                           
Co       8.74486509      15.14264904      16.15515286                           
Co       8.74486509      16.58482551      18.17454697                           
Co       7.49559865      12.97941583      20.19394108                           
Co       7.49559865      14.42158232      22.21333519                           
Co       8.74486509      15.14264904      20.19394108                           
Co       8.74486509      16.58482551      22.21333519                           
Co       7.49559865      17.30588777       0.00000000                           
Co       7.49559865      18.74805426       2.01939411                           
Co       8.74486509      19.46912098       0.00000000                           
Co       8.74486509      20.91129745       2.01939411                           
Co       7.49559865      17.30588777       4.03878822                           
Co       7.49559865      18.74805426       6.05818233                           
Co       8.74486509      19.46912098       4.03878822                           
Co       8.74486509      20.91129745       6.05818233                           
Co       7.49559865      17.30588777       8.07757643                           
Co       7.49559865      18.74805426      10.09697054                           
Co       8.74486509      19.46912098       8.07757643                           
Co       8.74486509      20.91129745      10.09697054                           
Co       7.49559865      17.30588777      12.11636465                           
Co       7.49559865      18.74805426      14.13575876                           
Co       8.74486509      19.46912098      12.11636465                           
Co       8.74486509      20.91129745      14.13575876                           
Co       7.49559865      17.30588777      16.15515286                           
Co       7.49559865      18.74805426      18.17454697                           
Co       8.74486509      19.46912098      16.15515286                           
Co       8.74486509      20.91129745      18.17454697                           
Co       7.49559865      17.30588777      20.19394108                           
Co       7.49559865      18.74805426      22.21333519                           
Co       8.74486509      19.46912098      20.19394108                           
Co       8.74486509      20.91129745      22.21333519                           
Co       7.49559865      21.63235971       0.00000000                           
Co       7.49559865      23.07452620       2.01939411                           
Co       8.74486509      23.79559293       0.00000000                           
Co       8.74486509      25.23776940       2.01939411                           
Co       7.49559865      21.63235971       4.03878822                           
Co       7.49559865      23.07452620       6.05818233                           
Co       8.74486509      23.79559293       4.03878822                           
Co       8.74486509      25.23776940       6.05818233                           
Co       7.49559865      21.63235971       8.07757643                           
Co       7.49559865      23.07452620      10.09697054                           
Co       8.74486509      23.79559293       8.07757643                           
Co       8.74486509      25.23776940      10.09697054                           
Co       7.49559865      21.63235971      12.11636465                           
Co       7.49559865      23.07452620      14.13575876                           
Co       8.74486509      23.79559293      12.11636465                           
Co       8.74486509      25.23776940      14.13575876                           
Co       7.49559865      21.63235971      16.15515286                           
Co       7.49559865      23.07452620      18.17454697                           
Co       8.74486509      23.79559293      16.15515286                           
Co       8.74486509      25.23776940      18.17454697                           
Co       7.49559865      21.63235971      20.19394108                           
Co       7.49559865      23.07452620      22.21333519                           
Co       8.74486509      23.79559293      20.19394108                           
Co       8.74486509      25.23776940      22.21333519                           
Co       9.99413154       0.00000000       0.00000000                           
Co       9.99413154       1.44216649       2.01939411                           
Co      11.24339798       2.16323321       0.00000000                           
Co      11.24339798       3.60540968       2.01939411                           
Co       9.99413154       0.00000000       4.03878822                           
Co       9.99413154       1.44216649       6.05818233                           
Co      11.24339798       2.16323321       4.03878822                           
Co      11.24339798       3.60540968       6.05818233                           
Co       9.99413154       0.00000000       8.07757643                           
Co       9.99413154       1.44216649      10.09697054                           
Co      11.24339798       2.16323321       8.07757643                           
Co      11.24339798       3.60540968      10.09697054                           
Co       9.99413154       0.00000000      12.11636465                           
Co       9.99413154       1.44216649      14.13575876                           
Co      11.24339798       2.16323321      12.11636465                           
Co      11.24339798       3.60540968      14.13575876                           
Co       9.99413154       0.00000000      16.15515286                           
Co       9.99413154       1.44216649      18.17454697                           
Co      11.24339798       2.16323321      16.15515286                           
Co      11.24339798       3.60540968      18.17454697                           
Co       9.99413154       0.00000000      20.19394108                           
Co       9.99413154       1.44216649      22.21333519                           
Co      11.24339798       2.16323321      20.19394108                           
Co      11.24339798       3.60540968      22.21333519                           
Co       9.99413154       4.32647194       0.00000000                           
Co       9.99413154       5.76863843       2.01939411                           
Co      11.24339798       6.48970515       0.00000000                           
Co      11.24339798       7.93188162       2.01939411                           
Co       9.99413154       4.32647194       4.03878822                           
Co       9.99413154       5.76863843       6.05818233                           
Co      11.24339798       6.48970515       4.03878822                           
Co      11.24339798       7.93188162       6.05818233                           
Co       9.99413154       4.32647194       8.07757643                           
Co       9.99413154       5.76863843      10.09697054                           
Co      11.24339798       6.48970515       8.07757643                           
Co      11.24339798       7.93188162      10.09697054                           
Co       9.99413154       4.32647194      12.11636465                           
Co       9.99413154       5.76863843      14.13575876                           
Co      11.24339798       6.48970515      12.11636465                           
Co      11.24339798       7.93188162      14.13575876                           
Co       9.99413154       4.32647194      16.15515286                           
Co       9.99413154       5.76863843      18.17454697                           
Co      11.24339798       6.48970515      16.15515286                           
Co      11.24339798       7.93188162      18.17454697                           
Co       9.99413154       4.32647194      20.19394108                           
Co       9.99413154       5.76863843      22.21333519                           
Co      11.24339798       6.48970515      20.19394108                           
Co      11.24339798       7.93188162      22.21333519                           
Co       9.99413154       8.65294389       0.00000000                           
Co       9.99413154      10.09511038       2.01939411                           
Co      11.24339798      10.81617710       0.00000000                           
Co      11.24339798      12.25835357       2.01939411                           
Co       9.99413154       8.65294389       4.03878822                           
Co       9.99413154      10.09511038       6.05818233                           
Co      11.24339798      10.81617710       4.03878822                           
Co      11.24339798      12.25835357       6.05818233                           
Co       9.99413154       8.65294389       8.07757643                           
Co       9.99413154      10.09511038      10.09697054                           
Co      11.24339798      10.81617710       8.07757643                           
Co      11.24339798      12.25835357      10.09697054                           
Co       9.99413154       8.65294389      12.11636465                           
Co       9.99413154      10.09511038      14.13575876                           
Co      11.24339798      10.81617710      12.11636465                           
Co      11.24339798      12.25835357      14.13575876                           
Co       9.99413154       8.65294389      16.15515286                           
Co       9.99413154      10.09511038      18.17454697                           
Co      11.24339798      10.81617710      16.15515286                           
Co      11.24339798      12.25835357      18.17454697                           
Co       9.99413154       8.65294389      20.19394108                           
Co       9.99413154      10.09511038      22.21333519                           
Co      11.24339798      10.81617710      20.19394108                           
Co      11.24339798      12.25835357      22.21333519                           
Co       9.99413154      12.97941583       0.00000000                           
Co       9.99413154      14.42158232       2.01939411                           
Co      11.24339798      15.14264904       0.00000000                           
Co      11.24339798      16.58482551       2.01939411                           
Co       9.99413154      12.97941583       4.03878822                           
Co       9.99413154      14.42158232       6.05818233                           
Co      11.24339798      15.14264904       4.03878822                           
Co      11.24339798      16.58482551       6.05818233                           
Co       9.99413154      12.97941583       8.07757643                           
Co       9.99413154      14.42158232      10.09697054                           
Co      11.24339798      15.14264904       8.07757643                           
Co      11.24339798      16.58482551      10.09697054                           
Co       9.99413154      12.97941583      12.11636465                           
Co       9.99413154      14.42158232      14.13575876                           
Co      11.24339798      15.14264904      12.11636465                           
Co      11.24339798      16.58482551      14.13575876                           
Co       9.99413154      12.97941583      16.15515286                           
Co       9.99413154      14.42158232      18.17454697                           
Co      11.24339798      15.14264904      16.15515286                           
Co      11.24339798      16.58482551      18.17454697                           
Co       9.99413154      12.97941583      20.19394108                           
Co       9.99413154      14.42158232      22.21333519                           
Co      11.24339798      15.14264904      20.19394108                           
Co      11.24339798      16.58482551      22.21333519                           
Co       9.99413154      17.30588777       0.00000000                           
Co       9.99413154      18.74805426       2.01939411                           
Co      11.24339798      19.46912098       0.00000000                           
Co      11.24339798      20.91129745       2.01939411                           
Co       9.99413154      17.30588777       4.03878822                           
Co       9.99413154      18.74805426       6.05818233                           
Co      11.24339798      19.46912098       4.03878822                           
Co      11.24339798      20.91129745       6.05818233                           
Co       9.99413154      17.30588777       8.07757643                           
Co       9.99413154      18.74805426      10.09697054                           
Co      11.24339798      19.46912098       8.07757643                           
Co      11.24339798      20.91129745      10.09697054                           
Co       9.99413154      17.30588777      12.11636465                           
Co       9.99413154      18.74805426      14.13575876                           
Co      11.24339798      19.46912098      12.11636465                           
Co      11.24339798      20.91129745      14.13575876                           
Co       9.99413154      17.30588777      16.15515286                           
Co       9.99413154      18.74805426      18.17454697                           
Co      11.24339798      19.46912098      16.15515286                           
Co      11.24339798      20.91129745      18.17454697                           
Co       9.99413154      17.30588777      20.19394108                           
Co       9.99413154      18.74805426      22.21333519                           
Co      11.24339798      19.46912098      20.19394108                           
Co      11.24339798      20.91129745      22.21333519                           
Co       9.99413154      21.63235971       0.00000000                           
Co       9.99413154      23.07452620       2.01939411                           
Co      11.24339798      23.79559293       0.00000000                           
Co      11.24339798      25.23776940       2.01939411                           
Co       9.99413154      21.63235971       4.03878822                           
Co       9.99413154      23.07452620       6.05818233                           
Co      11.24339798      23.79559293       4.03878822                           
Co      11.24339798      25.23776940       6.05818233                           
Co       9.99413154      21.63235971       8.07757643                           
Co       9.99413154      23.07452620      10.09697054                           
Co      11.24339798      23.79559293       8.07757643                           
Co      11.24339798      25.23776940      10.09697054                           
Co       9.99413154      21.63235971      12.11636465                           
Co       9.99413154      23.07452620      14.13575876                           
Co      11.24339798      23.79559293      12.11636465                           
Co      11.24339798      25.23776940      14.13575876                           
Co       9.99413154      21.63235971      16.15515286                           
Co       9.99413154      23.07452620      18.17454697                           
Co      11.24339798      23.79559293      16.15515286                           
Co      11.24339798      25.23776940      18.17454697                           
Co       9.99413154      21.63235971      20.19394108                           
Co       9.99413154      23.07452620      22.21333519                           
Co      11.24339798      23.79559293      20.19394108                           
Co      11.24339798      25.23776940      22.21333519                           
Co      12.49266442       0.00000000       0.00000000                           
Co      12.49266442       1.44216649       2.01939411                           
Co      13.74193086       2.16323321       0.00000000                           
Co      13.74193086       3.60540968       2.01939411                           
Co      12.49266442       0.00000000       4.03878822                           
Co      12.49266442       1.44216649       6.05818233                           
Co      13.74193086       2.16323321       4.03878822                           
Co      13.74193086       3.60540968       6.05818233                           
Co      12.49266442       0.00000000       8.07757643                           
Co      12.49266442       1.44216649      10.09697054                           
Co      13.74193086       2.16323321       8.07757643                           
Co      13.74193086       3.60540968      10.09697054                           
Co      12.49266442       0.00000000      12.11636465                           
Co      12.49266442       1.44216649      14.13575876                           
Co      13.74193086       2.16323321      12.11636465                           
Co      13.74193086       3.60540968      14.13575876                           
Co      12.49266442       0.00000000      16.15515286                           
Co      12.49266442       1.44216649      18.17454697                           
Co      13.74193086       2.16323321      16.15515286                           
Co      13.74193086       3.60540968      18.17454697                           
Co      12.49266442       0.00000000      20.19394108                           
Co      12.49266442       1.44216649      22.21333519                           
Co      13.74193086       2.16323321      20.19394108                           
Co      13.74193086       3.60540968      22.21333519                           
Co      12.49266442       4.32647194       0.00000000                           
Co      12.49266442       5.76863843       2.01939411                           
Co      13.74193086       6.48970515       0.00000000                           
Co      13.74193086       7.93188162       2.01939411                           
Co      12.49266442       4.32647194       4.03878822                           
Co      12.49266442       5.76863843       6.05818233                           
Co      13.74193086       6.48970515       4.03878822                           
Co      13.74193086       7.93188162       6.05818233                           
Co      12.49266442       4.32647194       8.07757643                           
Co      12.49266442       5.76863843      10.09697054                           
Co      13.74193086       6.48970515       8.07757643                           
Co      13.74193086       7.93188162      10.09697054                           
Co      12.49266442       4.32647194      12.11636465                           
Co      12.49266442       5.76863843      14.13575876                           
Co      13.74193086       6.48970515      12.11636465                           
Co      13.74193086       7.93188162      14.13575876                           
Co      12.49266442       4.32647194      16.15515286                           
Co      12.49266442       5.76863843      18.17454697                           
Co      13.74193086       6.48970515      16.15515286                           
Co      13.74193086       7.93188162      18.17454697                           
Co      12.49266442       4.32647194      20.19394108                           
Co      12.49266442       5.76863843      22.21333519                           
Co      13.74193086       6.48970515      20.19394108                           
Co      13.74193086       7.93188162      22.21333519                           
Co      12.49266442       8.65294389       0.00000000                           
Co      12.49266442      10.09511038       2.01939411                           
Co      13.74193086      10.81617710       0.00000000                           
Co      13.74193086      12.25835357       2.01939411                           
Co      12.49266442       8.65294389       4.03878822                           
Co      12.49266442      10.09511038       6.05818233                           
Co      13.74193086      10.81617710       4.03878822                           
Co      13.74193086      12.25835357       6.05818233                           
Co      12.49266442       8.65294389       8.07757643                           
Co      12.49266442      10.09511038      10.09697054                           
Co      13.74193086      10.81617710       8.07757643                           
Co      13.74193086      12.25835357      10.09697054                           
Co      12.49266442       8.65294389      12.11636465                           
Co      12.49266442      10.09511038      14.13575876                           
Co      13.74193086      10.81617710      12.11636465                           
Co      13.74193086      12.25835357      14.13575876                           
Co      12.49266442       8.65294389      16.15515286                           
Co      12.49266442      10.09511038      18.17454697                           
Co      13.74193086      10.81617710      16.15515286                           
Co      13.74193086      12.25835357      18.17454697                           
Co      12.49266442       8.65294389      20.19394108                           
Co      12.49266442      10.09511038      22.21333519                           
Co      13.74193086      10.81617710      20.19394108                           
Co      13.74193086      12.25835357      22.21333519                           
Co      12.49266442      12.97941583       0.00000000                           
Co      12.49266442      14.42158232       2.01939411                           
Co      13.74193086      15.14264904       0.00000000                           
Co      13.74193086      16.58482551       2.01939411                           
Co      12.49266442      12.97941583       4.03878822                           
Co      12.49266442      14.42158232       6.05818233                           
Co      13.74193086      15.14264904       4.03878822                           
Co      13.74193086      16.58482551       6.05818233                           
Co      12.49266442      12.97941583       8.07757643                           
Co      12.49266442      14.42158232      10.09697054                           
Co      13.74193086      15.14264904       8.07757643                           
Co      13.74193086      16.58482551      10.09697054                           
Co      12.49266442      12.97941583      12.11636465                           
Co      12.49266442      14.42158232      14.13575876                           
Co      13.74193086      15.14264904      12.11636465                           
Co      13.74193086      16.58482551      14.13575876                           
Co      12.49266442      12.97941583      16.15515286                           
Co      12.49266442      14.42158232      18.17454697                           
Co      13.74193086      15.14264904      16.15515286                           
Co      13.74193086      16.58482551      18.17454697                           
Co      12.49266442      12.97941583      20.19394108                           
Co      12.49266442      14.42158232      22.21333519                           
Co      13.74193086      15.14264904      20.19394108                           
Co      13.74193086      16.58482551      22.21333519                           
Co      12.49266442      17.30588777       0.00000000                           
Co      12.49266442      18.74805426       2.01939411                           
Co      13.74193086      19.46912098       0.00000000                           
Co      13.74193086      20.91129745       2.01939411                           
Co      12.49266442      17.30588777       4.03878822                           
Co      12.49266442      18.74805426       6.05818233                           
Co      13.74193086      19.46912098       4.03878822                           
Co      13.74193086      20.91129745       6.05818233                           
Co      12.49266442      17.30588777       8.07757643                           
Co      12.49266442      18.74805426      10.09697054                           
Co      13.74193086      19.46912098       8.07757643                           
Co      13.74193086      20.91129745      10.09697054                           
Co      12.49266442      17.30588777      12.11636465                           
Co      12.49266442      18.74805426      14.13575876                           
Co      13.74193086      19.46912098      12.11636465                           
Co      13.74193086      20.91129745      14.13575876                           
Co      12.49266442      17.30588777      16.15515286                           
Co      12.49266442      18.74805426      18.17454697                           
Co      13.74193086      19.46912098      16.15515286                           
Co      13.74193086      20.91129745      18.17454697                           
Co      12.49266442      17.30588777      20.19394108                           
Co      12.49266442      18.74805426      22.21333519                           
Co      13.74193086      19.46912098      20.19394108                           
Co      13.74193086      20.91129745      22.21333519                           
Co      12.49266442      21.63235971       0.00000000                           
Co      12.49266442      23.07452620       2.01939411                           
Co      13.74193086      23.79559293       0.00000000                           
Co      13.74193086      25.23776940       2.01939411                           
Co      12.49266442      21.63235971       4.03878822                           
Co      12.49266442      23.07452620       6.05818233                           
Co      13.74193086      23.79559293       4.03878822                           
Co      13.74193086      25.23776940       6.05818233                           
Co      12.49266442      21.63235971       8.07757643                           
[...]
*    Co    702     -0.00005447  -0.00188888   0.00008708 *
*    Co    703     -0.00012694  -0.00169662  -0.00000000 *
*    Co    704     -0.00012506  -0.00205228   0.00002359 *
*    Co    705     -0.00003839  -0.00124256  -0.00000003 *
*    Co    706     -0.00005447  -0.00188888  -0.00008710 *
*    Co    707     -0.00034641  -0.00169159   0.00000000 *
*    Co    708     -0.00012506  -0.00205228  -0.00002356 *
*    Co    709     -0.00005638  -0.00121900  -0.00000003 *
*    Co    710     -0.00005447  -0.00188888   0.00008708 *
*    Co    711     -0.00012694  -0.00169662  -0.00000000 *
*    Co    712     -0.00012506  -0.00205228   0.00002359 *
*    Co    713     -0.00003839  -0.00124256  -0.00000003 *
*    Co    714     -0.00005447  -0.00188888  -0.00008710 *
*    Co    715     -0.00034641  -0.00169159   0.00000000 *
*    Co    716     -0.00012506  -0.00205228  -0.00002356 *
*    Co    717     -0.00005638  -0.00121900  -0.00000003 *
*    Co    718     -0.00005447  -0.00188888   0.00008708 *
*    Co    719     -0.00012694  -0.00169662  -0.00000000 *
*    Co    720     -0.00012506  -0.00205228   0.00002359 *
*    Co    721     -0.00018439  -0.00176464  -0.00000001 *
*    Co    722     -0.00032119  -0.00173922  -0.00019046 *
*    Co    723     -0.00003063  -0.00134052  -0.00000003 *
*    Co    724     -0.00004414  -0.00112084  -0.00002267 *
*    Co    725     -0.00023569  -0.00175626  -0.00000001 *
*    Co    726     -0.00032119  -0.00173922   0.00019053 *
*    Co    727     -0.00002498  -0.00133812  -0.00000003 *
*    Co    728     -0.00004413  -0.00112084   0.00002264 *
*    Co    729     -0.00018439  -0.00176464  -0.00000001 *
*    Co    730     -0.00032119  -0.00173922  -0.00019046 *
*    Co    731     -0.00003063  -0.00134052  -0.00000003 *
*    Co    732     -0.00004414  -0.00112084  -0.00002267 *
*    Co    733     -0.00023569  -0.00175626  -0.00000001 *
*    Co    734     -0.00032119  -0.00173922   0.00019053 *
*    Co    735     -0.00002498  -0.00133812  -0.00000003 *
*    Co    736     -0.00004413  -0.00112084   0.00002264 *
*    Co    737     -0.00018439  -0.00176464  -0.00000001 *
*    Co    738     -0.00032119  -0.00173922  -0.00019046 *
*    Co    739     -0.00003063  -0.00134052  -0.00000003 *
*    Co    740     -0.00004414  -0.00112084  -0.00002267 *
*    Co    741     -0.00023569  -0.00175626  -0.00000001 *
*    Co    742     -0.00032119  -0.00173922   0.00019053 *
*    Co    743     -0.00002498  -0.00133812  -0.00000003 *
*    Co    744     -0.00004413  -0.00112084   0.00002264 *
*    Co    745     -0.00020344  -0.00034422   0.00000001 *
*    Co    746     -0.00028453   0.00003330  -0.00013250 *
*    Co    747      0.00000077   0.00049180  -0.00000001 *
*    Co    748     -0.00003472   0.00080745  -0.00005489 *
*    Co    749     -0.00025452  -0.00043954   0.00000001 *
*    Co    750     -0.00028453   0.00003330   0.00013255 *
*    Co    751     -0.00002045   0.00046803  -0.00000002 *
*    Co    752     -0.00003472   0.00080745   0.00005496 *
*    Co    753     -0.00020344  -0.00034422   0.00000001 *
*    Co    754     -0.00028453   0.00003330  -0.00013250 *
*    Co    755      0.00000077   0.00049180  -0.00000001 *
*    Co    756     -0.00003472   0.00080745  -0.00005489 *
*    Co    757     -0.00025452  -0.00043954   0.00000001 *
*    Co    758     -0.00028453   0.00003330   0.00013255 *
*    Co    759     -0.00002045   0.00046803  -0.00000002 *
*    Co    760     -0.00003472   0.00080745   0.00005496 *
*    Co    761     -0.00020344  -0.00034422   0.00000001 *
*    Co    762     -0.00028453   0.00003330  -0.00013250 *
*    Co    763      0.00000077   0.00049180  -0.00000001 *
*    Co    764     -0.00003472   0.00080745  -0.00005489 *
*    Co    765     -0.00025452  -0.00043954   0.00000001 *
*    Co    766     -0.00028453   0.00003330   0.00013255 *
*    Co    767     -0.00002045   0.00046803  -0.00000002 *
*    Co    768     -0.00003472   0.00080745   0.00005496 *
*    Co    769     -0.00028322   0.00158091  -0.00000002 *
*    Co    770     -0.00038344   0.00166776  -0.00007751 *
*    Co    771     -0.00001086   0.00190358   0.00000001 *
*    Co    772     -0.00003274   0.00177895  -0.00003750 *
*    Co    773     -0.00035237   0.00147799  -0.00000002 *
*    Co    774     -0.00038345   0.00166776   0.00007750 *
*    Co    775     -0.00004146   0.00192335   0.00000000 *
*    Co    776     -0.00003274   0.00177895   0.00003754 *
*    Co    777     -0.00028322   0.00158091  -0.00000002 *
*    Co    778     -0.00038344   0.00166776  -0.00007751 *
*    Co    779     -0.00001086   0.00190358   0.00000001 *
*    Co    780     -0.00003274   0.00177895  -0.00003750 *
*    Co    781     -0.00035237   0.00147799  -0.00000002 *
*    Co    782     -0.00038345   0.00166776   0.00007750 *
*    Co    783     -0.00004146   0.00192335   0.00000000 *
*    Co    784     -0.00003274   0.00177895   0.00003754 *
*    Co    785     -0.00028322   0.00158091  -0.00000002 *
*    Co    786     -0.00038344   0.00166776  -0.00007751 *
*    Co    787     -0.00001086   0.00190358   0.00000001 *
*    Co    788     -0.00003274   0.00177895  -0.00003750 *
*    Co    789     -0.00035237   0.00147799  -0.00000002 *
*    Co    790     -0.00038345   0.00166776   0.00007750 *
*    Co    791     -0.00004146   0.00192335   0.00000000 *
*    Co    792     -0.00003274   0.00177895   0.00003754 *
*    Co    793     -0.00024393   0.00202797  -0.00000001 *
*    Co    794     -0.00036203   0.00146202  -0.00007768 *
*    Co    795     -0.00001198   0.00159884  -0.00000003 *
*    Co    796     -0.00003953   0.00082453  -0.00003987 *
*    Co    797     -0.00026435   0.00201595  -0.00000001 *
*    Co    798     -0.00036203   0.00146202   0.00007776 *
*    Co    799     -0.00004210   0.00162046  -0.00000003 *
*    Co    800     -0.00003953   0.00082453   0.00003984 *
*    Co    801     -0.00024393   0.00202797  -0.00000001 *
*    Co    802     -0.00036203   0.00146202  -0.00007768 *
*    Co    803     -0.00001198   0.00159884  -0.00000003 *
*    Co    804     -0.00003953   0.00082453  -0.00003987 *
*    Co    805     -0.00026435   0.00201595  -0.00000001 *
*    Co    806     -0.00036203   0.00146202   0.00007776 *
*    Co    807     -0.00004210   0.00162046  -0.00000003 *
*    Co    808     -0.00003953   0.00082453   0.00003984 *
*    Co    809     -0.00024393   0.00202797  -0.00000001 *
*    Co    810     -0.00036203   0.00146202  -0.00007768 *
*    Co    811     -0.00001198   0.00159884  -0.00000003 *
*    Co    812     -0.00003953   0.00082453  -0.00003987 *
*    Co    813     -0.00026435   0.00201595  -0.00000001 *
*    Co    814     -0.00036203   0.00146202   0.00007776 *
*    Co    815     -0.00004210   0.00162046  -0.00000003 *
*    Co    816     -0.00003953   0.00082453   0.00003984 *
*    Co    817     -0.00027824   0.00056760   0.00000001 *
*    Co    818     -0.00033818  -0.00032012  -0.00013174 *
*    Co    819     -0.00001499  -0.00022340  -0.00000001 *
*    Co    820     -0.00003898  -0.00107510  -0.00004501 *
*    Co    821     -0.00034312   0.00066049   0.00000001 *
*    Co    822     -0.00033818  -0.00032012   0.00013179 *
*    Co    823     -0.00002316  -0.00018760  -0.00000002 *
*    Co    824     -0.00003898  -0.00107510   0.00004507 *
*    Co    825     -0.00027824   0.00056760   0.00000001 *
*    Co    826     -0.00033818  -0.00032012  -0.00013174 *
*    Co    827     -0.00001499  -0.00022340  -0.00000001 *
*    Co    828     -0.00003898  -0.00107510  -0.00004501 *
*    Co    829     -0.00034312   0.00066049   0.00000001 *
*    Co    830     -0.00033818  -0.00032012   0.00013179 *
*    Co    831     -0.00002316  -0.00018760  -0.00000002 *
*    Co    832     -0.00003898  -0.00107510   0.00004507 *
*    Co    833     -0.00027824   0.00056760   0.00000001 *
*    Co    834     -0.00033818  -0.00032012  -0.00013174 *
*    Co    835     -0.00001499  -0.00022340  -0.00000001 *
*    Co    836     -0.00003898  -0.00107510  -0.00004501 *
*    Co    837     -0.00034312   0.00066049   0.00000001 *
*    Co    838     -0.00033818  -0.00032012   0.00013179 *
*    Co    839     -0.00002316  -0.00018760  -0.00000002 *
*    Co    840     -0.00003898  -0.00107510   0.00004507 *
*    Co    841     -0.00019430  -0.00128765  -0.00000002 *
*    Co    842     -0.00031712  -0.00188508  -0.00019774 *
*    Co    843     -0.00002507  -0.00167830   0.00000001 *
*    Co    844     -0.00004690  -0.00204440  -0.00002746 *
*    Co    845     -0.00023849  -0.00118317  -0.00000002 *
*    Co    846     -0.00031712  -0.00188508   0.00019772 *
*    Co    847     -0.00001908  -0.00168744   0.00000000 *
*    Co    848     -0.00004690  -0.00204440   0.00002749 *
*    Co    849     -0.00019430  -0.00128765  -0.00000002 *
*    Co    850     -0.00031712  -0.00188508  -0.00019774 *
*    Co    851     -0.00002507  -0.00167830   0.00000001 *
*    Co    852     -0.00004690  -0.00204440  -0.00002746 *
*    Co    853     -0.00023849  -0.00118317  -0.00000002 *
*    Co    854     -0.00031712  -0.00188508   0.00019772 *
*    Co    855     -0.00001908  -0.00168744   0.00000000 *
*    Co    856     -0.00004690  -0.00204440   0.00002749 *
*    Co    857     -0.00019430  -0.00128765  -0.00000002 *
*    Co    858     -0.00031712  -0.00188508  -0.00019774 *
*    Co    859     -0.00002507  -0.00167830   0.00000001 *
*    Co    860     -0.00004690  -0.00204440  -0.00002746 *
*    Co    861     -0.00023849  -0.00118317  -0.00000002 *
*    Co    862     -0.00031712  -0.00188508   0.00019772 *
*    Co    863     -0.00001908  -0.00168744   0.00000000 *
*    Co    864     -0.00004690  -0.00204440   0.00002749 *
*                                                        *
**********************************************************
* TOTAL:           -0.00000000   0.00000000  -0.00000000 *
**********************************************************
 
 
***********************************************************
********** Summary of Forces (values in Eh/a) *************
*                                                         *
* ---------------------- Minimum ------------------------ *
* Atom:       474, |F|min =    0.00005101                 *
* Components:     Fx|min       Fy|min       Fz|min        *
*              -0.00000059   0.00001667  -0.00004820      *
*                                                         *
* ---------------------- Maximum ------------------------ *
* Atom:       576, |F|max =    0.00205713                 *
* Components:     Fx|max       Fy|max       Fz|max        *
*              -0.00002819  -0.00205649   0.00004288      *
*                                                         *
* ---------------- Root Mean Square Force --------------- *
*                  |F|rms =    0.00138535                 *
* Components:     Fx|rms       Fy|rms       Fz|rms        *
*               0.00016160   0.00137473   0.00005642      *
***********************************************************
 

------------------------------ TIMING INFORMATION ------------------------------
AVERAGE TIME:   46151.337s on    320 proc(s)                                    
TOTAL TIME:     46151.338s on    320 proc(s)                                    
==================== AVERAGE TIMINGS FROM ALL PROCS (CUMULATIVE) =====================
|| TAG                                         #calls     cpu time   %total  Gflops ||
|| hash_table_free                            :    49        0.00s   0.000%  ------ ||
|| sw_bessel_init_cpu                         :     1        0.05s   0.000%  ------ || (1 procs only)
|| onetep.F90 final imbalance                 :     1        0.00s   0.000%  ------ ||
|| ewald_calculate_forces_realspace           :     1        0.00s   0.000%  ------ ||
|| onetep.F90 main loop imbalance             :     1        0.00s   0.000%  ------ ||
|| density_fftbox_interp_mult_imbal           : 37830        0.01s   0.000%  ------ ||
|| linalg_dgemv                               :    12        0.04s   0.000%  ------ ||
|| pseudo_make_structure_factor               :     1        0.11s   0.000%  ------ ||
|| sparse_set_to_garbage                      :   435        0.12s   0.000%  ------ ||
|| augmentation_density_forces                :     1        0.13s   0.000%  ------ ||
|| paw_tcore_density                          :     1        0.13s   0.000%  ------ ||
|| paw_nlcc_calculate_forces                  :     1        0.18s   0.000%  ------ ||
|| sw_init                                    :   968        0.25s   0.001%  ------ ||
|| ewald_calculate_energy                     :     1        0.31s   0.001%  ------ ||
|| basis_extract_function_from_box            :  2983        0.32s   0.001%  ------ ||
|| ewald_calculate_forces_recipspace          :     1        0.51s   0.001%  ------ ||
|| ewald_calculate_forces                     :     1        0.51s   0.001%  ------ ||
|| paw_dij_hartree                            :   665        0.53s   0.001%  ------ ||
|| paw_tcore_hartree_calc_forces              :     1        0.60s   0.001%  ------ ||
|| paw_sphere_density_on_grid                 :     1        0.60s   0.001%  ------ ||
|| integrals_grad_spam3                       :     1        0.63s   0.001%  ------ ||
|| nonsc_forces_ngwfs_calc                    :     1        0.64s   0.001%  ------ ||
|| paw_species_calc_proj_prec_mat             :     1        0.84s   0.002%  ------ ||
|| paw_dataset_init                           :     1        1.21s   0.003%  ------ ||
|| restart_hamiltonian_read                   :     1        1.43s   0.003%  ------ ||
|| restart_kernel_read                        :     1        1.56s   0.003%  ------ ||
|| paw_tcore_hartree_on_grid                  :     1        2.12s   0.005%  ------ ||
|| sparse_init                                :     1        2.33s   0.005%  ------ ||
|| restart_ngwfs_tightbox_input               :     1        2.44s   0.005%  ------ ||
|| sparse_spam3toblacs_real_fast_imbal        :  1872        3.06s   0.007%  ------ ||
|| fourier_filter_cell                        :   368        4.22s   0.009% 137.803 ||
|| sparse_blacstospam3_real_fast_imbal        :  1840        5.69s   0.012%  ------ ||
|| hartree_on_grid_single                     :   483        6.54s   0.014%  ------ ||
|| energy_and_force_init_cell                 :     1        7.17s   0.016%  ------ ||
|| fourier_interpolate_cell                   :   970        9.02s   0.020% 169.935 ||
|| fourier_apply_box_pair                     :  3843       16.88s   0.037%  2.430k ||
|| projectors_func_grad_ovlp_box_spam3        :     3       16.92s   0.037%  ------ ||
|| basis_copy_function_to_box                 : 48789       23.10s   0.050%  ------ ||
|| sparse_spam3toblacs_real_fast_B2           : 599.0k      25.69s   0.056%  ------ ||
|| aug_nl_calculate_forces                    :     1       27.99s   0.061%  ------ ||
|| fourier_apply_cell_backward                :  4348       31.82s   0.069% 194.533 ||
|| restart_hamiltonian_write                  :    21       35.03s   0.076%  ------ ||
|| hamiltonian_energy_components              :     1       39.71s   0.086%  ------ ||
|| fourier_apply_cell_forward                 :  4348       41.18s   0.089% 150.312 ||
|| projectors_init_fftbox_recip               :   305       42.80s   0.093%  ------ ||
|| augmentation_screen_dij_spam3              :   482       54.95s   0.119%  ------ ||
|| restart_kernel_write                       :    21       63.43s   0.137%  ------ ||
|| xc_energy_potential                        :   483       74.20s   0.161%  ------ ||
|| forces_calculate                           :     1      105.68s   0.229%  ------ ||
|| cell_grid_extract_box_real                 : 17609      109.08s   0.236%  ------ ||
|| eigenstates_calculate                      :     1      121.26s   0.263%  ------ ||
|| sparse_embed_array_hotelling_invert        :    49      122.79s   0.266%  ------ ||
|| aug_density_on_grid_spam3                  :   485      124.26s   0.269%  ------ ||
|| ngwf_gradient_coeffs                       :    21      165.92s   0.360%  ------ ||
|| fourier_filter                             :  7309      218.20s   0.473%  ------ ||
|| projectors_func_ovlp_box_spam3             :    49      267.85s   0.580%  ------ ||
|| restart_ngwfs_tightbox_output              :    20      270.33s   0.586%  ------ ||
|| sparse_trace                               : 12058      276.00s   0.598%  ------ ||
|| cell_grid_deposit_box_real                 : 41685      288.08s   0.624%  ------ ||
|| properties_calculate                       :     1      313.57s   0.679%  ------ ||
|| fourier_interpolate                        :  7309      317.46s   0.688%  ------ ||
|| paw_dij_xc                                 :   665      463.31s   1.004%  ------ ||
|| density_fftbox_deposit_to_cell             : 37830      549.67s   1.191%  ------ ||
|| projectors_gradient_batch                  :   126      561.41s   1.216%  ------ ||
|| function_ops_brappd_ketppd_spam3           :    97      591.97s   1.283%  ------ ||
|| aug_nonlocal_mat_spam3_embed_array         :   643      628.08s   1.361%  ------ ||
|| potential_apply_to_ngwf_batch              :   978      787.44s   1.706%  ------ ||
|| integrals_kinetic_spam3                    :    49      803.74s   1.742%  ------ ||
|| fourier_apply_box                          : 121.3k    1033.33s   2.239%  5.299k ||
|| sparse_spam3toblacs_real_fast_B1           : 599.0k    1077.31s   2.334%  ------ ||
|| sparse_spam3toblacs_real_fast              :  1872     1160.09s   2.514%  ------ ||
|| fourier_interpolate_product                : 34047     1303.46s   2.824%  ------ ||
|| density_fftbox_interpolate_multiply        : 37830     1468.34s   3.182%  ------ ||
|| density_batch_interp_deposit               :  2910     2335.86s   5.061%  ------ ||
|| sparse_product                             : 11262     2369.63s   5.134%  ------ ||
|| sparse_blacstospam3_real_fast              :  1840     2406.42s   5.214%  ------ ||
|| projectors_grad_precond_batch              :   126     2578.72s   5.588%  ------ ||
|| basis_dot_function_with_box                : 67.99M    2934.95s   6.359%  ------ ||
|| ngwf_gradient_build_batch                  :   126     3341.39s   7.240%  ------ ||
|| dense_eigensolve                           :   862     3685.76s   7.986%  ------ ||
|| edft_diag_ngwf_ham                         :   860     4730.97s  10.251%  ------ ||
|| integrals_locpot_mat_els_batch             :   978     5452.49s  11.814%  ------ ||
|| integrals_locpot_dbl_grid                  :   326     6261.57s  13.567%  ------ ||
|| ngwf_gradient_batch                        :   126     7595.63s  16.458%  ------ ||
|| ngwf_gradient_lnv                          :    21     8115.74s  17.585%  ------ ||
|| edft_apply_smearing_operator               :   430     8709.06s  18.871%  ------ ||
|| basis_add_function_to_box                  : 210.8M    9697.03s  21.011%  ------ ||
|| density_batch_row_sums                     :  2910    15309.29s  33.172%  ------ ||
|| density_on_dbl_grid                        :   970    17732.42s  38.422%  ------ ||
|| hamiltonian_lhxc_calculate                 :   481    18222.84s  39.485%  ------ ||
|| edft_calculate                             :    21    33843.92s  73.332%  ------ ||
|| ngwf_cg_optimise                           :     1    45654.16s  98.923%  ------ ||
|| energy_and_forces                          :     1    46141.63s  99.979%  ------ ||
|| total_time                                 :     1    46151.34s 100.000%  ------ ||
======================================================================================
Overhead of generating timer report: 
- 0 ms averaging over threads,
- 30 ms ensuring consistency across MPI ranks,
- 1 ms printing in order.

Job completed: 26-04-2025 13:15 (+0100)

onetep_launcher: ONETEP seems to have finished correctly (zero exit code).
                 Brought to you by PID 8250 on nid001743.
