==================================================================================
It's Mon 28 Apr 2025 10:24:05 AM BST.
*** Starting onetep_launcher (node nid001837, PIDs 233641 233642 233643 233644 233645 233646 233647 233648 233649 233650 233651 233652 233653 233654 233655 233656 233657 233658 233659 233660 233661 233662 233663 233664 233665 233666 233667 233668 233669 233670 233671 233672)...
    - ONETEP arguments: Co.dat
    - Current directory: /mnt/lustre/a2fs-work3/work/e89/e89/phsmea/Co_bulk_single_point/nsp
    - Launcher executable directory: /mnt/lustre/a2fs-work3/work/e89/e89/phsmea/Co_bulk_single_point
    - (-e) ONETEP executable specified through command-line: /work/e89/e89/phsmea/onetep.archer2_2024_cray_2
      ... trying /work/e89/e89/phsmea/onetep.archer2_2024_cray_2
          -> looks OK
*** Setting up environment...
    - (-s) Process stack size: unlimited
    - (-t) OMP_NUM_THREADS: 4
    - (-o) OMP_STACKSIZE: 64M
    - (-c) Maximum core file size: 2048000
    - (-d) decfort_dump_flag: n
    - (-m) I_MPI_OFA_TRANSLATION_CACHE: 0
    - (-m) I_MPI_DAPL_TRANSLATION_CACHE: 0
    - (-m) I_MPI_DAPL_UD_TRANSLATION_CACHE: 0
*** Starting ONETEP...
    - /work/e89/e89/phsmea/onetep.archer2_2024_cray_2 Co.dat
=================================================================================
_________________________________________________________________________________
 +---------------------------------------------------------------+
 |                                                               |
 |        ####### #     # ####### ####### ####### ######         |
 |        #     # ##    # #          #    #       #     #        |
 |        #     # # #   # #          #    #       #     #        |
 |        #     # #  #  # #####      #    #####   ######         |
 |        #     # #   # # #          #    #       #              |
 |        #     # #    ## #          #    #       #              |
 |        ####### #     # #######    #    ####### #              |
 |                                                               |
 |        Linear-Scaling Ab Initio Total Energy Program          |
 |                                                               |
 |          Release for academic collaborators of ODG            |
 |                                             Version 7.3.0     |
 | Remote: git@github.com:Miesaz/onetep_mea.git                  |
 | Local branch: master                                          |
 | Commit ID: 4af45e89288c8df5499704252eec3e032ee3d0c8           |
 | Date: Tue Aug 6 11:28:44 2024 +0100                           |
 | Locally modified files:                                       |
 |   src/hubbard_build_mod.F90                                   |
 |   src/services_mod.F90                                        |
 |                                                               |
 +---------------------------------------------------------------+
 |                                                               |
 |  Authors:                                                     |
 |  Jacek Dziedzic, Peter D. Haynes, Nicholas D. M. Hine,        |
 |  Arash A. Mostofi, Mike C. Payne and Chris-Kriton Skylaris    |
 |                                                               |
 |  Contributors:                                                |
 |  J. Aarons, L. Andrinopoulos, P. W. Avraam, R. A. Bell,       |
 |  A. Bhandari, G. A. Bramley, R. J. Charlton, S. J. Clark,     |
 |  R. J. Clements, G. C. Constantinescu, F. Corsetti,           |
 |  N. Corsini, O. Dieguez, S. M. M. Dubois, K. K. B. Duff,      |
 |  J. M. Escartin, M. Escobar Azor, A. Greco,                   |
 |  H. Helal, Q. O. Hill, L. P. Lee, J.-H. Li,                   |
 |  T. Li, E. B. Linscott, G. Moynihan, D. D. O`Regan,           |
 |  O. K. Okan, E. Parkinson, M. J. S. Phipps,                   |
 |  C. J. Pickard, J. C. A. Prentice, M. I. J. Probert,          |
 |  L. E. Ratcliff, M. Robinson, A. Ruiz Serrano,                |
 |  M. dos Santos Dias, J. S. Spencer, E. W. Tait,               |
 |  G. Teobaldi, D. Turban, V. Vitale, K. A. Wilkinson,          |
 |  C. Weber, J. C. Womack, Chengcheng Xiao, N. Yeung,           |
 |  and T. J. Zuehlsdorff.                                       |
 |                                                               |
 |                                   Copyright (c) 2004-2025     |
 |                                                               |
 |  Please cite:                                                 |
 |  "The ONETEP linear-scaling density functional theory program"|
 |   J. Chem. Phys. 152(17) 174111 (2020)                        |
 |                                                               |
 |          in all publications arising from your use of ONETEP. |
 |                                                               |
 +---------------------------------------------------------------+
 |                                                               |
 |   ONETEP is based on developments described in the following  |
 |   publications:                                               |
 |                                                               |
 |  "Nonorthogonal generalized Wannier function pseudopotential  |
 |   plane-wave method".                                         |
 |   C.-K. Skylaris, A. A. Mostofi, P. D. Haynes, O. Dieguez,    |
 |   M. C. Payne.                                                |
 |   Phys. Rev. B 66 035119 (2002).                              |
 |                                                               |
 |  "Preconditioned iterative minimization for linear-scaling    |
 |   electronic structure calculations".                         |
 |   A. A. Mostofi, P. D. Haynes, C.-K. Skylaris, M. C. Payne.   |
 |   J. Chem. Phys. 119(17), pp.8842-8848 (2003).                |
 |                                                               |
 |  "Total-energy calculations on a real space grid with         |
 |   localized functions and a plane-wave basis".                |
 |   A. A. Mostofi, C.-K. Skylaris, P. D. Haynes, M. C. Payne.   |
 |   Comput. Phys. Commun. 147, pp.788-802 (2002).               |
 |                                                               |
 |  "Accurate kinetic energy evaluation in electronic structure  |
 |   calculations with localized functions on real space grids"  |
 |   C.-K. Skylaris, A. A. Mostofi, P. D. Haynes, C. J. Pickard, |
 |   M. C. Payne.                                                |
 |   Comput. Phys. Commun. 140, pp.315-322 (2001).               |
 |                                                               |
 |  "Accurate ionic forces and geometry optimization in linear-  |
 |   scaling density-functional theory with local orbitals"      |
 |   N. D. M. Hine, M. Robinson, P. D. Haynes, C.-K. Skylaris,   |
 |   M. C. Payne, and A. A. Mostofi.                             |
 |   Phys. Rev. B 83 195102 (2011).                              |
 |                                                               |
 +---------------------------------------------------------------+

Job started: 28-04-2025 10:24 (+0100)
 
Reading parameters from file "Co.dat" ...... done

If your calculation crashes here, before "Checking processes and threads..."
is displayed, then your stack size is insufficient.
If so, use "ulimit -s unlimited" at runtime.
You can disable this check with "check_stack_size F".

Checking processes and threads...
      Default threads: 4
   Running with 320 MPI processes.
   There are 32 MPI processes running on the same node as the root process.
   Each MPI process is using: 
               1 threads for simulation cell FFTs.
               1 threads for threaded FFT box operations.
               4 threads for loops over batched FFT box operations.
               4 threads in other parallel regions.
   MPI Interface: S1 (use mpi_f08) (-DMPI -DUSE_MPI_F08).
   MPI_ASYNC_PROTECTS_NONBLOCKING: Yes. MPI_SUBARRAYS_SUPPORTED: Yes.
   FFTW Interface: OMP-capable and MODERN. (-DUSE_MODERN_FFTW specified).
   GPU Interface: None.
   GPU FFT Backend: None.
... done

Basic input checks...
Resetting ngwf_cg_rotate to TRUE for EDFT calculations
... done

Reading geometry and species blocks from file "Co.dat" ...... done


--------------------------------------------------------------------------------
---------------------------------- INPUT FILE ----------------------------------
--------------------------------------------------------------------------------

charge : 0                                                                      
cutoff_energy : 600 eV                                                          
do_properties : T                                                               
edft : T                                                                        
edft_maxit : 15                                                                 
edft_spin_fix : 0                                                               
fine_grid_scale : 4                                                             
geom_continuation : F                                                           
maxit_ngwf_cg : 100                                                             
ngwf_threshold_orig : 1e-07                                                     
ngwfs_spin_polarized : F                                                        
paw : T                                                                         
pseudo_path : ..                                                                
read_denskern : T                                                               
read_hamiltonian : F                                                            
read_tightbox_ngwfs : T                                                         
spin : 2592                                                                     
spin_polarized : T                                                              
task : SinglePoint                                                              
write_denskern : T                                                              
write_forces : T                                                                
write_hamiltonian : T                                                           
write_tightbox_ngwfs : T                                                        
xc_functional : PBE                                                             
%BLOCK LATTICE_CART                                                             
ang                                                                             
14.99119730     0.00000000    0.00000000                                        
0.00000000    25.95883166    0.00000000                                         
0.00000000     0.00000000   24.23272929                                         
%ENDBLOCK LATTICE_CART                                                          
%BLOCK POSITIONS_ABS                                                            
ang                                                                             
Co       0.00000000       0.00000000       0.00000000                           
Co       0.00000000       1.44216649       2.01939411                           
Co       1.24926644       2.16323321       0.00000000                           
Co       1.24926644       3.60540968       2.01939411                           
Co       0.00000000       0.00000000       4.03878822                           
Co       0.00000000       1.44216649       6.05818233                           
Co       1.24926644       2.16323321       4.03878822                           
Co       1.24926644       3.60540968       6.05818233                           
Co       0.00000000       0.00000000       8.07757643                           
Co       0.00000000       1.44216649      10.09697054                           
Co       1.24926644       2.16323321       8.07757643                           
Co       1.24926644       3.60540968      10.09697054                           
Co       0.00000000       0.00000000      12.11636465                           
Co       0.00000000       1.44216649      14.13575876                           
Co       1.24926644       2.16323321      12.11636465                           
Co       1.24926644       3.60540968      14.13575876                           
Co       0.00000000       0.00000000      16.15515286                           
Co       0.00000000       1.44216649      18.17454697                           
Co       1.24926644       2.16323321      16.15515286                           
Co       1.24926644       3.60540968      18.17454697                           
Co       0.00000000       0.00000000      20.19394108                           
Co       0.00000000       1.44216649      22.21333519                           
Co       1.24926644       2.16323321      20.19394108                           
Co       1.24926644       3.60540968      22.21333519                           
Co       0.00000000       4.32647194       0.00000000                           
Co       0.00000000       5.76863843       2.01939411                           
Co       1.24926644       6.48970515       0.00000000                           
Co       1.24926644       7.93188162       2.01939411                           
Co       0.00000000       4.32647194       4.03878822                           
Co       0.00000000       5.76863843       6.05818233                           
Co       1.24926644       6.48970515       4.03878822                           
Co       1.24926644       7.93188162       6.05818233                           
Co       0.00000000       4.32647194       8.07757643                           
Co       0.00000000       5.76863843      10.09697054                           
Co       1.24926644       6.48970515       8.07757643                           
Co       1.24926644       7.93188162      10.09697054                           
Co       0.00000000       4.32647194      12.11636465                           
Co       0.00000000       5.76863843      14.13575876                           
Co       1.24926644       6.48970515      12.11636465                           
Co       1.24926644       7.93188162      14.13575876                           
Co       0.00000000       4.32647194      16.15515286                           
Co       0.00000000       5.76863843      18.17454697                           
Co       1.24926644       6.48970515      16.15515286                           
Co       1.24926644       7.93188162      18.17454697                           
Co       0.00000000       4.32647194      20.19394108                           
Co       0.00000000       5.76863843      22.21333519                           
Co       1.24926644       6.48970515      20.19394108                           
Co       1.24926644       7.93188162      22.21333519                           
Co       0.00000000       8.65294389       0.00000000                           
Co       0.00000000      10.09511038       2.01939411                           
Co       1.24926644      10.81617710       0.00000000                           
Co       1.24926644      12.25835357       2.01939411                           
Co       0.00000000       8.65294389       4.03878822                           
Co       0.00000000      10.09511038       6.05818233                           
Co       1.24926644      10.81617710       4.03878822                           
Co       1.24926644      12.25835357       6.05818233                           
Co       0.00000000       8.65294389       8.07757643                           
Co       0.00000000      10.09511038      10.09697054                           
Co       1.24926644      10.81617710       8.07757643                           
Co       1.24926644      12.25835357      10.09697054                           
Co       0.00000000       8.65294389      12.11636465                           
Co       0.00000000      10.09511038      14.13575876                           
Co       1.24926644      10.81617710      12.11636465                           
Co       1.24926644      12.25835357      14.13575876                           
Co       0.00000000       8.65294389      16.15515286                           
Co       0.00000000      10.09511038      18.17454697                           
Co       1.24926644      10.81617710      16.15515286                           
Co       1.24926644      12.25835357      18.17454697                           
Co       0.00000000       8.65294389      20.19394108                           
Co       0.00000000      10.09511038      22.21333519                           
Co       1.24926644      10.81617710      20.19394108                           
Co       1.24926644      12.25835357      22.21333519                           
Co       0.00000000      12.97941583       0.00000000                           
Co       0.00000000      14.42158232       2.01939411                           
Co       1.24926644      15.14264904       0.00000000                           
Co       1.24926644      16.58482551       2.01939411                           
Co       0.00000000      12.97941583       4.03878822                           
Co       0.00000000      14.42158232       6.05818233                           
Co       1.24926644      15.14264904       4.03878822                           
Co       1.24926644      16.58482551       6.05818233                           
Co       0.00000000      12.97941583       8.07757643                           
Co       0.00000000      14.42158232      10.09697054                           
Co       1.24926644      15.14264904       8.07757643                           
Co       1.24926644      16.58482551      10.09697054                           
Co       0.00000000      12.97941583      12.11636465                           
Co       0.00000000      14.42158232      14.13575876                           
Co       1.24926644      15.14264904      12.11636465                           
Co       1.24926644      16.58482551      14.13575876                           
Co       0.00000000      12.97941583      16.15515286                           
Co       0.00000000      14.42158232      18.17454697                           
Co       1.24926644      15.14264904      16.15515286                           
Co       1.24926644      16.58482551      18.17454697                           
Co       0.00000000      12.97941583      20.19394108                           
Co       0.00000000      14.42158232      22.21333519                           
Co       1.24926644      15.14264904      20.19394108                           
Co       1.24926644      16.58482551      22.21333519                           
Co       0.00000000      17.30588777       0.00000000                           
Co       0.00000000      18.74805426       2.01939411                           
Co       1.24926644      19.46912098       0.00000000                           
Co       1.24926644      20.91129745       2.01939411                           
Co       0.00000000      17.30588777       4.03878822                           
Co       0.00000000      18.74805426       6.05818233                           
Co       1.24926644      19.46912098       4.03878822                           
Co       1.24926644      20.91129745       6.05818233                           
Co       0.00000000      17.30588777       8.07757643                           
Co       0.00000000      18.74805426      10.09697054                           
Co       1.24926644      19.46912098       8.07757643                           
Co       1.24926644      20.91129745      10.09697054                           
Co       0.00000000      17.30588777      12.11636465                           
Co       0.00000000      18.74805426      14.13575876                           
Co       1.24926644      19.46912098      12.11636465                           
Co       1.24926644      20.91129745      14.13575876                           
Co       0.00000000      17.30588777      16.15515286                           
Co       0.00000000      18.74805426      18.17454697                           
Co       1.24926644      19.46912098      16.15515286                           
Co       1.24926644      20.91129745      18.17454697                           
Co       0.00000000      17.30588777      20.19394108                           
Co       0.00000000      18.74805426      22.21333519                           
Co       1.24926644      19.46912098      20.19394108                           
Co       1.24926644      20.91129745      22.21333519                           
Co       0.00000000      21.63235971       0.00000000                           
Co       0.00000000      23.07452620       2.01939411                           
Co       1.24926644      23.79559293       0.00000000                           
Co       1.24926644      25.23776940       2.01939411                           
Co       0.00000000      21.63235971       4.03878822                           
Co       0.00000000      23.07452620       6.05818233                           
Co       1.24926644      23.79559293       4.03878822                           
Co       1.24926644      25.23776940       6.05818233                           
Co       0.00000000      21.63235971       8.07757643                           
Co       0.00000000      23.07452620      10.09697054                           
Co       1.24926644      23.79559293       8.07757643                           
Co       1.24926644      25.23776940      10.09697054                           
Co       0.00000000      21.63235971      12.11636465                           
Co       0.00000000      23.07452620      14.13575876                           
Co       1.24926644      23.79559293      12.11636465                           
Co       1.24926644      25.23776940      14.13575876                           
Co       0.00000000      21.63235971      16.15515286                           
Co       0.00000000      23.07452620      18.17454697                           
Co       1.24926644      23.79559293      16.15515286                           
Co       1.24926644      25.23776940      18.17454697                           
Co       0.00000000      21.63235971      20.19394108                           
Co       0.00000000      23.07452620      22.21333519                           
Co       1.24926644      23.79559293      20.19394108                           
Co       1.24926644      25.23776940      22.21333519                           
Co       2.49853288       0.00000000       0.00000000                           
Co       2.49853288       1.44216649       2.01939411                           
Co       3.74779932       2.16323321       0.00000000                           
Co       3.74779932       3.60540968       2.01939411                           
Co       2.49853288       0.00000000       4.03878822                           
Co       2.49853288       1.44216649       6.05818233                           
Co       3.74779932       2.16323321       4.03878822                           
Co       3.74779932       3.60540968       6.05818233                           
Co       2.49853288       0.00000000       8.07757643                           
Co       2.49853288       1.44216649      10.09697054                           
Co       3.74779932       2.16323321       8.07757643                           
Co       3.74779932       3.60540968      10.09697054                           
Co       2.49853288       0.00000000      12.11636465                           
Co       2.49853288       1.44216649      14.13575876                           
Co       3.74779932       2.16323321      12.11636465                           
Co       3.74779932       3.60540968      14.13575876                           
Co       2.49853288       0.00000000      16.15515286                           
Co       2.49853288       1.44216649      18.17454697                           
Co       3.74779932       2.16323321      16.15515286                           
Co       3.74779932       3.60540968      18.17454697                           
Co       2.49853288       0.00000000      20.19394108                           
Co       2.49853288       1.44216649      22.21333519                           
Co       3.74779932       2.16323321      20.19394108                           
Co       3.74779932       3.60540968      22.21333519                           
Co       2.49853288       4.32647194       0.00000000                           
Co       2.49853288       5.76863843       2.01939411                           
Co       3.74779932       6.48970515       0.00000000                           
Co       3.74779932       7.93188162       2.01939411                           
Co       2.49853288       4.32647194       4.03878822                           
Co       2.49853288       5.76863843       6.05818233                           
Co       3.74779932       6.48970515       4.03878822                           
Co       3.74779932       7.93188162       6.05818233                           
Co       2.49853288       4.32647194       8.07757643                           
Co       2.49853288       5.76863843      10.09697054                           
Co       3.74779932       6.48970515       8.07757643                           
Co       3.74779932       7.93188162      10.09697054                           
Co       2.49853288       4.32647194      12.11636465                           
Co       2.49853288       5.76863843      14.13575876                           
Co       3.74779932       6.48970515      12.11636465                           
Co       3.74779932       7.93188162      14.13575876                           
Co       2.49853288       4.32647194      16.15515286                           
Co       2.49853288       5.76863843      18.17454697                           
Co       3.74779932       6.48970515      16.15515286                           
Co       3.74779932       7.93188162      18.17454697                           
Co       2.49853288       4.32647194      20.19394108                           
Co       2.49853288       5.76863843      22.21333519                           
Co       3.74779932       6.48970515      20.19394108                           
Co       3.74779932       7.93188162      22.21333519                           
Co       2.49853288       8.65294389       0.00000000                           
Co       2.49853288      10.09511038       2.01939411                           
Co       3.74779932      10.81617710       0.00000000                           
Co       3.74779932      12.25835357       2.01939411                           
Co       2.49853288       8.65294389       4.03878822                           
Co       2.49853288      10.09511038       6.05818233                           
Co       3.74779932      10.81617710       4.03878822                           
Co       3.74779932      12.25835357       6.05818233                           
Co       2.49853288       8.65294389       8.07757643                           
Co       2.49853288      10.09511038      10.09697054                           
Co       3.74779932      10.81617710       8.07757643                           
Co       3.74779932      12.25835357      10.09697054                           
Co       2.49853288       8.65294389      12.11636465                           
Co       2.49853288      10.09511038      14.13575876                           
Co       3.74779932      10.81617710      12.11636465                           
Co       3.74779932      12.25835357      14.13575876                           
Co       2.49853288       8.65294389      16.15515286                           
Co       2.49853288      10.09511038      18.17454697                           
Co       3.74779932      10.81617710      16.15515286                           
Co       3.74779932      12.25835357      18.17454697                           
Co       2.49853288       8.65294389      20.19394108                           
Co       2.49853288      10.09511038      22.21333519                           
Co       3.74779932      10.81617710      20.19394108                           
Co       3.74779932      12.25835357      22.21333519                           
Co       2.49853288      12.97941583       0.00000000                           
Co       2.49853288      14.42158232       2.01939411                           
Co       3.74779932      15.14264904       0.00000000                           
Co       3.74779932      16.58482551       2.01939411                           
Co       2.49853288      12.97941583       4.03878822                           
Co       2.49853288      14.42158232       6.05818233                           
Co       3.74779932      15.14264904       4.03878822                           
Co       3.74779932      16.58482551       6.05818233                           
Co       2.49853288      12.97941583       8.07757643                           
Co       2.49853288      14.42158232      10.09697054                           
Co       3.74779932      15.14264904       8.07757643                           
Co       3.74779932      16.58482551      10.09697054                           
Co       2.49853288      12.97941583      12.11636465                           
Co       2.49853288      14.42158232      14.13575876                           
Co       3.74779932      15.14264904      12.11636465                           
Co       3.74779932      16.58482551      14.13575876                           
Co       2.49853288      12.97941583      16.15515286                           
Co       2.49853288      14.42158232      18.17454697                           
Co       3.74779932      15.14264904      16.15515286                           
Co       3.74779932      16.58482551      18.17454697                           
Co       2.49853288      12.97941583      20.19394108                           
Co       2.49853288      14.42158232      22.21333519                           
Co       3.74779932      15.14264904      20.19394108                           
Co       3.74779932      16.58482551      22.21333519                           
Co       2.49853288      17.30588777       0.00000000                           
Co       2.49853288      18.74805426       2.01939411                           
Co       3.74779932      19.46912098       0.00000000                           
Co       3.74779932      20.91129745       2.01939411                           
Co       2.49853288      17.30588777       4.03878822                           
Co       2.49853288      18.74805426       6.05818233                           
Co       3.74779932      19.46912098       4.03878822                           
Co       3.74779932      20.91129745       6.05818233                           
Co       2.49853288      17.30588777       8.07757643                           
Co       2.49853288      18.74805426      10.09697054                           
Co       3.74779932      19.46912098       8.07757643                           
Co       3.74779932      20.91129745      10.09697054                           
Co       2.49853288      17.30588777      12.11636465                           
Co       2.49853288      18.74805426      14.13575876                           
Co       3.74779932      19.46912098      12.11636465                           
Co       3.74779932      20.91129745      14.13575876                           
Co       2.49853288      17.30588777      16.15515286                           
Co       2.49853288      18.74805426      18.17454697                           
Co       3.74779932      19.46912098      16.15515286                           
Co       3.74779932      20.91129745      18.17454697                           
Co       2.49853288      17.30588777      20.19394108                           
Co       2.49853288      18.74805426      22.21333519                           
Co       3.74779932      19.46912098      20.19394108                           
Co       3.74779932      20.91129745      22.21333519                           
Co       2.49853288      21.63235971       0.00000000                           
Co       2.49853288      23.07452620       2.01939411                           
Co       3.74779932      23.79559293       0.00000000                           
Co       3.74779932      25.23776940       2.01939411                           
Co       2.49853288      21.63235971       4.03878822                           
Co       2.49853288      23.07452620       6.05818233                           
Co       3.74779932      23.79559293       4.03878822                           
Co       3.74779932      25.23776940       6.05818233                           
Co       2.49853288      21.63235971       8.07757643                           
Co       2.49853288      23.07452620      10.09697054                           
Co       3.74779932      23.79559293       8.07757643                           
Co       3.74779932      25.23776940      10.09697054                           
Co       2.49853288      21.63235971      12.11636465                           
Co       2.49853288      23.07452620      14.13575876                           
Co       3.74779932      23.79559293      12.11636465                           
Co       3.74779932      25.23776940      14.13575876                           
Co       2.49853288      21.63235971      16.15515286                           
Co       2.49853288      23.07452620      18.17454697                           
Co       3.74779932      23.79559293      16.15515286                           
Co       3.74779932      25.23776940      18.17454697                           
Co       2.49853288      21.63235971      20.19394108                           
Co       2.49853288      23.07452620      22.21333519                           
Co       3.74779932      23.79559293      20.19394108                           
Co       3.74779932      25.23776940      22.21333519                           
Co       4.99706577       0.00000000       0.00000000                           
Co       4.99706577       1.44216649       2.01939411                           
Co       6.24633221       2.16323321       0.00000000                           
Co       6.24633221       3.60540968       2.01939411                           
Co       4.99706577       0.00000000       4.03878822                           
Co       4.99706577       1.44216649       6.05818233                           
Co       6.24633221       2.16323321       4.03878822                           
Co       6.24633221       3.60540968       6.05818233                           
Co       4.99706577       0.00000000       8.07757643                           
Co       4.99706577       1.44216649      10.09697054                           
Co       6.24633221       2.16323321       8.07757643                           
Co       6.24633221       3.60540968      10.09697054                           
Co       4.99706577       0.00000000      12.11636465                           
Co       4.99706577       1.44216649      14.13575876                           
Co       6.24633221       2.16323321      12.11636465                           
Co       6.24633221       3.60540968      14.13575876                           
Co       4.99706577       0.00000000      16.15515286                           
Co       4.99706577       1.44216649      18.17454697                           
Co       6.24633221       2.16323321      16.15515286                           
Co       6.24633221       3.60540968      18.17454697                           
Co       4.99706577       0.00000000      20.19394108                           
Co       4.99706577       1.44216649      22.21333519                           
Co       6.24633221       2.16323321      20.19394108                           
Co       6.24633221       3.60540968      22.21333519                           
Co       4.99706577       4.32647194       0.00000000                           
Co       4.99706577       5.76863843       2.01939411                           
Co       6.24633221       6.48970515       0.00000000                           
Co       6.24633221       7.93188162       2.01939411                           
Co       4.99706577       4.32647194       4.03878822                           
Co       4.99706577       5.76863843       6.05818233                           
Co       6.24633221       6.48970515       4.03878822                           
Co       6.24633221       7.93188162       6.05818233                           
Co       4.99706577       4.32647194       8.07757643                           
Co       4.99706577       5.76863843      10.09697054                           
Co       6.24633221       6.48970515       8.07757643                           
Co       6.24633221       7.93188162      10.09697054                           
Co       4.99706577       4.32647194      12.11636465                           
Co       4.99706577       5.76863843      14.13575876                           
Co       6.24633221       6.48970515      12.11636465                           
Co       6.24633221       7.93188162      14.13575876                           
Co       4.99706577       4.32647194      16.15515286                           
Co       4.99706577       5.76863843      18.17454697                           
Co       6.24633221       6.48970515      16.15515286                           
Co       6.24633221       7.93188162      18.17454697                           
Co       4.99706577       4.32647194      20.19394108                           
Co       4.99706577       5.76863843      22.21333519                           
Co       6.24633221       6.48970515      20.19394108                           
Co       6.24633221       7.93188162      22.21333519                           
Co       4.99706577       8.65294389       0.00000000                           
Co       4.99706577      10.09511038       2.01939411                           
Co       6.24633221      10.81617710       0.00000000                           
Co       6.24633221      12.25835357       2.01939411                           
Co       4.99706577       8.65294389       4.03878822                           
Co       4.99706577      10.09511038       6.05818233                           
Co       6.24633221      10.81617710       4.03878822                           
Co       6.24633221      12.25835357       6.05818233                           
Co       4.99706577       8.65294389       8.07757643                           
Co       4.99706577      10.09511038      10.09697054                           
Co       6.24633221      10.81617710       8.07757643                           
Co       6.24633221      12.25835357      10.09697054                           
Co       4.99706577       8.65294389      12.11636465                           
Co       4.99706577      10.09511038      14.13575876                           
Co       6.24633221      10.81617710      12.11636465                           
Co       6.24633221      12.25835357      14.13575876                           
Co       4.99706577       8.65294389      16.15515286                           
Co       4.99706577      10.09511038      18.17454697                           
Co       6.24633221      10.81617710      16.15515286                           
Co       6.24633221      12.25835357      18.17454697                           
Co       4.99706577       8.65294389      20.19394108                           
Co       4.99706577      10.09511038      22.21333519                           
Co       6.24633221      10.81617710      20.19394108                           
Co       6.24633221      12.25835357      22.21333519                           
Co       4.99706577      12.97941583       0.00000000                           
Co       4.99706577      14.42158232       2.01939411                           
Co       6.24633221      15.14264904       0.00000000                           
Co       6.24633221      16.58482551       2.01939411                           
Co       4.99706577      12.97941583       4.03878822                           
Co       4.99706577      14.42158232       6.05818233                           
Co       6.24633221      15.14264904       4.03878822                           
Co       6.24633221      16.58482551       6.05818233                           
Co       4.99706577      12.97941583       8.07757643                           
Co       4.99706577      14.42158232      10.09697054                           
Co       6.24633221      15.14264904       8.07757643                           
Co       6.24633221      16.58482551      10.09697054                           
Co       4.99706577      12.97941583      12.11636465                           
Co       4.99706577      14.42158232      14.13575876                           
Co       6.24633221      15.14264904      12.11636465                           
Co       6.24633221      16.58482551      14.13575876                           
Co       4.99706577      12.97941583      16.15515286                           
Co       4.99706577      14.42158232      18.17454697                           
Co       6.24633221      15.14264904      16.15515286                           
Co       6.24633221      16.58482551      18.17454697                           
Co       4.99706577      12.97941583      20.19394108                           
Co       4.99706577      14.42158232      22.21333519                           
Co       6.24633221      15.14264904      20.19394108                           
Co       6.24633221      16.58482551      22.21333519                           
Co       4.99706577      17.30588777       0.00000000                           
Co       4.99706577      18.74805426       2.01939411                           
Co       6.24633221      19.46912098       0.00000000                           
Co       6.24633221      20.91129745       2.01939411                           
Co       4.99706577      17.30588777       4.03878822                           
Co       4.99706577      18.74805426       6.05818233                           
Co       6.24633221      19.46912098       4.03878822                           
Co       6.24633221      20.91129745       6.05818233                           
Co       4.99706577      17.30588777       8.07757643                           
Co       4.99706577      18.74805426      10.09697054                           
Co       6.24633221      19.46912098       8.07757643                           
Co       6.24633221      20.91129745      10.09697054                           
Co       4.99706577      17.30588777      12.11636465                           
Co       4.99706577      18.74805426      14.13575876                           
Co       6.24633221      19.46912098      12.11636465                           
Co       6.24633221      20.91129745      14.13575876                           
Co       4.99706577      17.30588777      16.15515286                           
Co       4.99706577      18.74805426      18.17454697                           
Co       6.24633221      19.46912098      16.15515286                           
Co       6.24633221      20.91129745      18.17454697                           
Co       4.99706577      17.30588777      20.19394108                           
Co       4.99706577      18.74805426      22.21333519                           
Co       6.24633221      19.46912098      20.19394108                           
Co       6.24633221      20.91129745      22.21333519                           
Co       4.99706577      21.63235971       0.00000000                           
Co       4.99706577      23.07452620       2.01939411                           
Co       6.24633221      23.79559293       0.00000000                           
Co       6.24633221      25.23776940       2.01939411                           
Co       4.99706577      21.63235971       4.03878822                           
Co       4.99706577      23.07452620       6.05818233                           
Co       6.24633221      23.79559293       4.03878822                           
Co       6.24633221      25.23776940       6.05818233                           
Co       4.99706577      21.63235971       8.07757643                           
Co       4.99706577      23.07452620      10.09697054                           
Co       6.24633221      23.79559293       8.07757643                           
Co       6.24633221      25.23776940      10.09697054                           
Co       4.99706577      21.63235971      12.11636465                           
Co       4.99706577      23.07452620      14.13575876                           
Co       6.24633221      23.79559293      12.11636465                           
Co       6.24633221      25.23776940      14.13575876                           
Co       4.99706577      21.63235971      16.15515286                           
Co       4.99706577      23.07452620      18.17454697                           
Co       6.24633221      23.79559293      16.15515286                           
Co       6.24633221      25.23776940      18.17454697                           
Co       4.99706577      21.63235971      20.19394108                           
Co       4.99706577      23.07452620      22.21333519                           
Co       6.24633221      23.79559293      20.19394108                           
Co       6.24633221      25.23776940      22.21333519                           
Co       7.49559865       0.00000000       0.00000000                           
Co       7.49559865       1.44216649       2.01939411                           
Co       8.74486509       2.16323321       0.00000000                           
Co       8.74486509       3.60540968       2.01939411                           
Co       7.49559865       0.00000000       4.03878822                           
Co       7.49559865       1.44216649       6.05818233                           
Co       8.74486509       2.16323321       4.03878822                           
Co       8.74486509       3.60540968       6.05818233                           
Co       7.49559865       0.00000000       8.07757643                           
Co       7.49559865       1.44216649      10.09697054                           
Co       8.74486509       2.16323321       8.07757643                           
Co       8.74486509       3.60540968      10.09697054                           
Co       7.49559865       0.00000000      12.11636465                           
Co       7.49559865       1.44216649      14.13575876                           
Co       8.74486509       2.16323321      12.11636465                           
Co       8.74486509       3.60540968      14.13575876                           
Co       7.49559865       0.00000000      16.15515286                           
Co       7.49559865       1.44216649      18.17454697                           
Co       8.74486509       2.16323321      16.15515286                           
Co       8.74486509       3.60540968      18.17454697                           
Co       7.49559865       0.00000000      20.19394108                           
Co       7.49559865       1.44216649      22.21333519                           
Co       8.74486509       2.16323321      20.19394108                           
Co       8.74486509       3.60540968      22.21333519                           
Co       7.49559865       4.32647194       0.00000000                           
Co       7.49559865       5.76863843       2.01939411                           
Co       8.74486509       6.48970515       0.00000000                           
Co       8.74486509       7.93188162       2.01939411                           
Co       7.49559865       4.32647194       4.03878822                           
Co       7.49559865       5.76863843       6.05818233                           
Co       8.74486509       6.48970515       4.03878822                           
Co       8.74486509       7.93188162       6.05818233                           
Co       7.49559865       4.32647194       8.07757643                           
Co       7.49559865       5.76863843      10.09697054                           
Co       8.74486509       6.48970515       8.07757643                           
Co       8.74486509       7.93188162      10.09697054                           
Co       7.49559865       4.32647194      12.11636465                           
Co       7.49559865       5.76863843      14.13575876                           
Co       8.74486509       6.48970515      12.11636465                           
Co       8.74486509       7.93188162      14.13575876                           
Co       7.49559865       4.32647194      16.15515286                           
Co       7.49559865       5.76863843      18.17454697                           
Co       8.74486509       6.48970515      16.15515286                           
Co       8.74486509       7.93188162      18.17454697                           
Co       7.49559865       4.32647194      20.19394108                           
Co       7.49559865       5.76863843      22.21333519                           
Co       8.74486509       6.48970515      20.19394108                           
Co       8.74486509       7.93188162      22.21333519                           
Co       7.49559865       8.65294389       0.00000000                           
Co       7.49559865      10.09511038       2.01939411                           
Co       8.74486509      10.81617710       0.00000000                           
Co       8.74486509      12.25835357       2.01939411                           
Co       7.49559865       8.65294389       4.03878822                           
Co       7.49559865      10.09511038       6.05818233                           
Co       8.74486509      10.81617710       4.03878822                           
Co       8.74486509      12.25835357       6.05818233                           
Co       7.49559865       8.65294389       8.07757643                           
Co       7.49559865      10.09511038      10.09697054                           
Co       8.74486509      10.81617710       8.07757643                           
Co       8.74486509      12.25835357      10.09697054                           
Co       7.49559865       8.65294389      12.11636465                           
Co       7.49559865      10.09511038      14.13575876                           
Co       8.74486509      10.81617710      12.11636465                           
Co       8.74486509      12.25835357      14.13575876                           
Co       7.49559865       8.65294389      16.15515286                           
Co       7.49559865      10.09511038      18.17454697                           
Co       8.74486509      10.81617710      16.15515286                           
Co       8.74486509      12.25835357      18.17454697                           
Co       7.49559865       8.65294389      20.19394108                           
Co       7.49559865      10.09511038      22.21333519                           
Co       8.74486509      10.81617710      20.19394108                           
Co       8.74486509      12.25835357      22.21333519                           
Co       7.49559865      12.97941583       0.00000000                           
Co       7.49559865      14.42158232       2.01939411                           
Co       8.74486509      15.14264904       0.00000000                           
Co       8.74486509      16.58482551       2.01939411                           
Co       7.49559865      12.97941583       4.03878822                           
Co       7.49559865      14.42158232       6.05818233                           
Co       8.74486509      15.14264904       4.03878822                           
Co       8.74486509      16.58482551       6.05818233                           
Co       7.49559865      12.97941583       8.07757643                           
Co       7.49559865      14.42158232      10.09697054                           
Co       8.74486509      15.14264904       8.07757643                           
Co       8.74486509      16.58482551      10.09697054                           
Co       7.49559865      12.97941583      12.11636465                           
Co       7.49559865      14.42158232      14.13575876                           
Co       8.74486509      15.14264904      12.11636465                           
Co       8.74486509      16.58482551      14.13575876                           
Co       7.49559865      12.97941583      16.15515286                           
Co       7.49559865      14.42158232      18.17454697                           
Co       8.74486509      15.14264904      16.15515286                           
Co       8.74486509      16.58482551      18.17454697                           
Co       7.49559865      12.97941583      20.19394108                           
Co       7.49559865      14.42158232      22.21333519                           
Co       8.74486509      15.14264904      20.19394108                           
Co       8.74486509      16.58482551      22.21333519                           
Co       7.49559865      17.30588777       0.00000000                           
Co       7.49559865      18.74805426       2.01939411                           
Co       8.74486509      19.46912098       0.00000000                           
Co       8.74486509      20.91129745       2.01939411                           
Co       7.49559865      17.30588777       4.03878822                           
Co       7.49559865      18.74805426       6.05818233                           
Co       8.74486509      19.46912098       4.03878822                           
Co       8.74486509      20.91129745       6.05818233                           
Co       7.49559865      17.30588777       8.07757643                           
Co       7.49559865      18.74805426      10.09697054                           
Co       8.74486509      19.46912098       8.07757643                           
Co       8.74486509      20.91129745      10.09697054                           
Co       7.49559865      17.30588777      12.11636465                           
Co       7.49559865      18.74805426      14.13575876                           
Co       8.74486509      19.46912098      12.11636465                           
Co       8.74486509      20.91129745      14.13575876                           
Co       7.49559865      17.30588777      16.15515286                           
Co       7.49559865      18.74805426      18.17454697                           
Co       8.74486509      19.46912098      16.15515286                           
Co       8.74486509      20.91129745      18.17454697                           
Co       7.49559865      17.30588777      20.19394108                           
Co       7.49559865      18.74805426      22.21333519                           
Co       8.74486509      19.46912098      20.19394108                           
Co       8.74486509      20.91129745      22.21333519                           
Co       7.49559865      21.63235971       0.00000000                           
Co       7.49559865      23.07452620       2.01939411                           
Co       8.74486509      23.79559293       0.00000000                           
Co       8.74486509      25.23776940       2.01939411                           
Co       7.49559865      21.63235971       4.03878822                           
Co       7.49559865      23.07452620       6.05818233                           
Co       8.74486509      23.79559293       4.03878822                           
Co       8.74486509      25.23776940       6.05818233                           
Co       7.49559865      21.63235971       8.07757643                           
Co       7.49559865      23.07452620      10.09697054                           
Co       8.74486509      23.79559293       8.07757643                           
Co       8.74486509      25.23776940      10.09697054                           
Co       7.49559865      21.63235971      12.11636465                           
Co       7.49559865      23.07452620      14.13575876                           
Co       8.74486509      23.79559293      12.11636465                           
Co       8.74486509      25.23776940      14.13575876                           
Co       7.49559865      21.63235971      16.15515286                           
Co       7.49559865      23.07452620      18.17454697                           
Co       8.74486509      23.79559293      16.15515286                           
Co       8.74486509      25.23776940      18.17454697                           
Co       7.49559865      21.63235971      20.19394108                           
Co       7.49559865      23.07452620      22.21333519                           
Co       8.74486509      23.79559293      20.19394108                           
Co       8.74486509      25.23776940      22.21333519                           
Co       9.99413154       0.00000000       0.00000000                           
Co       9.99413154       1.44216649       2.01939411                           
Co      11.24339798       2.16323321       0.00000000                           
Co      11.24339798       3.60540968       2.01939411                           
Co       9.99413154       0.00000000       4.03878822                           
Co       9.99413154       1.44216649       6.05818233                           
Co      11.24339798       2.16323321       4.03878822                           
Co      11.24339798       3.60540968       6.05818233                           
Co       9.99413154       0.00000000       8.07757643                           
Co       9.99413154       1.44216649      10.09697054                           
Co      11.24339798       2.16323321       8.07757643                           
Co      11.24339798       3.60540968      10.09697054                           
Co       9.99413154       0.00000000      12.11636465                           
Co       9.99413154       1.44216649      14.13575876                           
Co      11.24339798       2.16323321      12.11636465                           
Co      11.24339798       3.60540968      14.13575876                           
Co       9.99413154       0.00000000      16.15515286                           
Co       9.99413154       1.44216649      18.17454697                           
Co      11.24339798       2.16323321      16.15515286                           
Co      11.24339798       3.60540968      18.17454697                           
Co       9.99413154       0.00000000      20.19394108                           
Co       9.99413154       1.44216649      22.21333519                           
Co      11.24339798       2.16323321      20.19394108                           
Co      11.24339798       3.60540968      22.21333519                           
Co       9.99413154       4.32647194       0.00000000                           
Co       9.99413154       5.76863843       2.01939411                           
Co      11.24339798       6.48970515       0.00000000                           
Co      11.24339798       7.93188162       2.01939411                           
Co       9.99413154       4.32647194       4.03878822                           
Co       9.99413154       5.76863843       6.05818233                           
Co      11.24339798       6.48970515       4.03878822                           
Co      11.24339798       7.93188162       6.05818233                           
Co       9.99413154       4.32647194       8.07757643                           
Co       9.99413154       5.76863843      10.09697054                           
Co      11.24339798       6.48970515       8.07757643                           
Co      11.24339798       7.93188162      10.09697054                           
Co       9.99413154       4.32647194      12.11636465                           
Co       9.99413154       5.76863843      14.13575876                           
Co      11.24339798       6.48970515      12.11636465                           
Co      11.24339798       7.93188162      14.13575876                           
Co       9.99413154       4.32647194      16.15515286                           
Co       9.99413154       5.76863843      18.17454697                           
Co      11.24339798       6.48970515      16.15515286                           
Co      11.24339798       7.93188162      18.17454697                           
Co       9.99413154       4.32647194      20.19394108                           
Co       9.99413154       5.76863843      22.21333519                           
Co      11.24339798       6.48970515      20.19394108                           
Co      11.24339798       7.93188162      22.21333519                           
Co       9.99413154       8.65294389       0.00000000                           
Co       9.99413154      10.09511038       2.01939411                           
Co      11.24339798      10.81617710       0.00000000                           
Co      11.24339798      12.25835357       2.01939411                           
Co       9.99413154       8.65294389       4.03878822                           
Co       9.99413154      10.09511038       6.05818233                           
Co      11.24339798      10.81617710       4.03878822                           
Co      11.24339798      12.25835357       6.05818233                           
Co       9.99413154       8.65294389       8.07757643                           
Co       9.99413154      10.09511038      10.09697054                           
Co      11.24339798      10.81617710       8.07757643                           
Co      11.24339798      12.25835357      10.09697054                           
Co       9.99413154       8.65294389      12.11636465                           
Co       9.99413154      10.09511038      14.13575876                           
Co      11.24339798      10.81617710      12.11636465                           
Co      11.24339798      12.25835357      14.13575876                           
Co       9.99413154       8.65294389      16.15515286                           
Co       9.99413154      10.09511038      18.17454697                           
Co      11.24339798      10.81617710      16.15515286                           
Co      11.24339798      12.25835357      18.17454697                           
Co       9.99413154       8.65294389      20.19394108                           
Co       9.99413154      10.09511038      22.21333519                           
Co      11.24339798      10.81617710      20.19394108                           
Co      11.24339798      12.25835357      22.21333519                           
Co       9.99413154      12.97941583       0.00000000                           
Co       9.99413154      14.42158232       2.01939411                           
Co      11.24339798      15.14264904       0.00000000                           
Co      11.24339798      16.58482551       2.01939411                           
Co       9.99413154      12.97941583       4.03878822                           
Co       9.99413154      14.42158232       6.05818233                           
Co      11.24339798      15.14264904       4.03878822                           
Co      11.24339798      16.58482551       6.05818233                           
Co       9.99413154      12.97941583       8.07757643                           
Co       9.99413154      14.42158232      10.09697054                           
Co      11.24339798      15.14264904       8.07757643                           
Co      11.24339798      16.58482551      10.09697054                           
Co       9.99413154      12.97941583      12.11636465                           
Co       9.99413154      14.42158232      14.13575876                           
Co      11.24339798      15.14264904      12.11636465                           
Co      11.24339798      16.58482551      14.13575876                           
Co       9.99413154      12.97941583      16.15515286                           
Co       9.99413154      14.42158232      18.17454697                           
Co      11.24339798      15.14264904      16.15515286                           
Co      11.24339798      16.58482551      18.17454697                           
Co       9.99413154      12.97941583      20.19394108                           
Co       9.99413154      14.42158232      22.21333519                           
Co      11.24339798      15.14264904      20.19394108                           
Co      11.24339798      16.58482551      22.21333519                           
Co       9.99413154      17.30588777       0.00000000                           
Co       9.99413154      18.74805426       2.01939411                           
Co      11.24339798      19.46912098       0.00000000                           
Co      11.24339798      20.91129745       2.01939411                           
Co       9.99413154      17.30588777       4.03878822                           
Co       9.99413154      18.74805426       6.05818233                           
Co      11.24339798      19.46912098       4.03878822                           
Co      11.24339798      20.91129745       6.05818233                           
Co       9.99413154      17.30588777       8.07757643                           
Co       9.99413154      18.74805426      10.09697054                           
Co      11.24339798      19.46912098       8.07757643                           
Co      11.24339798      20.91129745      10.09697054                           
Co       9.99413154      17.30588777      12.11636465                           
Co       9.99413154      18.74805426      14.13575876                           
Co      11.24339798      19.46912098      12.11636465                           
Co      11.24339798      20.91129745      14.13575876                           
Co       9.99413154      17.30588777      16.15515286                           
Co       9.99413154      18.74805426      18.17454697                           
Co      11.24339798      19.46912098      16.15515286                           
Co      11.24339798      20.91129745      18.17454697                           
Co       9.99413154      17.30588777      20.19394108                           
Co       9.99413154      18.74805426      22.21333519                           
Co      11.24339798      19.46912098      20.19394108                           
Co      11.24339798      20.91129745      22.21333519                           
Co       9.99413154      21.63235971       0.00000000                           
Co       9.99413154      23.07452620       2.01939411                           
Co      11.24339798      23.79559293       0.00000000                           
Co      11.24339798      25.23776940       2.01939411                           
Co       9.99413154      21.63235971       4.03878822                           
Co       9.99413154      23.07452620       6.05818233                           
Co      11.24339798      23.79559293       4.03878822                           
Co      11.24339798      25.23776940       6.05818233                           
Co       9.99413154      21.63235971       8.07757643                           
Co       9.99413154      23.07452620      10.09697054                           
Co      11.24339798      23.79559293       8.07757643                           
Co      11.24339798      25.23776940      10.09697054                           
Co       9.99413154      21.63235971      12.11636465                           
Co       9.99413154      23.07452620      14.13575876                           
Co      11.24339798      23.79559293      12.11636465                           
Co      11.24339798      25.23776940      14.13575876                           
Co       9.99413154      21.63235971      16.15515286                           
Co       9.99413154      23.07452620      18.17454697                           
Co      11.24339798      23.79559293      16.15515286                           
Co      11.24339798      25.23776940      18.17454697                           
Co       9.99413154      21.63235971      20.19394108                           
Co       9.99413154      23.07452620      22.21333519                           
Co      11.24339798      23.79559293      20.19394108                           
Co      11.24339798      25.23776940      22.21333519                           
Co      12.49266442       0.00000000       0.00000000                           
Co      12.49266442       1.44216649       2.01939411                           
Co      13.74193086       2.16323321       0.00000000                           
Co      13.74193086       3.60540968       2.01939411                           
Co      12.49266442       0.00000000       4.03878822                           
Co      12.49266442       1.44216649       6.05818233                           
Co      13.74193086       2.16323321       4.03878822                           
Co      13.74193086       3.60540968       6.05818233                           
Co      12.49266442       0.00000000       8.07757643                           
Co      12.49266442       1.44216649      10.09697054                           
Co      13.74193086       2.16323321       8.07757643                           
Co      13.74193086       3.60540968      10.09697054                           
Co      12.49266442       0.00000000      12.11636465                           
Co      12.49266442       1.44216649      14.13575876                           
Co      13.74193086       2.16323321      12.11636465                           
Co      13.74193086       3.60540968      14.13575876                           
Co      12.49266442       0.00000000      16.15515286                           
Co      12.49266442       1.44216649      18.17454697                           
Co      13.74193086       2.16323321      16.15515286                           
Co      13.74193086       3.60540968      18.17454697                           
Co      12.49266442       0.00000000      20.19394108                           
Co      12.49266442       1.44216649      22.21333519                           
Co      13.74193086       2.16323321      20.19394108                           
Co      13.74193086       3.60540968      22.21333519                           
Co      12.49266442       4.32647194       0.00000000                           
Co      12.49266442       5.76863843       2.01939411                           
Co      13.74193086       6.48970515       0.00000000                           
Co      13.74193086       7.93188162       2.01939411                           
Co      12.49266442       4.32647194       4.03878822                           
Co      12.49266442       5.76863843       6.05818233                           
Co      13.74193086       6.48970515       4.03878822                           
Co      13.74193086       7.93188162       6.05818233                           
Co      12.49266442       4.32647194       8.07757643                           
Co      12.49266442       5.76863843      10.09697054                           
Co      13.74193086       6.48970515       8.07757643                           
Co      13.74193086       7.93188162      10.09697054                           
Co      12.49266442       4.32647194      12.11636465                           
Co      12.49266442       5.76863843      14.13575876                           
Co      13.74193086       6.48970515      12.11636465                           
Co      13.74193086       7.93188162      14.13575876                           
Co      12.49266442       4.32647194      16.15515286                           
Co      12.49266442       5.76863843      18.17454697                           
Co      13.74193086       6.48970515      16.15515286                           
Co      13.74193086       7.93188162      18.17454697                           
Co      12.49266442       4.32647194      20.19394108                           
Co      12.49266442       5.76863843      22.21333519                           
Co      13.74193086       6.48970515      20.19394108                           
Co      13.74193086       7.93188162      22.21333519                           
Co      12.49266442       8.65294389       0.00000000                           
Co      12.49266442      10.09511038       2.01939411                           
Co      13.74193086      10.81617710       0.00000000                           
Co      13.74193086      12.25835357       2.01939411                           
Co      12.49266442       8.65294389       4.03878822                           
Co      12.49266442      10.09511038       6.05818233                           
Co      13.74193086      10.81617710       4.03878822                           
Co      13.74193086      12.25835357       6.05818233                           
Co      12.49266442       8.65294389       8.07757643                           
Co      12.49266442      10.09511038      10.09697054                           
Co      13.74193086      10.81617710       8.07757643                           
Co      13.74193086      12.25835357      10.09697054                           
Co      12.49266442       8.65294389      12.11636465                           
Co      12.49266442      10.09511038      14.13575876                           
Co      13.74193086      10.81617710      12.11636465                           
Co      13.74193086      12.25835357      14.13575876                           
Co      12.49266442       8.65294389      16.15515286                           
Co      12.49266442      10.09511038      18.17454697                           
Co      13.74193086      10.81617710      16.15515286                           
Co      13.74193086      12.25835357      18.17454697                           
Co      12.49266442       8.65294389      20.19394108                           
Co      12.49266442      10.09511038      22.21333519                           
Co      13.74193086      10.81617710      20.19394108                           
Co      13.74193086      12.25835357      22.21333519                           
Co      12.49266442      12.97941583       0.00000000                           
Co      12.49266442      14.42158232       2.01939411                           
Co      13.74193086      15.14264904       0.00000000                           
Co      13.74193086      16.58482551       2.01939411                           
Co      12.49266442      12.97941583       4.03878822                           
Co      12.49266442      14.42158232       6.05818233                           
Co      13.74193086      15.14264904       4.03878822                           
Co      13.74193086      16.58482551       6.05818233                           
Co      12.49266442      12.97941583       8.07757643                           
Co      12.49266442      14.42158232      10.09697054                           
Co      13.74193086      15.14264904       8.07757643                           
Co      13.74193086      16.58482551      10.09697054                           
Co      12.49266442      12.97941583      12.11636465                           
Co      12.49266442      14.42158232      14.13575876                           
Co      13.74193086      15.14264904      12.11636465                           
Co      13.74193086      16.58482551      14.13575876                           
Co      12.49266442      12.97941583      16.15515286                           
Co      12.49266442      14.42158232      18.17454697                           
Co      13.74193086      15.14264904      16.15515286                           
Co      13.74193086      16.58482551      18.17454697                           
Co      12.49266442      12.97941583      20.19394108                           
Co      12.49266442      14.42158232      22.21333519                           
Co      13.74193086      15.14264904      20.19394108                           
Co      13.74193086      16.58482551      22.21333519                           
Co      12.49266442      17.30588777       0.00000000                           
Co      12.49266442      18.74805426       2.01939411                           
Co      13.74193086      19.46912098       0.00000000                           
Co      13.74193086      20.91129745       2.01939411                           
Co      12.49266442      17.30588777       4.03878822                           
Co      12.49266442      18.74805426       6.05818233                           
Co      13.74193086      19.46912098       4.03878822                           
Co      13.74193086      20.91129745       6.05818233                           
Co      12.49266442      17.30588777       8.07757643                           
Co      12.49266442      18.74805426      10.09697054                           
Co      13.74193086      19.46912098       8.07757643                           
Co      13.74193086      20.91129745      10.09697054                           
Co      12.49266442      17.30588777      12.11636465                           
Co      12.49266442      18.74805426      14.13575876                           
Co      13.74193086      19.46912098      12.11636465                           
Co      13.74193086      20.91129745      14.13575876                           
Co      12.49266442      17.30588777      16.15515286                           
Co      12.49266442      18.74805426      18.17454697                           
Co      13.74193086      19.46912098      16.15515286                           
Co      13.74193086      20.91129745      18.17454697                           
Co      12.49266442      17.30588777      20.19394108                           
Co      12.49266442      18.74805426      22.21333519                           
Co      13.74193086      19.46912098      20.19394108                           
Co      13.74193086      20.91129745      22.21333519                           
Co      12.49266442      21.63235971       0.00000000                           
Co      12.49266442      23.07452620       2.01939411                           
Co      13.74193086      23.79559293       0.00000000                           
Co      13.74193086      25.23776940       2.01939411                           
Co      12.49266442      21.63235971       4.03878822                           
Co      12.49266442      23.07452620       6.05818233                           
Co      13.74193086      23.79559293       4.03878822                           
Co      13.74193086      25.23776940       6.05818233                           
Co      12.49266442      21.63235971       8.07757643                           
[...]
*    Co    700     -0.00011258  -0.00127256  -0.00004085 *
*    Co    701     -0.00005627  -0.00064794  -0.00000003 *
*    Co    702     -0.00005338  -0.00121107   0.00008589 *
*    Co    703     -0.00011763  -0.00088668  -0.00000000 *
*    Co    704     -0.00011257  -0.00127256   0.00004087 *
*    Co    705     -0.00003980  -0.00066512  -0.00000003 *
*    Co    706     -0.00005338  -0.00121107  -0.00008591 *
*    Co    707     -0.00023737  -0.00088142   0.00000000 *
*    Co    708     -0.00011257  -0.00127256  -0.00004085 *
*    Co    709     -0.00005627  -0.00064794  -0.00000003 *
*    Co    710     -0.00005338  -0.00121107   0.00008589 *
*    Co    711     -0.00011763  -0.00088668  -0.00000000 *
*    Co    712     -0.00011257  -0.00127256   0.00004087 *
*    Co    713     -0.00003980  -0.00066512  -0.00000003 *
*    Co    714     -0.00005338  -0.00121107  -0.00008591 *
*    Co    715     -0.00023737  -0.00088142   0.00000000 *
*    Co    716     -0.00011257  -0.00127256  -0.00004085 *
*    Co    717     -0.00005627  -0.00064794  -0.00000003 *
*    Co    718     -0.00005338  -0.00121107   0.00008589 *
*    Co    719     -0.00011763  -0.00088668  -0.00000000 *
*    Co    720     -0.00011257  -0.00127256   0.00004087 *
*    Co    721     -0.00013931  -0.00093069  -0.00000001 *
*    Co    722     -0.00022531  -0.00107566  -0.00014475 *
*    Co    723     -0.00003132  -0.00069255  -0.00000003 *
*    Co    724     -0.00004144  -0.00075673  -0.00003991 *
*    Co    725     -0.00017746  -0.00092370  -0.00000001 *
*    Co    726     -0.00022531  -0.00107566   0.00014483 *
*    Co    727     -0.00002370  -0.00068920  -0.00000003 *
*    Co    728     -0.00004144  -0.00075673   0.00003988 *
*    Co    729     -0.00013931  -0.00093069  -0.00000001 *
*    Co    730     -0.00022531  -0.00107566  -0.00014475 *
*    Co    731     -0.00003132  -0.00069255  -0.00000003 *
*    Co    732     -0.00004144  -0.00075673  -0.00003991 *
*    Co    733     -0.00017746  -0.00092370  -0.00000001 *
*    Co    734     -0.00022531  -0.00107566   0.00014483 *
*    Co    735     -0.00002370  -0.00068920  -0.00000003 *
*    Co    736     -0.00004144  -0.00075673   0.00003988 *
*    Co    737     -0.00013931  -0.00093069  -0.00000001 *
*    Co    738     -0.00022531  -0.00107566  -0.00014475 *
*    Co    739     -0.00003132  -0.00069255  -0.00000003 *
*    Co    740     -0.00004144  -0.00075673  -0.00003991 *
*    Co    741     -0.00017746  -0.00092370  -0.00000001 *
*    Co    742     -0.00022531  -0.00107566   0.00014483 *
*    Co    743     -0.00002370  -0.00068920  -0.00000003 *
*    Co    744     -0.00004144  -0.00075673   0.00003988 *
*    Co    745     -0.00015466  -0.00006977   0.00000001 *
*    Co    746     -0.00020624  -0.00002305  -0.00011214 *
*    Co    747     -0.00001224   0.00036308  -0.00000001 *
*    Co    748     -0.00003687   0.00035867  -0.00006377 *
*    Co    749     -0.00019011  -0.00013417   0.00000001 *
*    Co    750     -0.00020624  -0.00002305   0.00011219 *
*    Co    751     -0.00002494   0.00034678  -0.00000002 *
*    Co    752     -0.00003687   0.00035867   0.00006383 *
*    Co    753     -0.00015466  -0.00006977   0.00000001 *
*    Co    754     -0.00020624  -0.00002305  -0.00011214 *
*    Co    755     -0.00001224   0.00036308  -0.00000001 *
*    Co    756     -0.00003687   0.00035867  -0.00006377 *
*    Co    757     -0.00019011  -0.00013417   0.00000001 *
*    Co    758     -0.00020624  -0.00002305   0.00011219 *
*    Co    759     -0.00002494   0.00034678  -0.00000002 *
*    Co    760     -0.00003687   0.00035867   0.00006383 *
*    Co    761     -0.00015466  -0.00006977   0.00000001 *
*    Co    762     -0.00020624  -0.00002305  -0.00011214 *
*    Co    763     -0.00001224   0.00036308  -0.00000001 *
*    Co    764     -0.00003687   0.00035867  -0.00006377 *
*    Co    765     -0.00019011  -0.00013417   0.00000001 *
*    Co    766     -0.00020624  -0.00002305   0.00011219 *
*    Co    767     -0.00002494   0.00034678  -0.00000002 *
*    Co    768     -0.00003687   0.00035867   0.00006383 *
*    Co    769     -0.00019919   0.00104270  -0.00000002 *
*    Co    770     -0.00026026   0.00089843  -0.00007755 *
*    Co    771     -0.00001567   0.00117113   0.00000000 *
*    Co    772     -0.00003997   0.00093194  -0.00005053 *
*    Co    773     -0.00024584   0.00097970  -0.00000002 *
*    Co    774     -0.00026026   0.00089843   0.00007754 *
*    Co    775     -0.00003916   0.00118886   0.00000000 *
*    Co    776     -0.00003997   0.00093194   0.00005057 *
*    Co    777     -0.00019919   0.00104270  -0.00000002 *
*    Co    778     -0.00026026   0.00089843  -0.00007755 *
*    Co    779     -0.00001567   0.00117113   0.00000000 *
*    Co    780     -0.00003997   0.00093194  -0.00005053 *
*    Co    781     -0.00024584   0.00097970  -0.00000002 *
*    Co    782     -0.00026026   0.00089843   0.00007754 *
*    Co    783     -0.00003916   0.00118886   0.00000000 *
*    Co    784     -0.00003997   0.00093194   0.00005057 *
*    Co    785     -0.00019919   0.00104270  -0.00000002 *
*    Co    786     -0.00026026   0.00089843  -0.00007755 *
*    Co    787     -0.00001567   0.00117113   0.00000000 *
*    Co    788     -0.00003997   0.00093194  -0.00005053 *
*    Co    789     -0.00024584   0.00097970  -0.00000002 *
*    Co    790     -0.00026026   0.00089843   0.00007754 *
*    Co    791     -0.00003916   0.00118886   0.00000000 *
*    Co    792     -0.00003997   0.00093194   0.00005057 *
*    Co    793     -0.00017423   0.00126314  -0.00000001 *
*    Co    794     -0.00024363   0.00074093  -0.00007858 *
*    Co    795     -0.00001656   0.00102373  -0.00000003 *
*    Co    796     -0.00004126   0.00039315  -0.00005366 *
*    Co    797     -0.00019433   0.00125420  -0.00000001 *
*    Co    798     -0.00024363   0.00074093   0.00007866 *
*    Co    799     -0.00004026   0.00103752  -0.00000003 *
*    Co    800     -0.00004126   0.00039315   0.00005364 *
*    Co    801     -0.00017423   0.00126314  -0.00000001 *
*    Co    802     -0.00024363   0.00074093  -0.00007858 *
*    Co    803     -0.00001656   0.00102373  -0.00000003 *
*    Co    804     -0.00004126   0.00039315  -0.00005366 *
*    Co    805     -0.00019433   0.00125420  -0.00000001 *
*    Co    806     -0.00024363   0.00074093   0.00007866 *
*    Co    807     -0.00004026   0.00103752  -0.00000003 *
*    Co    808     -0.00004126   0.00039315   0.00005364 *
*    Co    809     -0.00017423   0.00126314  -0.00000001 *
*    Co    810     -0.00024363   0.00074093  -0.00007858 *
*    Co    811     -0.00001656   0.00102373  -0.00000003 *
*    Co    812     -0.00004126   0.00039315  -0.00005367 *
*    Co    813     -0.00019433   0.00125420  -0.00000001 *
*    Co    814     -0.00024363   0.00074093   0.00007866 *
*    Co    815     -0.00004026   0.00103752  -0.00000003 *
*    Co    816     -0.00004126   0.00039315   0.00005364 *
*    Co    817     -0.00019586   0.00037705   0.00000001 *
*    Co    818     -0.00023083  -0.00032046  -0.00011172 *
*    Co    819     -0.00002555  -0.00002413  -0.00000001 *
*    Co    820     -0.00004006  -0.00069306  -0.00005852 *
*    Co    821     -0.00023753   0.00043445   0.00000001 *
*    Co    822     -0.00023083  -0.00032046   0.00011177 *
*    Co    823     -0.00002701   0.00000141  -0.00000002 *
*    Co    824     -0.00004006  -0.00069306   0.00005858 *
*    Co    825     -0.00019586   0.00037705   0.00000001 *
*    Co    826     -0.00023083  -0.00032046  -0.00011172 *
*    Co    827     -0.00002555  -0.00002413  -0.00000001 *
*    Co    828     -0.00004006  -0.00069306  -0.00005852 *
*    Co    829     -0.00023753   0.00043445   0.00000001 *
*    Co    830     -0.00023083  -0.00032046   0.00011177 *
*    Co    831     -0.00002701   0.00000141  -0.00000002 *
*    Co    832     -0.00004006  -0.00069306   0.00005858 *
*    Co    833     -0.00019586   0.00037705   0.00000001 *
*    Co    834     -0.00023083  -0.00032046  -0.00011172 *
*    Co    835     -0.00002555  -0.00002413  -0.00000001 *
*    Co    836     -0.00004006  -0.00069306  -0.00005852 *
*    Co    837     -0.00023753   0.00043445   0.00000001 *
*    Co    838     -0.00023083  -0.00032046   0.00011177 *
*    Co    839     -0.00002701   0.00000141  -0.00000002 *
*    Co    840     -0.00004006  -0.00069306   0.00005858 *
*    Co    841     -0.00014646  -0.00069576  -0.00000002 *
*    Co    842     -0.00022206  -0.00121213  -0.00015132 *
*    Co    843     -0.00002666  -0.00087309   0.00000001 *
*    Co    844     -0.00004345  -0.00126709  -0.00004474 *
*    Co    845     -0.00017659  -0.00062267  -0.00000002 *
*    Co    846     -0.00022206  -0.00121213   0.00015131 *
*    Co    847     -0.00001943  -0.00088125   0.00000000 *
*    Co    848     -0.00004345  -0.00126709   0.00004477 *
*    Co    849     -0.00014646  -0.00069576  -0.00000002 *
*    Co    850     -0.00022206  -0.00121213  -0.00015132 *
*    Co    851     -0.00002666  -0.00087309   0.00000000 *
*    Co    852     -0.00004345  -0.00126709  -0.00004474 *
*    Co    853     -0.00017659  -0.00062267  -0.00000002 *
*    Co    854     -0.00022206  -0.00121213   0.00015131 *
*    Co    855     -0.00001943  -0.00088125   0.00000000 *
*    Co    856     -0.00004345  -0.00126709   0.00004477 *
*    Co    857     -0.00014646  -0.00069576  -0.00000002 *
*    Co    858     -0.00022206  -0.00121213  -0.00015132 *
*    Co    859     -0.00002666  -0.00087309   0.00000001 *
*    Co    860     -0.00004345  -0.00126709  -0.00004474 *
*    Co    861     -0.00017659  -0.00062267  -0.00000002 *
*    Co    862     -0.00022206  -0.00121213   0.00015131 *
*    Co    863     -0.00001943  -0.00088125   0.00000000 *
*    Co    864     -0.00004345  -0.00126709   0.00004477 *
*                                                        *
**********************************************************
* TOTAL:            0.00000000  -0.00000000  -0.00000000 *
**********************************************************
 
 
***********************************************************
********** Summary of Forces (values in Eh/a) *************
*                                                         *
* ---------------------- Minimum ------------------------ *
* Atom:       547, |F|min =    0.00002071                 *
* Components:     Fx|min       Fy|min       Fz|min        *
*              -0.00001237   0.00001660  -0.00000001      *
*                                                         *
* ---------------------- Maximum ------------------------ *
* Atom:       568, |F|max =    0.00127923                 *
* Components:     Fx|max       Fy|max       Fz|max        *
*              -0.00002744  -0.00127777   0.00005448      *
*                                                         *
* ---------------- Root Mean Square Force --------------- *
*                  |F|rms =    0.00082150                 *
* Components:     Fx|rms       Fy|rms       Fz|rms        *
*               0.00011906   0.00081100   0.00005449      *
***********************************************************
 

------------------------------ TIMING INFORMATION ------------------------------
AVERAGE TIME:   52601.157s on    320 proc(s)                                    
TOTAL TIME:     52601.168s on    320 proc(s)                                    
==================== AVERAGE TIMINGS FROM ALL PROCS (CUMULATIVE) =====================
|| TAG                                         #calls     cpu time   %total  Gflops ||
|| sw_bessel_init_cpu                         :     1        0.05s   0.000%  ------ || (1 procs only)
|| hash_table_free                            :   129        0.00s   0.000%  ------ ||
|| ewald_calculate_forces_realspace           :     1        0.00s   0.000%  ------ ||
|| onetep.F90 main loop imbalance             :     1        0.00s   0.000%  ------ ||
|| density_fftbox_interp_mult_imbal           : 29016        0.01s   0.000%  ------ ||
|| onetep.F90 final imbalance                 :     1        0.02s   0.000%  ------ ||
|| linalg_dgemv                               :    12        0.03s   0.000%  ------ ||
|| pseudo_make_structure_factor               :     1        0.12s   0.000%  ------ ||
|| paw_tcore_density                          :     1        0.13s   0.000%  ------ ||
|| augmentation_density_forces                :     1        0.13s   0.000%  ------ ||
|| paw_nlcc_calculate_forces                  :     1        0.17s   0.000%  ------ ||
|| sw_init                                    :   742        0.24s   0.000%  ------ ||
|| ewald_calculate_energy                     :     1        0.29s   0.001%  ------ ||
|| sparse_set_to_garbage                      :  1155        0.31s   0.001%  ------ ||
|| paw_dij_hartree                            :   551        0.44s   0.001%  ------ ||
|| ewald_calculate_forces_recipspace          :     1        0.55s   0.001%  ------ ||
|| ewald_calculate_forces                     :     1        0.56s   0.001%  ------ ||
|| paw_tcore_hartree_calc_forces              :     1        0.60s   0.001%  ------ ||
|| integrals_grad_spam3                       :     1        0.63s   0.001%  ------ ||
|| nonsc_forces_ngwfs_calc                    :     1        0.63s   0.001%  ------ ||
|| paw_sphere_density_on_grid                 :     1        0.65s   0.001%  ------ ||
|| basis_extract_function_from_box            :  7335        0.77s   0.001%  ------ ||
|| paw_species_calc_proj_prec_mat             :     1        0.82s   0.002%  ------ ||
|| paw_dataset_init                           :     1        1.20s   0.002%  ------ ||
|| paw_tcore_hartree_on_grid                  :     1        2.07s   0.004%  ------ ||
|| restart_ngwfs_tightbox_input               :     1        2.17s   0.004%  ------ ||
|| sparse_init                                :     1        2.30s   0.004%  ------ ||
|| sparse_spam3toblacs_real_fast_imbal        :  1336        2.47s   0.005%  ------ ||
|| restart_kernel_read                        :     2        2.74s   0.005%  ------ ||
|| sparse_blacstospam3_real_fast_imbal        :  1224        3.53s   0.007%  ------ ||
|| fourier_filter_cell                        :   368        4.06s   0.008% 143.401 ||
|| hartree_on_grid_single                     :   370        4.85s   0.009%  ------ ||
|| fourier_interpolate_cell                   :   744        6.77s   0.013% 173.613 ||
|| energy_and_force_init_cell                 :     1        7.27s   0.014%  ------ ||
|| projectors_func_grad_ovlp_box_spam3        :     3       16.38s   0.031%  ------ ||
|| sparse_spam3toblacs_real_fast_B2           : 427.5k      19.32s   0.037%  ------ ||
|| basis_copy_function_to_box                 : 42576       19.59s   0.037%  ------ ||
|| fourier_apply_cell_backward                :  3331       23.95s   0.046% 197.953 ||
|| aug_nl_calculate_forces                    :     1       27.47s   0.052%  ------ ||
|| fourier_apply_cell_forward                 :  3331       28.40s   0.054% 166.997 ||
|| hamiltonian_energy_components              :     1       39.42s   0.075%  ------ ||
|| augmentation_screen_dij_spam3              :   369       41.92s   0.080%  ------ ||
|| fourier_apply_box_pair                     :  9627       42.26s   0.080%  2.430k ||
|| xc_energy_potential                        :   370       52.99s   0.101%  ------ ||
|| restart_hamiltonian_write                  :    52       93.41s   0.178%  ------ ||
|| aug_density_on_grid_spam3                  :   372       93.59s   0.178%  ------ ||
|| forces_calculate                           :     1      104.30s   0.198%  ------ ||
|| projectors_init_fftbox_recip               :   757      106.19s   0.202%  ------ ||
|| cell_grid_extract_box_real                 : 16869      118.40s   0.225%  ------ ||
|| eigenstates_calculate                      :     1      121.51s   0.231%  ------ ||
|| restart_kernel_write                       :    52      160.83s   0.306%  ------ ||
|| sparse_trace                               :  8984      201.18s   0.382%  ------ ||
|| cell_grid_deposit_box_real                 : 32193      222.61s   0.423%  ------ ||
|| fourier_filter                             :  8376      259.11s   0.493%  ------ ||
|| sparse_embed_array_hotelling_invert        :   129      289.32s   0.550%  ------ ||
|| properties_calculate                       :     1      312.85s   0.595%  ------ ||
|| fourier_interpolate                        :  8376      358.78s   0.682%  ------ ||
|| paw_dij_xc                                 :   551      383.82s   0.730%  ------ ||
|| ngwf_gradient_coeffs                       :    52      405.71s   0.771%  ------ ||
|| density_fftbox_deposit_to_cell             : 29016      420.41s   0.799%  ------ ||
|| aug_nonlocal_mat_spam3_embed_array         :   498      488.30s   0.928%  ------ ||
|| potential_apply_to_ngwf_batch              :   792      636.20s   1.209%  ------ ||
|| projectors_func_ovlp_box_spam3             :   129      692.83s   1.317%  ------ ||
|| sparse_spam3toblacs_real_fast_B1           : 427.5k     791.13s   1.504%  ------ ||
|| sparse_spam3toblacs_real_fast              :  1336      853.51s   1.623%  ------ ||
|| restart_ngwfs_tightbox_output              :    51      865.12s   1.645%  ------ ||
|| fourier_apply_box                          : 122.9k     952.37s   1.811%  5.259k ||
|| fourier_interpolate_product                : 26114      999.54s   1.900%  ------ ||
|| density_fftbox_interpolate_multiply        : 29016     1125.81s   2.140%  ------ ||
|| projectors_gradient_batch                  :   312     1390.40s   2.643%  ------ ||
|| sparse_blacstospam3_real_fast              :  1224     1494.34s   2.841%  ------ ||
|| function_ops_brappd_ketppd_spam3           :   257     1552.67s   2.952%  ------ ||
|| density_batch_interp_deposit               :  2232     1788.83s   3.401%  ------ ||
|| dense_eigensolve                           :   474     1974.84s   3.754%  ------ ||
|| integrals_kinetic_spam3                    :   129     2082.95s   3.960%  ------ ||
|| sparse_product                             : 10781     2437.09s   4.633%  ------ ||
|| edft_diag_ngwf_ham                         :   472     2543.39s   4.835%  ------ ||
|| basis_dot_function_with_box                : 68.62M    2955.01s   5.618%  ------ ||
|| integrals_locpot_mat_els_batch             :   792     4344.15s   8.259%  ------ ||
|| edft_apply_smearing_operator               :   236     4710.70s   8.956%  ------ ||
|| integrals_locpot_dbl_grid                  :   264     4998.30s   9.502%  ------ ||
|| projectors_grad_precond_batch              :   312     6362.14s  12.095%  ------ ||
|| ngwf_gradient_build_batch                  :   312     8250.75s  15.685%  ------ ||
|| density_batch_row_sums                     :  2232    11576.96s  22.009%  ------ ||
|| basis_add_function_to_box                  : 214.9M   11593.43s  22.040%  ------ ||
|| density_on_dbl_grid                        :   744    13432.42s  25.536%  ------ ||
|| hamiltonian_lhxc_calculate                 :   368    13773.54s  26.185%  ------ ||
|| ngwf_gradient_batch                        :   312    18752.30s  35.650%  ------ ||
|| ngwf_gradient_lnv                          :    52    20026.72s  38.073%  ------ ||
|| edft_calculate                             :    52    22177.66s  42.162%  ------ ||
|| ngwf_cg_optimise                           :     1    52106.88s  99.060%  ------ ||
|| energy_and_forces                          :     1    52591.40s  99.981%  ------ ||
|| total_time                                 :     1    52601.16s 100.000%  ------ ||
======================================================================================
Overhead of generating timer report: 
- 0 ms averaging over threads,
- 30 ms ensuring consistency across MPI ranks,
- 6 ms printing in order.

Job completed: 29-04-2025 01:00 (+0100)

onetep_launcher: ONETEP seems to have finished correctly (zero exit code).
                 Brought to you by PID 207623 on nid001777.
