==================================================================================
It's Sat 31 May 2025 11:27:51 PM BST.
*** Starting onetep_launcher (node nid001566, PIDs 236682 236683 236684 236685 236686 236687)...
    - ONETEP arguments: Cr2I6_bilayer_HT_AFM_AFM_SP.dat
    - Current directory: /mnt/lustre/a2fs-work3/work/e89/e89/phsmea/CrI3_onetep_U/U_2.97/HT_AFM/HT_AFM_AFM/sp-ngwfs
    - Launcher executable directory: /mnt/lustre/a2fs-work3/work/e89/e89/phsmea/CrI3_onetep_U/U_2.97/HT_AFM/HT_AFM_AFM/sp-ngwfs
    - (-e) ONETEP executable specified through command-line: /work/e89/e89/phsmea/onetep.archer2_2024_cray
      ... trying /work/e89/e89/phsmea/onetep.archer2_2024_cray
          -> looks OK
*** Setting up environment...
    - (-s) Process stack size: unlimited
    - (-t) OMP_NUM_THREADS: 17
    - (-o) OMP_STACKSIZE: 64M
    - (-c) Maximum core file size: 2048000
    - (-d) decfort_dump_flag: n
    - (-m) I_MPI_OFA_TRANSLATION_CACHE: 0
    - (-m) I_MPI_DAPL_TRANSLATION_CACHE: 0
    - (-m) I_MPI_DAPL_UD_TRANSLATION_CACHE: 0
*** Starting ONETEP...
    - /work/e89/e89/phsmea/onetep.archer2_2024_cray Cr2I6_bilayer_HT_AFM_AFM_SP.dat
=================================================================================
_________________________________________________________________________________
 +---------------------------------------------------------------+
 |                                                               |
 |        ####### #     # ####### ####### ####### ######         |
 |        #     # ##    # #          #    #       #     #        |
 |        #     # # #   # #          #    #       #     #        |
 |        #     # #  #  # #####      #    #####   ######         |
 |        #     # #   # # #          #    #       #              |
 |        #     # #    ## #          #    #       #              |
 |        ####### #     # #######    #    ####### #              |
 |                                                               |
 |        Linear-Scaling Ab Initio Total Energy Program          |
 |                                                               |
 |          Release for academic collaborators of ODG            |
 |                                             Version 7.3.0     |
 | Remote: git@github.com:Miesaz/onetep_mea.git                  |
 | Local branch: master                                          |
 | Commit ID: 4af45e89288c8df5499704252eec3e032ee3d0c8           |
 | Date: Tue Aug 6 11:28:44 2024 +0100                           |
 | Working tree clean                                            |
 |                                                               |
 +---------------------------------------------------------------+
 |                                                               |
 |  Authors:                                                     |
 |  Jacek Dziedzic, Peter D. Haynes, Nicholas D. M. Hine,        |
 |  Arash A. Mostofi, Mike C. Payne and Chris-Kriton Skylaris    |
 |                                                               |
 |  Contributors:                                                |
 |  J. Aarons, L. Andrinopoulos, P. W. Avraam, R. A. Bell,       |
 |  A. Bhandari, G. A. Bramley, R. J. Charlton, S. J. Clark,     |
 |  R. J. Clements, G. C. Constantinescu, F. Corsetti,           |
 |  N. Corsini, O. Dieguez, S. M. M. Dubois, K. K. B. Duff,      |
 |  J. M. Escartin, M. Escobar Azor, A. Greco,                   |
 |  H. Helal, Q. O. Hill, L. P. Lee, J.-H. Li,                   |
 |  T. Li, E. B. Linscott, G. Moynihan, D. D. O`Regan,           |
 |  O. K. Okan, E. Parkinson, M. J. S. Phipps,                   |
 |  C. J. Pickard, J. C. A. Prentice, M. I. J. Probert,          |
 |  L. E. Ratcliff, M. Robinson, A. Ruiz Serrano,                |
 |  M. dos Santos Dias, J. S. Spencer, E. W. Tait,               |
 |  G. Teobaldi, D. Turban, V. Vitale, K. A. Wilkinson,          |
 |  C. Weber, J. C. Womack, Chengcheng Xiao, N. Yeung,           |
 |  and T. J. Zuehlsdorff.                                       |
 |                                                               |
 |                                   Copyright (c) 2004-2024     |
 |                                                               |
 |  Please cite:                                                 |
 |  "The ONETEP linear-scaling density functional theory program"|
 |   J. Chem. Phys. 152(17) 174111 (2020)                        |
 |                                                               |
 |          in all publications arising from your use of ONETEP. |
 |                                                               |
 +---------------------------------------------------------------+
 |                                                               |
 |   ONETEP is based on developments described in the following  |
 |   publications:                                               |
 |                                                               |
 |  "Nonorthogonal generalized Wannier function pseudopotential  |
 |   plane-wave method".                                         |
 |   C.-K. Skylaris, A. A. Mostofi, P. D. Haynes, O. Dieguez,    |
 |   M. C. Payne.                                                |
 |   Phys. Rev. B 66 035119 (2002).                              |
 |                                                               |
 |  "Preconditioned iterative minimization for linear-scaling    |
 |   electronic structure calculations".                         |
 |   A. A. Mostofi, P. D. Haynes, C.-K. Skylaris, M. C. Payne.   |
 |   J. Chem. Phys. 119(17), pp.8842-8848 (2003).                |
 |                                                               |
 |  "Total-energy calculations on a real space grid with         |
 |   localized functions and a plane-wave basis".                |
 |   A. A. Mostofi, C.-K. Skylaris, P. D. Haynes, M. C. Payne.   |
 |   Comput. Phys. Commun. 147, pp.788-802 (2002).               |
 |                                                               |
 |  "Accurate kinetic energy evaluation in electronic structure  |
 |   calculations with localized functions on real space grids"  |
 |   C.-K. Skylaris, A. A. Mostofi, P. D. Haynes, C. J. Pickard, |
 |   M. C. Payne.                                                |
 |   Comput. Phys. Commun. 140, pp.315-322 (2001).               |
 |                                                               |
 |  "Accurate ionic forces and geometry optimization in linear-  |
 |   scaling density-functional theory with local orbitals"      |
 |   N. D. M. Hine, M. Robinson, P. D. Haynes, C.-K. Skylaris,   |
 |   M. C. Payne, and A. A. Mostofi.                             |
 |   Phys. Rev. B 83 195102 (2011).                              |
 |                                                               |
 +---------------------------------------------------------------+

Job started: 31-05-2025 23:27 (+0100)
 
Reading parameters from file "Cr2I6_bilayer_HT_AFM_AFM_SP.dat" ...... done

If your calculation crashes here, before "Checking processes and threads..."
is displayed, then your stack size is insufficient.
If so, use "ulimit -s unlimited" at runtime.
You can disable this check with "check_stack_size F".

Checking processes and threads...
      Default threads: 17
   Running with 180 MPI processes.
   There are 6 MPI processes running on the same node as the root process.
   Each MPI process is using: 
               1 threads for simulation cell FFTs.
               1 threads for threaded FFT box operations.
              17 threads for loops over batched FFT box operations.
              17 threads in other parallel regions.
   MPI Interface: S1 (use mpi_f08) (-DMPI -DUSE_MPI_F08).
   MPI_ASYNC_PROTECTS_NONBLOCKING: Yes. MPI_SUBARRAYS_SUPPORTED: Yes.
   FFTW Interface: OMP-capable and MODERN. (-DUSE_MODERN_FFTW specified).
   GPU Interface: None.
   GPU FFT Backend: None.
... done

Basic input checks...
WARNING: The number of FFT boxes in a batch is not a multiple of the number of
OpenMP threads. Consider changing fftbox_batch_size.
... done

Reading geometry and species blocks from file "Cr2I6_bilayer_HT_AFM_AFM_SP.dat" ...... done


--------------------------------------------------------------------------------
---------------------------------- INPUT FILE ----------------------------------
--------------------------------------------------------------------------------

charge : 0                                                                      
cutoff_energy : 1000 eV                                                         
delta_e_conv : F                                                                
do_properties : T                                                               
edft : F                                                                        
edft_init_maxit : 15                                                            
elec_energy_tol : 1e-07 Ha                                                      
fine_grid_scale : 4                                                             
forces_output_detail : VERBOSE                                                  
maxit_ngwf_cg : 100                                                             
MAXIT_LNV     : 15                                                              
MINIT_LNV     : 5                                                               
ngwf_threshold_orig : 1e-06                                                     
ngwfs_spin_polarized : T                                                        
output_detail : NORMAL                                                          
paw : T                                                                         
read_denskern : T                                                               
read_hamiltonian : F                                                            
read_tightbox_ngwfs : T                                                         
spin : 0                                                                        
spin_polarized : T                                                              
task : SinglePoint                                                              
write_denskern : T                                                              
write_forces : T                                                                
write_hamiltonian : T                                                           
write_tightbox_ngwfs : T                                                        
xc_functional : PBE                                                             
%BLOCK LATTICE_CART                                                             
ang                                                                             
41.261892132       0.000000000000000        0.000000000000000                   
-20.630946066       35.733846792             0.000000000000000                  
0.000000000000000   0.0000000000000000       27.507928088                       
%ENDBLOCK LATTICE_CART                                                          
%BLOCK POSITIONS_ABS                                                            
ang                                                                             
Cr       5.73012301       1.98615267      15.61475195                           
Cr       2.29163200       3.96948846      15.61475241                           
I        6.71804295      -0.00001318      14.06395847                           
I        3.51661508       2.12334657      14.07089707                           
I        0.07814689       3.83230774      14.07089707                           
I        4.74445508      -0.00001140      17.15723785                           
I        4.50489604       3.83201918      17.15707434                           
I        1.06642478       2.12363336      17.15707434                           
Cr1      3.43917878       1.98613277       9.03123330                           
Cr1      0.00068777       3.96950836       9.03123376                           
I        4.42486276      -0.00001318       7.48874545                           
I        1.22590088       2.12363241       7.48890841                           
I       -2.21256731       3.83202190       7.48890841                           
I        2.45126709      -0.00001140      10.58202506                           
I        2.21418512       3.83230199      10.57507890                           
I       -1.22428614       2.12335055      10.57507890                           
Cr       2.29163200       7.94179381      15.61475195                           
Cr      -1.14685901       9.92512959      15.61475241                           
I        3.27955194       5.95562795      14.06395847                           
I        0.07812407       8.07898770      14.07089707                           
I       -3.36034412       9.78794887      14.07089707                           
I        1.30596407       5.95562973      17.15723785                           
I        1.06640503       9.78766031      17.15707434                           
I       -2.37206623       8.07927449      17.15707434                           
Cr1      0.00068777       7.94177390       9.03123330                           
Cr1     -3.43780324       9.92514949       9.03123376                           
I        0.98637175       5.95562795       7.48874545                           
I       -2.21259013       8.07927354       7.48890841                           
I       -5.65105832       9.78766304       7.48890841                           
I       -0.98722392       5.95562973      10.58202506                           
I       -1.22430589       9.78794313      10.57507890                           
I       -4.66277715       8.07899168      10.57507890                           
Cr      -1.14685901      13.89743494      15.61475195                           
Cr      -4.58535002      15.88077072      15.61475241                           
I       -0.15893907      11.91126908      14.06395847                           
I       -3.36036694      14.03462883      14.07089707                           
I       -6.79883513      15.74359001      14.07089707                           
I       -2.13252694      11.91127086      17.15723785                           
I       -2.37208598      15.74330145      17.15707434                           
I       -5.81055724      14.03491562      17.15707434                           
Cr1     -3.43780324      13.89741504       9.03123330                           
Cr1     -6.87629425      15.88079062       9.03123376                           
I       -2.45211926      11.91126908       7.48874545                           
I       -5.65108114      14.03491467       7.48890841                           
I       -9.08954933      15.74330417       7.48890841                           
I       -4.42571493      11.91127086      10.58202506                           
I       -4.66279691      15.74358426      10.57507890                           
I       -8.10126817      14.03463281      10.57507890                           
Cr      -4.58535002      19.85307607      15.61475195                           
Cr      -8.02384103      21.83641185      15.61475241                           
I       -3.59743008      17.86691022      14.06395847                           
I       -6.79885795      19.99026996      14.07089707                           
I      -10.23732614      21.69923114      14.07089707                           
I       -5.57101795      17.86691200      17.15723785                           
I       -5.81057699      21.69894258      17.15707434                           
I       -9.24904825      19.99055675      17.15707434                           
Cr1     -6.87629425      19.85305617       9.03123330                           
Cr1    -10.31478526      21.83643175       9.03123376                           
I       -5.89061027      17.86691022       7.48874545                           
I       -9.08957216      19.99055580       7.48890841                           
I      -12.52804035      21.69894530       7.48890841                           
I       -7.86420594      17.86691200      10.58202506                           
I       -8.10128792      21.69922539      10.57507890                           
I      -11.53975918      19.99027394      10.57507890                           
Cr      -8.02384103      25.80871720      15.61475195                           
Cr     -11.46233204      27.79205298      15.61475241                           
I       -7.03592109      23.82255135      14.06395847                           
I      -10.23734897      25.94591110      14.07089707                           
I      -13.67581716      27.65487227      14.07089707                           
I       -9.00950896      23.82255313      17.15723785                           
I       -9.24906800      27.65458371      17.15707434                           
I      -12.68753926      25.94619789      17.15707434                           
Cr1    -10.31478526      25.80869730       9.03123330                           
Cr1    -13.75327627      27.79207289       9.03123376                           
I       -9.32910128      23.82255135       7.48874545                           
I      -12.52806317      25.94619693       7.48890841                           
I      -15.96653136      27.65458643       7.48890841                           
I      -11.30269695      23.82255313      10.58202506                           
I      -11.53977893      27.65486652      10.57507890                           
I      -14.97825019      25.94591507      10.57507890                           
Cr     -11.46233205      31.76435833      15.61475195                           
Cr     -14.90082306      33.74769412      15.61475241                           
I      -10.47441210      29.77819248      14.06395847                           
I      -13.67583998      31.90155223      14.07089707                           
I      -17.11430817      33.61051340      14.07089707                           
I      -12.44799997      29.77819426      17.15723785                           
I      -12.68755901      33.61022484      17.15707434                           
I      -16.12603027      31.90183902      17.15707434                           
Cr1    -13.75327627      31.76433843       9.03123330                           
Cr1    -17.19176728      33.74771402       9.03123376                           
I      -12.76759229      29.77819248       7.48874545                           
I      -15.96655418      31.90183807       7.48890841                           
I      -19.40502237      33.61022756       7.48890841                           
I      -14.74118796      29.77819426      10.58202506                           
I      -14.97826994      33.61050765      10.57507890                           
I      -18.41674120      31.90155621      10.57507890                           
Cr      12.60710503       1.98615267      15.61475195                           
Cr       9.16861402       3.96948846      15.61475241                           
I       13.59502497      -0.00001318      14.06395847                           
I       10.39359710       2.12334657      14.07089707                           
I        6.95512891       3.83230774      14.07089707                           
I       11.62143710      -0.00001140      17.15723785                           
I       11.38187806       3.83201918      17.15707434                           
I        7.94340680       2.12363336      17.15707434                           
Cr1     10.31616080       1.98613277       9.03123330                           
Cr1      6.87766979       3.96950836       9.03123376                           
I       11.30184479      -0.00001318       7.48874545                           
I        8.10288290       2.12363241       7.48890841                           
I        4.66441471       3.83202190       7.48890841                           
I        9.32824912      -0.00001140      10.58202506                           
I        9.09116714       3.83230199      10.57507890                           
I        5.65269588       2.12335055      10.57507890                           
Cr       9.16861402       7.94179381      15.61475195                           
Cr       5.73012301       9.92512959      15.61475241                           
I       10.15653396       5.95562795      14.06395847                           
I        6.95510609       8.07898770      14.07089707                           
I        3.51663790       9.78794887      14.07089707                           
I        8.18294609       5.95562973      17.15723785                           
I        7.94338705       9.78766031      17.15707434                           
I        4.50491579       8.07927449      17.15707434                           
Cr1      6.87766979       7.94177390       9.03123330                           
Cr1      3.43917878       9.92514949       9.03123376                           
I        7.86335378       5.95562795       7.48874545                           
I        4.66439189       8.07927354       7.48890841                           
I        1.22592370       9.78766304       7.48890841                           
I        5.88975810       5.95562973      10.58202506                           
I        5.65267613       9.78794313      10.57507890                           
I        2.21420487       8.07899168      10.57507890                           
Cr       5.73012301      13.89743494      15.61475195                           
Cr       2.29163200      15.88077072      15.61475241                           
I        6.71804295      11.91126908      14.06395847                           
I        3.51661508      14.03462883      14.07089707                           
I        0.07814689      15.74359001      14.07089707                           
I        4.74445508      11.91127086      17.15723785                           
I        4.50489604      15.74330145      17.15707434                           
I        1.06642478      14.03491562      17.15707434                           
Cr1      3.43917878      13.89741504       9.03123330                           
Cr1      0.00068777      15.88079062       9.03123376                           
I        4.42486276      11.91126908       7.48874545                           
I        1.22590088      14.03491467       7.48890841                           
I       -2.21256731      15.74330417       7.48890841                           
I        2.45126709      11.91127086      10.58202506                           
I        2.21418512      15.74358426      10.57507890                           
I       -1.22428614      14.03463281      10.57507890                           
Cr       2.29163200      19.85307607      15.61475195                           
Cr      -1.14685901      21.83641185      15.61475241                           
I        3.27955194      17.86691022      14.06395847                           
I        0.07812407      19.99026996      14.07089707                           
I       -3.36034412      21.69923114      14.07089707                           
I        1.30596407      17.86691200      17.15723785                           
I        1.06640503      21.69894258      17.15707434                           
I       -2.37206623      19.99055675      17.15707434                           
Cr1      0.00068777      19.85305617       9.03123330                           
Cr1     -3.43780324      21.83643175       9.03123376                           
I        0.98637175      17.86691022       7.48874545                           
I       -2.21259013      19.99055580       7.48890841                           
I       -5.65105832      21.69894530       7.48890841                           
I       -0.98722392      17.86691200      10.58202506                           
I       -1.22430589      21.69922539      10.57507890                           
I       -4.66277715      19.99027394      10.57507890                           
Cr      -1.14685901      25.80871720      15.61475195                           
Cr      -4.58535002      27.79205298      15.61475241                           
I       -0.15893907      23.82255135      14.06395847                           
I       -3.36036694      25.94591110      14.07089707                           
I       -6.79883513      27.65487227      14.07089707                           
I       -2.13252694      23.82255313      17.15723785                           
I       -2.37208598      27.65458371      17.15707434                           
I       -5.81055724      25.94619789      17.15707434                           
Cr1     -3.43780324      25.80869730       9.03123330                           
Cr1     -6.87629425      27.79207289       9.03123376                           
I       -2.45211926      23.82255135       7.48874545                           
I       -5.65108114      25.94619693       7.48890841                           
I       -9.08954933      27.65458643       7.48890841                           
I       -4.42571493      23.82255313      10.58202506                           
I       -4.66279691      27.65486652      10.57507890                           
I       -8.10126817      25.94591507      10.57507890                           
Cr      -4.58535002      31.76435833      15.61475195                           
Cr      -8.02384103      33.74769412      15.61475241                           
I       -3.59743008      29.77819248      14.06395847                           
I       -6.79885795      31.90155223      14.07089707                           
I      -10.23732614      33.61051340      14.07089707                           
I       -5.57101795      29.77819426      17.15723785                           
I       -5.81057699      33.61022484      17.15707434                           
I       -9.24904825      31.90183902      17.15707434                           
Cr1     -6.87629425      31.76433843       9.03123330                           
Cr1    -10.31478526      33.74771402       9.03123376                           
I       -5.89061027      29.77819248       7.48874545                           
I       -9.08957216      31.90183807       7.48890841                           
I      -12.52804035      33.61022756       7.48890841                           
I       -7.86420594      29.77819426      10.58202506                           
I       -8.10128792      33.61050765      10.57507890                           
I      -11.53975918      31.90155621      10.57507890                           
Cr      19.48408705       1.98615267      15.61475195                           
Cr      16.04559604       3.96948846      15.61475241                           
I       20.47200700      -0.00001318      14.06395847                           
I       17.27057912       2.12334657      14.07089707                           
I       13.83211093       3.83230774      14.07089707                           
I       18.49841912      -0.00001140      17.15723785                           
I       18.25886009       3.83201918      17.15707434                           
I       14.82038883       2.12363336      17.15707434                           
Cr1     17.19314283       1.98613277       9.03123330                           
Cr1     13.75465182       3.96950836       9.03123376                           
I       18.17882681      -0.00001318       7.48874545                           
I       14.97986492       2.12363241       7.48890841                           
I       11.54139673       3.83202190       7.48890841                           
I       16.20523114      -0.00001140      10.58202506                           
I       15.96814916       3.83230199      10.57507890                           
I       12.52967790       2.12335055      10.57507890                           
Cr      16.04559604       7.94179381      15.61475195                           
Cr      12.60710503       9.92512959      15.61475241                           
I       17.03351599       5.95562795      14.06395847                           
I       13.83208811       8.07898770      14.07089707                           
I       10.39361992       9.78794887      14.07089707                           
I       15.05992811       5.95562973      17.15723785                           
I       14.82036907       9.78766031      17.15707434                           
I       11.38189781       8.07927449      17.15707434                           
Cr1     13.75465181       7.94177390       9.03123330                           
Cr1     10.31616080       9.92514949       9.03123376                           
I       14.74033580       5.95562795       7.48874545                           
I       11.54137391       8.07927354       7.48890841                           
I        8.10290572       9.78766304       7.48890841                           
I       12.76674013       5.95562973      10.58202506                           
I       12.52965815       9.78794313      10.57507890                           
I        9.09118689       8.07899168      10.57507890                           
Cr      12.60710503      13.89743494      15.61475195                           
Cr       9.16861402      15.88077072      15.61475241                           
I       13.59502497      11.91126908      14.06395847                           
I       10.39359710      14.03462883      14.07089707                           
I        6.95512891      15.74359001      14.07089707                           
I       11.62143710      11.91127086      17.15723785                           
I       11.38187806      15.74330145      17.15707434                           
I        7.94340680      14.03491562      17.15707434                           
Cr1     10.31616080      13.89741504       9.03123330                           
Cr1      6.87766979      15.88079062       9.03123376                           
I       11.30184479      11.91126908       7.48874545                           
I        8.10288290      14.03491467       7.48890841                           
I        4.66441471      15.74330417       7.48890841                           
I        9.32824912      11.91127086      10.58202506                           
I        9.09116714      15.74358426      10.57507890                           
I        5.65269588      14.03463281      10.57507890                           
Cr       9.16861402      19.85307607      15.61475195                           
Cr       5.73012301      21.83641185      15.61475241                           
I       10.15653396      17.86691022      14.06395847                           
I        6.95510609      19.99026996      14.07089707                           
I        3.51663790      21.69923114      14.07089707                           
I        8.18294609      17.86691200      17.15723785                           
I        7.94338705      21.69894258      17.15707434                           
I        4.50491579      19.99055675      17.15707434                           
Cr1      6.87766979      19.85305617       9.03123330                           
Cr1      3.43917878      21.83643175       9.03123376                           
I        7.86335378      17.86691022       7.48874545                           
I        4.66439189      19.99055580       7.48890841                           
I        1.22592370      21.69894530       7.48890841                           
I        5.88975810      17.86691200      10.58202506                           
I        5.65267613      21.69922539      10.57507890                           
I        2.21420487      19.99027394      10.57507890                           
Cr       5.73012301      25.80871720      15.61475195                           
Cr       2.29163200      27.79205298      15.61475241                           
I        6.71804295      23.82255135      14.06395847                           
I        3.51661508      25.94591110      14.07089707                           
I        0.07814689      27.65487227      14.07089707                           
I        4.74445508      23.82255313      17.15723785                           
I        4.50489604      27.65458371      17.15707434                           
I        1.06642478      25.94619789      17.15707434                           
Cr1      3.43917878      25.80869730       9.03123330                           
Cr1      0.00068777      27.79207289       9.03123376                           
I        4.42486276      23.82255135       7.48874545                           
I        1.22590088      25.94619693       7.48890841                           
I       -2.21256731      27.65458643       7.48890841                           
I        2.45126709      23.82255313      10.58202506                           
I        2.21418512      27.65486652      10.57507890                           
I       -1.22428614      25.94591507      10.57507890                           
Cr       2.29163200      31.76435833      15.61475195                           
Cr      -1.14685901      33.74769412      15.61475241                           
I        3.27955194      29.77819248      14.06395847                           
I        0.07812407      31.90155223      14.07089707                           
I       -3.36034412      33.61051340      14.07089707                           
I        1.30596407      29.77819426      17.15723785                           
I        1.06640503      33.61022484      17.15707434                           
I       -2.37206623      31.90183902      17.15707434                           
Cr1      0.00068777      31.76433843       9.03123330                           
Cr1     -3.43780324      33.74771402       9.03123376                           
I        0.98637175      29.77819248       7.48874545                           
I       -2.21259013      31.90183807       7.48890841                           
I       -5.65105832      33.61022756       7.48890841                           
I       -0.98722392      29.77819426      10.58202506                           
I       -1.22430589      33.61050765      10.57507890                           
I       -4.66277715      31.90155621      10.57507890                           
Cr      26.36106908       1.98615267      15.61475195                           
Cr      22.92257807       3.96948846      15.61475241                           
I       27.34898902      -0.00001318      14.06395847                           
I       24.14756114       2.12334657      14.07089707                           
I       20.70909295       3.83230774      14.07089707                           
I       25.37540115      -0.00001140      17.15723785                           
I       25.13584211       3.83201918      17.15707434                           
I       21.69737085       2.12363336      17.15707434                           
Cr1     24.07012485       1.98613277       9.03123330                           
Cr1     20.63163384       3.96950836       9.03123376                           
I       25.05580883      -0.00001318       7.48874545                           
I       21.85684694       2.12363241       7.48890841                           
I       18.41837875       3.83202190       7.48890841                           
I       23.08221316      -0.00001140      10.58202506                           
I       22.84513118       3.83230199      10.57507890                           
I       19.40665992       2.12335055      10.57507890                           
Cr      22.92257806       7.94179381      15.61475195                           
Cr      19.48408705       9.92512959      15.61475241                           
I       23.91049801       5.95562795      14.06395847                           
I       20.70907013       8.07898770      14.07089707                           
I       17.27060194       9.78794887      14.07089707                           
I       21.93691014       5.95562973      17.15723785                           
I       21.69735110       9.78766031      17.15707434                           
I       18.25887984       8.07927449      17.15707434                           
Cr1     20.63163384       7.94177390       9.03123330                           
Cr1     17.19314283       9.92514949       9.03123376                           
I       21.61731782       5.95562795       7.48874545                           
I       18.41835593       8.07927354       7.48890841                           
I       14.97988774       9.78766304       7.48890841                           
I       19.64372215       5.95562973      10.58202506                           
I       19.40664017       9.78794313      10.57507890                           
I       15.96816891       8.07899168      10.57507890                           
Cr      19.48408705      13.89743494      15.61475195                           
Cr      16.04559604      15.88077072      15.61475241                           
I       20.47200700      11.91126908      14.06395847                           
I       17.27057912      14.03462883      14.07089707                           
I       13.83211093      15.74359001      14.07089707                           
I       18.49841912      11.91127086      17.15723785                           
I       18.25886009      15.74330145      17.15707434                           
I       14.82038883      14.03491562      17.15707434                           
Cr1     17.19314283      13.89741504       9.03123330                           
Cr1     13.75465182      15.88079062       9.03123376                           
I       18.17882681      11.91126908       7.48874545                           
I       14.97986492      14.03491467       7.48890841                           
I       11.54139673      15.74330417       7.48890841                           
I       16.20523114      11.91127086      10.58202506                           
I       15.96814916      15.74358426      10.57507890                           
I       12.52967790      14.03463281      10.57507890                           
Cr      16.04559604      19.85307607      15.61475195                           
Cr      12.60710503      21.83641185      15.61475241                           
I       17.03351599      17.86691022      14.06395847                           
I       13.83208811      19.99026996      14.07089707                           
I       10.39361992      21.69923114      14.07089707                           
I       15.05992811      17.86691200      17.15723785                           
I       14.82036907      21.69894258      17.15707434                           
I       11.38189781      19.99055675      17.15707434                           
Cr1     13.75465181      19.85305617       9.03123330                           
Cr1     10.31616080      21.83643175       9.03123376                           
I       14.74033580      17.86691022       7.48874545                           
I       11.54137391      19.99055580       7.48890841                           
I        8.10290572      21.69894530       7.48890841                           
I       12.76674013      17.86691200      10.58202506                           
I       12.52965815      21.69922539      10.57507890                           
I        9.09118689      19.99027394      10.57507890                           
Cr      12.60710503      25.80871720      15.61475195                           
Cr       9.16861402      27.79205298      15.61475241                           
I       13.59502497      23.82255135      14.06395847                           
I       10.39359710      25.94591110      14.07089707                           
I        6.95512891      27.65487227      14.07089707                           
I       11.62143710      23.82255313      17.15723785                           
I       11.38187806      27.65458371      17.15707434                           
I        7.94340680      25.94619789      17.15707434                           
Cr1     10.31616080      25.80869730       9.03123330                           
Cr1      6.87766979      27.79207289       9.03123376                           
I       11.30184479      23.82255135       7.48874545                           
I        8.10288290      25.94619693       7.48890841                           
I        4.66441471      27.65458643       7.48890841                           
I        9.32824912      23.82255313      10.58202506                           
I        9.09116714      27.65486652      10.57507890                           
I        5.65269588      25.94591507      10.57507890                           
Cr       9.16861402      31.76435833      15.61475195                           
Cr       5.73012301      33.74769412      15.61475241                           
I       10.15653396      29.77819248      14.06395847                           
I        6.95510609      31.90155223      14.07089707                           
I        3.51663790      33.61051340      14.07089707                           
I        8.18294609      29.77819426      17.15723785                           
I        7.94338705      33.61022484      17.15707434                           
I        4.50491579      31.90183902      17.15707434                           
Cr1      6.87766979      31.76433843       9.03123330                           
Cr1      3.43917878      33.74771402       9.03123376                           
I        7.86335378      29.77819248       7.48874545                           
I        4.66439189      31.90183807       7.48890841                           
I        1.22592370      33.61022756       7.48890841                           
I        5.88975810      29.77819426      10.58202506                           
I        5.65267613      33.61050765      10.57507890                           
I        2.21420487      31.90155621      10.57507890                           
Cr      33.23805110       1.98615267      15.61475195                           
Cr      29.79956009       3.96948846      15.61475241                           
I       34.22597104      -0.00001318      14.06395847                           
I       31.02454317       2.12334657      14.07089707                           
I       27.58607498       3.83230774      14.07089707                           
I       32.25238317      -0.00001140      17.15723785                           
I       32.01282413       3.83201918      17.15707434                           
I       28.57435287       2.12363336      17.15707434                           
Cr1     30.94710687       1.98613277       9.03123330                           
Cr1     27.50861586       3.96950836       9.03123376                           
I       31.93279085      -0.00001318       7.48874545                           
I       28.73382897       2.12363241       7.48890841                           
I       25.29536078       3.83202190       7.48890841                           
I       29.95919518      -0.00001140      10.58202506                           
I       29.72211320       3.83230199      10.57507890                           
I       26.28364194       2.12335055      10.57507890                           
Cr      29.79956009       7.94179381      15.61475195                           
Cr      26.36106908       9.92512959      15.61475241                           
I       30.78748003       5.95562795      14.06395847                           
I       27.58605216       8.07898770      14.07089707                           
I       24.14758397       9.78794887      14.07089707                           
I       28.81389216       5.95562973      17.15723785                           
I       28.57433312       9.78766031      17.15707434                           
I       25.13586186       8.07927449      17.15707434                           
Cr1     27.50861586       7.94177390       9.03123330                           
Cr1     24.07012485       9.92514949       9.03123376                           
I       28.49429984       5.95562795       7.48874545                           
I       25.29533795       8.07927354       7.48890841                           
I       21.85686976       9.78766304       7.48890841                           
I       26.52070417       5.95562973      10.58202506                           
I       26.28362219       9.78794313      10.57507890                           
I       22.84515093       8.07899168      10.57507890                           
Cr      26.36106908      13.89743494      15.61475195                           
Cr      22.92257807      15.88077072      15.61475241                           
I       27.34898902      11.91126908      14.06395847                           
I       24.14756114      14.03462883      14.07089707                           
I       20.70909295      15.74359001      14.07089707                           
I       25.37540115      11.91127086      17.15723785                           
I       25.13584211      15.74330145      17.15707434                           
I       21.69737085      14.03491562      17.15707434                           
Cr1     24.07012485      13.89741504       9.03123330                           
Cr1     20.63163384      15.88079062       9.03123376                           
I       25.05580883      11.91126908       7.48874545                           
I       21.85684694      14.03491467       7.48890841                           
I       18.41837875      15.74330417       7.48890841                           
I       23.08221316      11.91127086      10.58202506                           
I       22.84513118      15.74358426      10.57507890                           
I       19.40665992      14.03463281      10.57507890                           
Cr      22.92257806      19.85307607      15.61475195                           
Cr      19.48408705      21.83641185      15.61475241                           
I       23.91049801      17.86691022      14.06395847                           
I       20.70907013      19.99026996      14.07089707                           
I       17.27060194      21.69923114      14.07089707                           
I       21.93691014      17.86691200      17.15723785                           
I       21.69735110      21.69894258      17.15707434                           
I       18.25887984      19.99055675      17.15707434                           
Cr1     20.63163384      19.85305617       9.03123330                           
Cr1     17.19314283      21.83643175       9.03123376                           
I       21.61731782      17.86691022       7.48874545                           
I       18.41835593      19.99055580       7.48890841                           
I       14.97988774      21.69894530       7.48890841                           
I       19.64372215      17.86691200      10.58202506                           
I       19.40664017      21.69922539      10.57507890                           
I       15.96816891      19.99027394      10.57507890                           
Cr      19.48408705      25.80871720      15.61475195                           
Cr      16.04559604      27.79205298      15.61475241                           
I       20.47200700      23.82255135      14.06395847                           
I       17.27057912      25.94591110      14.07089707                           
I       13.83211093      27.65487227      14.07089707                           
I       18.49841912      23.82255313      17.15723785                           
I       18.25886009      27.65458371      17.15707434                           
I       14.82038883      25.94619789      17.15707434                           
Cr1     17.19314283      25.80869730       9.03123330                           
Cr1     13.75465182      27.79207289       9.03123376                           
I       18.17882681      23.82255135       7.48874545                           
I       14.97986492      25.94619693       7.48890841                           
I       11.54139673      27.65458643       7.48890841                           
I       16.20523114      23.82255313      10.58202506                           
I       15.96814916      27.65486652      10.57507890                           
I       12.52967790      25.94591507      10.57507890                           
Cr      16.04559604      31.76435833      15.61475195                           
Cr      12.60710503      33.74769412      15.61475241                           
I       17.03351599      29.77819248      14.06395847                           
I       13.83208811      31.90155223      14.07089707                           
I       10.39361992      33.61051340      14.07089707                           
I       15.05992811      29.77819426      17.15723785                           
I       14.82036907      33.61022484      17.15707434                           
I       11.38189781      31.90183902      17.15707434                           
Cr1     13.75465181      31.76433843       9.03123330                           
Cr1     10.31616080      33.74771402       9.03123376                           
I       14.74033580      29.77819248       7.48874545                           
I       11.54137391      31.90183807       7.48890841                           
I        8.10290572      33.61022756       7.48890841                           
I       12.76674013      29.77819426      10.58202506                           
I       12.52965815      33.61050765      10.57507890                           
I        9.09118689      31.90155621      10.57507890                           
Cr      40.11503312       1.98615267      15.61475195                           
Cr      36.67654211       3.96948846      15.61475241                           
I       41.10295306      -0.00001318      14.06395847                           
I       37.90152519       2.12334657      14.07089707                           
I       34.46305700       3.83230774      14.07089707                           
I       39.12936519      -0.00001140      17.15723785                           
I       38.88980615       3.83201918      17.15707434                           
I       35.45133489       2.12363336      17.15707434                           
Cr1     37.82408889       1.98613277       9.03123330                           
Cr1     34.38559788       3.96950836       9.03123376                           
I       38.80977287      -0.00001318       7.48874545                           
I       35.61081099       2.12363241       7.48890841                           
I       32.17234280       3.83202190       7.48890841                           
I       36.83617720      -0.00001140      10.58202506                           
I       36.59909523       3.83230199      10.57507890                           
I       33.16062397       2.12335055      10.57507890                           
Cr      36.67654211       7.94179381      15.61475195                           
Cr      33.23805110       9.92512959      15.61475241                           
I       37.66446205       5.95562795      14.06395847                           
I       34.46303418       8.07898770      14.07089707                           
I       31.02456599       9.78794887      14.07089707                           
I       35.69087418       5.95562973      17.15723785                           
I       35.45131514       9.78766031      17.15707434                           
I       32.01284388       8.07927449      17.15707434                           
Cr1     34.38559788       7.94177390       9.03123330                           
Cr1     30.94710687       9.92514949       9.03123376                           
I       35.37128186       5.95562795       7.48874545                           
I       32.17231998       8.07927354       7.48890841                           
I       28.73385179       9.78766304       7.48890841                           
I       33.39768619       5.95562973      10.58202506                           
I       33.16060422       9.78794313      10.57507890                           
I       29.72213296       8.07899168      10.57507890                           
Cr      33.23805110      13.89743494      15.61475195                           
Cr      29.79956009      15.88077072      15.61475241                           
I       34.22597104      11.91126908      14.06395847                           
I       31.02454317      14.03462883      14.07089707                           
I       27.58607498      15.74359001      14.07089707                           
I       32.25238317      11.91127086      17.15723785                           
I       32.01282413      15.74330145      17.15707434                           
I       28.57435287      14.03491562      17.15707434                           
Cr1     30.94710687      13.89741504       9.03123330                           
Cr1     27.50861586      15.88079062       9.03123376                           
I       31.93279085      11.91126908       7.48874545                           
I       28.73382897      14.03491467       7.48890841                           
I       25.29536078      15.74330417       7.48890841                           
I       29.95919518      11.91127086      10.58202506                           
I       29.72211320      15.74358426      10.57507890                           
I       26.28364194      14.03463281      10.57507890                           
Cr      29.79956009      19.85307607      15.61475195                           
Cr      26.36106908      21.83641185      15.61475241                           
I       30.78748003      17.86691022      14.06395847                           
I       27.58605216      19.99026996      14.07089707                           
I       24.14758397      21.69923114      14.07089707                           
I       28.81389216      17.86691200      17.15723785                           
I       28.57433312      21.69894258      17.15707434                           
I       25.13586186      19.99055675      17.15707434                           
Cr1     27.50861586      19.85305617       9.03123330                           
Cr1     24.07012485      21.83643175       9.03123376                           
I       28.49429984      17.86691022       7.48874545                           
I       25.29533795      19.99055580       7.48890841                           
I       21.85686976      21.69894530       7.48890841                           
I       26.52070417      17.86691200      10.58202506                           
I       26.28362219      21.69922539      10.57507890                           
I       22.84515093      19.99027394      10.57507890                           
Cr      26.36106908      25.80871720      15.61475195                           
Cr      22.92257807      27.79205298      15.61475241                           
I       27.34898902      23.82255135      14.06395847                           
I       24.14756114      25.94591110      14.07089707                           
I       20.70909295      27.65487227      14.07089707                           
I       25.37540115      23.82255313      17.15723785                           
I       25.13584211      27.65458371      17.15707434                           
I       21.69737085      25.94619789      17.15707434                           
Cr1     24.07012485      25.80869730       9.03123330                           
Cr1     20.63163384      27.79207289       9.03123376                           
I       25.05580883      23.82255135       7.48874545                           
I       21.85684694      25.94619693       7.48890841                           
I       18.41837875      27.65458643       7.48890841                           
I       23.08221316      23.82255313      10.58202506                           
I       22.84513118      27.65486652      10.57507890                           
I       19.40665992      25.94591507      10.57507890                           
Cr      22.92257806      31.76435833      15.61475195                           
Cr      19.48408705      33.74769412      15.61475241                           
I       23.91049801      29.77819248      14.06395847                           
I       20.70907013      31.90155223      14.07089707                           
I       17.27060194      33.61051340      14.07089707                           
I       21.93691014      29.77819426      17.15723785                           
I       21.69735110      33.61022484      17.15707434                           
I       18.25887984      31.90183902      17.15707434                           
Cr1     20.63163384      31.76433843       9.03123330                           
Cr1     17.19314283      33.74771402       9.03123376                           
I       21.61731782      29.77819248       7.48874545                           
I       18.41835593      31.90183807       7.48890841                           
I       14.97988774      33.61022756       7.48890841                           
I       19.64372215      29.77819426      10.58202506                           
I       19.40664017      33.61050765      10.57507890                           
I       15.96816891      31.90155621      10.57507890                           
%ENDBLOCK POSITIONS_ABS                                                         
%BLOCK SPECIES                                                                  
Cr Cr 24 -1 15                                                                  
I   I  53 -1 15                                                                 
Cr1 Cr 24 -1 15                                                                 
%ENDBLOCK SPECIES                                                               
%BLOCK SPECIES_ATOMIC_SET                                                       
Cr "SOLVE INIT SPIN=3"                                                          
I   "SOLVE"                                                                     
Cr1 "SOLVE INIT SPIN=-3"                                                        
%ENDBLOCK SPECIES_ATOMIC_SET                                                    
%BLOCK HUBBARD                                                                  
Cr  2 2.97 0.0 -10.0 0.00 0.0                                                   
Cr1 2 2.97 0.0 -10.0 0.00 0.0                                                   
%ENDBLOCK HUBBARD                                                               
%BLOCK SPECIES_LDOS_GROUPS                                                      
Cr                                                                              
I                                                                               
Cr1                                                                             
%ENDBLOCK SPECIES_LDOS_GROUPS                                                   
%BLOCK SPECIES_POT                                                              
Cr  "../../../../Cr.PBE-paw.abinit"                                             
I   "../../../../I.PBE-paw.abinit"                                              
Cr1 "../../../../Cr.PBE-paw.abinit"                                             
%ENDBLOCK SPECIES_POT                                                           

--------------------------------------------------------------------------------
-------------------------------- END INPUT FILE --------------------------------
--------------------------------------------------------------------------------


 
 ESDF WARNING(1): "charge" (esdf_physical) has no units. Assume "e".
<<<<<<<<<<<<<<<<<<<<<<<<<<<<<<<<< Full system >>>>>>>>>>>>>>>>>>>>>>>>>>>>>>>>>>
<<<<<<<<<<<<<<<<<<<<<<<<<<< PAW Dataset information >>>>>>>>>>>>>>>>>>>>>>>>>>>
File: ../../../../Cr.PBE-paw.abinit; rc = 2.11 bohr; shape type =  2; rshape = 1.80 bohr;
  Atomic number: 24;  ionic charge: 14.000000
    Partial Wave 1: l = 0
    Partial Wave 2: l = 0
    Partial Wave 3: l = 1
    Partial Wave 4: l = 1
    Partial Wave 5: l = 2
    Partial Wave 6: l = 2
  Core charge supplied for Nonlinear Core Corrections
File: ../../../../I.PBE-paw.abinit; rc = 2.30 bohr; shape type =  2; rshape = 2.11 bohr;
  Atomic number: 53;  ionic charge:  7.000000
    Partial Wave 1: l = 0
    Partial Wave 2: l = 0
    Partial Wave 3: l = 1
    Partial Wave 4: l = 1
  Core charge supplied for Nonlinear Core Corrections
<<<<<<<<<<<<<<<<<<<<<<<<<<<<<<<<<<<<<<< >>>>>>>>>>>>>>>>>>>>>>>>>>>>>>>>>>>>>>>

-------------------------- Atom counting information ---------------------------
Symbol    Natoms    Nngwfs    Nprojs
  Cr       144      1872      2592
  I        432      1728      3456
.......   ......    ......    ......
Totals:    576      3600      6048
--------------------------------------------------------------------------------

=============================== PSINC grid sizes ===============================
                      Simulation cell:  175 x 175 x 117
                              FFT-box:  175 x 175 x 117
                                  PPD:    5 x   5 x   1
Grid space d1=  0.445563862424a0 (KE cutoff=  38.26345Eh =1041.20135eV)
Grid space d2=  0.445563862400a0 (KE cutoff=  38.26345Eh =1041.20135eV)
Grid space d3=  0.444294449711a0 (KE cutoff=  38.48241Eh =1047.15957eV)
================================================================================

********************* Fourier parallelisation information **********************
       Coarse grid (whole simulation cell) dimensions:    175   175   117
          Real-space ('12') slabs/proc (min max mean):      0     1     0
         Recip-space ('23') slabs/proc (min max mean):      0     1     0
********************************************************************************

********************* Fourier parallelisation information **********************
       Double grid (whole simulation cell) dimensions:    350   350   234
          Real-space ('12') slabs/proc (min max mean):      1     2     1
         Recip-space ('23') slabs/proc (min max mean):      0     1     0
********************************************************************************

********************* Fourier parallelisation information **********************
         Fine grid (whole simulation cell) dimensions:    700   700   468
          Real-space ('12') slabs/proc (min max mean):      2     3     2
         Recip-space ('23') slabs/proc (min max mean):      1     2     1
********************************************************************************
energy_and_force_init_cell: WARNING in internal_setup_spin:
        even number of electrons in cell and zero spin
        but continuing with spin-polarised calculation

Atom SCF Calculation for Cr : Z (AE atom) =  24 : Z (PS atom) =  14
Config String: 3s2.0 3p6.0 3d5.0 4s1.0 4p0.0 INIT SPIN=3
Orbitals (num,occ):  5     2.00 6.00 5.00 1.00 0.00
Orbitals   (num,l):  5        0    1    2    0    1
Atom SCF converged after  64 iterations to a total energy of    -87.07044631
Adjusting orbital occupancies:
Orbitals (num,spin,occ):  5  1     1.00 3.00 3.50 1.00 0.00
Orbitals   (num,spin,l):  5  1        0    1    2    0    1
Orbitals (num,spin,occ):  5  2     1.00 3.00 1.00 0.50 0.00
Orbitals   (num,spin,l):  5  2        0    1    2    0    1

Atom SCF Calculation for I  : Z (AE atom) =  53 : Z (PS atom) =   7
Config String: 5s2.0 5p5.0
Orbitals (num,occ):  2     2.00 5.00
Orbitals   (num,l):  2        0    1
Atom SCF converged after  28 iterations to a total energy of    -11.61352964

Atom SCF Calculation for Cr : Z (AE atom) =  24 : Z (PS atom) =  14
Config String: 3s2.0 3p6.0 3d5.0 4s1.0 4p0.0 INIT SPIN=-3
Orbitals (num,occ):  5     2.00 6.00 5.00 1.00 0.00
Orbitals   (num,l):  5        0    1    2    0    1
Atom SCF converged after  64 iterations to a total energy of    -87.07044631
Adjusting orbital occupancies:
Orbitals (num,spin,occ):  5  1     1.00 3.00 1.00 0.50 0.00
Orbitals   (num,spin,l):  5  1        0    1    2    0    1
Orbitals (num,spin,occ):  5  2     1.00 3.00 3.50 1.00 0.00
Orbitals   (num,spin,l):  5  2        0    1    2    0    1

Atom SCF Calculation for Cr : Z (AE atom) =  24 : Z (PS atom) =  14
Config String: 3s2.0 3p6.0 3d5.0 4s1.0 4p0.0 INIT SPIN=3
Orbitals (num,occ):  5     2.00 6.00 5.00 1.00 0.00
Orbitals   (num,l):  5        0    1    2    0    1
Atom SCF converged after  64 iterations to a total energy of    -87.07044631

Atom SCF Calculation for I  : Z (AE atom) =  53 : Z (PS atom) =   7
Config String: 5s2.0 5p5.0
Orbitals (num,occ):  2     2.00 5.00
Orbitals   (num,l):  2        0    1
Atom SCF converged after  28 iterations to a total energy of    -11.61352964

Atom SCF Calculation for Cr : Z (AE atom) =  24 : Z (PS atom) =  14
Config String: 3s2.0 3p6.0 3d5.0 4s1.0 4p0.0 INIT SPIN=-3
Orbitals (num,occ):  5     2.00 6.00 5.00 1.00 0.00
Orbitals   (num,l):  5        0    1    2    0    1
Atom SCF converged after  64 iterations to a total energy of    -87.07044631

WARNING: The number of FFT boxes in a batch is not a multiple of the number of
OpenMP threads. Consider changing fftbox_batch_size.

Determining parallel strategy ...... done
Calculating Ewald energy ...            31475.177180 Hartree
Basis initialisation ...
... done

============================= Charge Augmentation ==============================
                           Aug box size:   49 x  49 x  45
================================================================================
Sparse matrix initialisation ...
 done

Reading NGWFs from file "Cr2I6_bilayer_HT_AFM_AFM_SP.tightbox_ngwfs" ... done
 done

================================= Core Density =================================
               Core den box size:  125 x 125 x 105
================================================================================

Reading density kernel from file "Cr2I6_bilayer_HT_AFM_AFM_SP.dkn" ... done

>>> Optimising kernel for current NGWFs:


>>> Density kernel optimised for the current NGWF basis:
     ~~~~~~~~~~~~~~~~~~~~~~~~~~~~~~~~~~~~~~~~~~~~~~~~~~~~~~~~~~~
     Total energy                =  -1.76276850819231E+04  Eh
     Estimated bandgap (UP spin) =   4.0781E-02  Eh
     Estimated bandgap (DN spin) =   4.0810E-02  Eh
     RMS occupancy error         =   5.0011E-16
     [H,K] commutator            =   1.7796E-07
     UP spin occupancy bounds    = [  0.000:  1.000]
     DN spin occupancy bounds    = [  0.000:  1.000]
     ~~~~~~~~~~~~~~~~~~~~~~~~~~~~~~~~~~~~~~~~~~~~~~~~~~~~~~~~~~~




################################################################################
########################### NGWF CG iteration  001 #############################
################################################################################

>>> Checking for convergence of NGWFs:   NOT CONVERGED
  ========================================================================
         NGWF RMS gradient =  6.3918E-07 <  1.0000E-06  | CONVERGED
  ========================================================================

>>> Improving NGWFs using line search:
  ========================================================================
   Predicted total energy    =      -1.76276852033622E+04 Eh
   Predicted gain in energy  =      -1.21439097711118E-04 Eh
  ========================================================================

Writing NGWFs to file "Cr2I6_bilayer_HT_AFM_AFM_SP.tightbox_ngwfs".... done

>>> Optimising kernel for current NGWFs:
   iter  |      energy (Eh)       | rms gradient |  commutator  |   dE (Eh)
    1        -1.762768521929E+04     1.4133E-06     7.1382E-07
    2        -1.762768522150E+04     8.0367E-07     4.0591E-07    -2.2086E-06
    3        -1.762768522337E+04     8.6928E-07     4.3905E-07    -1.8755E-06
    4        -1.762768522621E+04     1.3261E-06     6.6980E-07    -2.8403E-06
    5        -1.762768522801E+04     9.2311E-07     4.6624E-07    -1.8004E-06
Finished density kernel iterations (   5)

Writing density kernel to file "Cr2I6_bilayer_HT_AFM_AFM_SP.dkn" ... done


>>> Density kernel optimised for the current NGWF basis:
     ~~~~~~~~~~~~~~~~~~~~~~~~~~~~~~~~~~~~~~~~~~~~~~~~~~~~~~~~~~~
     Total energy                =  -1.76276852280125E+04  Eh
     Estimated bandgap (UP spin) =   4.0750E-02  Eh
     Estimated bandgap (DN spin) =   4.0826E-02  Eh
     RMS occupancy error         =   7.3155E-16
     [H,K] commutator            =   4.6624E-07
     UP spin occupancy bounds    = [  0.000:  1.000]
     DN spin occupancy bounds    = [ -0.000:  1.000]
     ~~~~~~~~~~~~~~~~~~~~~~~~~~~~~~~~~~~~~~~~~~~~~~~~~~~~~~~~~~~




################################################################################
########################### NGWF CG iteration  002 #############################
################################################################################

>>> Checking for convergence of NGWFs:   NOT CONVERGED
  ========================================================================
         NGWF RMS gradient =  4.9093E-07 <  1.0000E-06  | CONVERGED
  Maximum change in energy =  2.5363E-07 >  1.0000E-07  | above tolerance
  ========================================================================

>>> Improving NGWFs using line search:
  ========================================================================
   Predicted total energy    =      -1.76276841345766E+04 Eh
   Predicted gain in energy  =       1.09343583608279E-03 Eh
  ========================================================================

Writing NGWFs to file "Cr2I6_bilayer_HT_AFM_AFM_SP.tightbox_ngwfs".... done

>>> Optimising kernel for current NGWFs:
   iter  |      energy (Eh)       | rms gradient |  commutator  |   dE (Eh)
    1        -1.762767640196E+04     3.2058E-05     1.6192E-05
    2        -1.762767882570E+04     2.2858E-05     1.1545E-05    -2.4237E-03
    3        -1.762767935665E+04     1.4743E-05     7.4465E-06    -5.3095E-04
    4        -1.762767961877E+04     5.9423E-06     3.0013E-06    -2.6212E-04
    5        -1.762767965454E+04     2.9731E-06     1.5016E-06    -3.5770E-05
Finished density kernel iterations (   5)

Writing density kernel to file "Cr2I6_bilayer_HT_AFM_AFM_SP.dkn" ... done


>>> Density kernel optimised for the current NGWF basis:
     ~~~~~~~~~~~~~~~~~~~~~~~~~~~~~~~~~~~~~~~~~~~~~~~~~~~~~~~~~~~
     Total energy                =  -1.76276796545415E+04  Eh
     Estimated bandgap (UP spin) =   4.0725E-02  Eh
     Estimated bandgap (DN spin) =   4.0796E-02  Eh
     RMS occupancy error         =   7.5601E-13
     [H,K] commutator            =   1.5016E-06
     UP spin occupancy bounds    = [  0.000:  1.000]
     DN spin occupancy bounds    = [  0.000:  1.000]
     ~~~~~~~~~~~~~~~~~~~~~~~~~~~~~~~~~~~~~~~~~~~~~~~~~~~~~~~~~~~




################################################################################
########################### NGWF CG iteration  003 #############################
################################################################################

>>> Checking for convergence of NGWFs:   NOT CONVERGED
  ========================================================================
         NGWF RMS gradient =  3.1560E-06 >  1.0000E-06  | above tolerance
  Maximum change in energy =  9.6762E-06 >  1.0000E-07  | above tolerance
  ========================================================================

>>> Improving NGWFs using line search:
  ========================================================================
   Predicted total energy    =      -1.76276826959302E+04 Eh
   Predicted gain in energy  =      -3.04138866704307E-03 Eh
  ========================================================================

Writing NGWFs to file "Cr2I6_bilayer_HT_AFM_AFM_SP.tightbox_ngwfs".... done

>>> Optimising kernel for current NGWFs:
   iter  |      energy (Eh)       | rms gradient |  commutator  |   dE (Eh)
    1        -1.762768268056E+04     2.9994E-06     1.5149E-06
    2        -1.762768269548E+04     2.1475E-06     1.0846E-06    -1.4920E-05
    3        -1.762768270316E+04     1.2801E-06     6.4656E-07    -7.6861E-06
    4        -1.762768270530E+04     7.2686E-07     3.6712E-07    -2.1336E-06
    5        -1.762768270578E+04     5.2462E-07     2.6497E-07    -4.8393E-07
    6        -1.762768270573E+04     4.3980E-07     2.2213E-07     4.8993E-08
Finished density kernel iterations (   6)

Writing density kernel to file "Cr2I6_bilayer_HT_AFM_AFM_SP.dkn" ... done


>>> Density kernel optimised for the current NGWF basis:
     ~~~~~~~~~~~~~~~~~~~~~~~~~~~~~~~~~~~~~~~~~~~~~~~~~~~~~~~~~~~
     Total energy                =  -1.76276827057303E+04  Eh
     Estimated bandgap (UP spin) =   4.0730E-02  Eh
     Estimated bandgap (DN spin) =   4.0808E-02  Eh
     RMS occupancy error         =   5.9809E-16
     [H,K] commutator            =   2.2213E-07
     UP spin occupancy bounds    = [  0.000:  1.000]
     DN spin occupancy bounds    = [  0.000:  1.000]
     ~~~~~~~~~~~~~~~~~~~~~~~~~~~~~~~~~~~~~~~~~~~~~~~~~~~~~~~~~~~




################################################################################
########################### NGWF CG iteration  004 #############################
################################################################################

>>> Checking for convergence of NGWFs:   NOT CONVERGED
  ========================================================================
         NGWF RMS gradient =  8.4874E-07 <  1.0000E-06  | CONVERGED
  Maximum change in energy =  9.6762E-06 >  1.0000E-07  | above tolerance
  ========================================================================

>>> Improving NGWFs using line search:
  ========================================================================
   Predicted total energy    =      -1.76276828930519E+04 Eh
   Predicted gain in energy  =      -1.87321653356776E-04 Eh
  ========================================================================

Writing NGWFs to file "Cr2I6_bilayer_HT_AFM_AFM_SP.tightbox_ngwfs".... done

>>> Optimising kernel for current NGWFs:
   iter  |      energy (Eh)       | rms gradient |  commutator  |   dE (Eh)
    1        -1.762768287485E+04     1.6074E-06     8.1185E-07
    2        -1.762768287679E+04     1.1225E-06     5.6697E-07    -1.9366E-06
    3        -1.762768287805E+04     7.8652E-07     3.9725E-07    -1.2646E-06
    4        -1.762768287921E+04     5.3713E-07     2.7129E-07    -1.1618E-06
    5        -1.762768288101E+04     4.1537E-07     2.0979E-07    -1.7973E-06
    6        -1.762768288235E+04     5.4879E-07     2.7718E-07    -1.3359E-06
Finished density kernel iterations (   6)

Writing density kernel to file "Cr2I6_bilayer_HT_AFM_AFM_SP.dkn" ... done


>>> Density kernel optimised for the current NGWF basis:
     ~~~~~~~~~~~~~~~~~~~~~~~~~~~~~~~~~~~~~~~~~~~~~~~~~~~~~~~~~~~
     Total energy                =  -1.76276828823469E+04  Eh
     Estimated bandgap (UP spin) =   4.0846E-02  Eh
     Estimated bandgap (DN spin) =   4.0814E-02  Eh
     RMS occupancy error         =   1.0077E-15
     [H,K] commutator            =   2.7718E-07
     UP spin occupancy bounds    = [  0.000:  1.000]
     DN spin occupancy bounds    = [  0.000:  1.000]
     ~~~~~~~~~~~~~~~~~~~~~~~~~~~~~~~~~~~~~~~~~~~~~~~~~~~~~~~~~~~




################################################################################
########################### NGWF CG iteration  005 #############################
################################################################################

>>> Checking for convergence of NGWFs:   NOT CONVERGED
  ========================================================================
         NGWF RMS gradient =  5.2920E-07 <  1.0000E-06  | CONVERGED
  Maximum change in energy =  5.2972E-06 >  1.0000E-07  | above tolerance
  ========================================================================

>>> Improving NGWFs using line search:
WARNING in services_line_search_parabola:
  quadratic step (  -34.76547) too large - setting to safe value
value at zero =***********
linear_term=   -1.50977
quadratic_term=   -0.00935
trial_length=    0.65616
pscale= 8330.34238
  ========================================================================
   Predicted total energy    =      -1.76276828823232E+04 Eh
   Predicted gain in energy  =       2.36177584156394E-08 Eh
  ========================================================================

Writing NGWFs to file "Cr2I6_bilayer_HT_AFM_AFM_SP.tightbox_ngwfs".... done

>>> Optimising kernel for current NGWFs:
   iter  |      energy (Eh)       | rms gradient |  commutator  |   dE (Eh)
    1        -1.762768288230E+04     5.4910E-07     2.7734E-07
    2        -1.762768288225E+04     3.2095E-07     1.6210E-07     5.0430E-08
    3        -1.762768288220E+04     2.9689E-07     1.4995E-07     5.5490E-08
    4        -1.762768288216E+04     2.8537E-07     1.4413E-07     3.7628E-08
    5        -1.762768288214E+04     2.7951E-07     1.4117E-07     2.1493E-08
    6        -1.762768288212E+04     2.7652E-07     1.3967E-07     1.1350E-08
Finished density kernel iterations (   6)

Writing density kernel to file "Cr2I6_bilayer_HT_AFM_AFM_SP.dkn" ... done


>>> Density kernel optimised for the current NGWF basis:
     ~~~~~~~~~~~~~~~~~~~~~~~~~~~~~~~~~~~~~~~~~~~~~~~~~~~~~~~~~~~
     Total energy                =  -1.76276828821249E+04  Eh
     Estimated bandgap (UP spin) =   4.0816E-02  Eh
     Estimated bandgap (DN spin) =   4.0745E-02  Eh
     RMS occupancy error         =   3.9898E-16
     [H,K] commutator            =   1.3967E-07
     UP spin occupancy bounds    = [ -0.000:  1.000]
     DN spin occupancy bounds    = [  0.000:  1.000]
     ~~~~~~~~~~~~~~~~~~~~~~~~~~~~~~~~~~~~~~~~~~~~~~~~~~~~~~~~~~~




################################################################################
########################### NGWF CG iteration  006 #############################
################################################################################

>>> Checking for convergence of NGWFs:   NOT CONVERGED
  ========================================================================
         NGWF RMS gradient =  5.2793E-07 <  1.0000E-06  | CONVERGED
  Maximum change in energy =  3.0663E-07 >  1.0000E-07  | above tolerance
  ========================================================================

>>> Improving NGWFs using line search:
WARNING in services_line_search_parabola:
  quadratic step (  -23.74043) too large - setting to safe value
value at zero =***********
linear_term=   -1.50324
quadratic_term=   -0.01363
trial_length=    0.65616
pscale= 4119.35359
  ========================================================================
   Predicted total energy    =      -1.76276828819055E+04 Eh
   Predicted gain in energy  =       2.19435605686158E-07 Eh
  ========================================================================

Writing NGWFs to file "Cr2I6_bilayer_HT_AFM_AFM_SP.tightbox_ngwfs".... done

>>> Optimising kernel for current NGWFs:
   iter  |      energy (Eh)       | rms gradient |  commutator  |   dE (Eh)
    1        -1.762768288170E+04     2.7992E-07     1.4138E-07
    2        -1.762768288170E+04     2.7960E-07     1.4122E-07     1.1823E-09
    3        -1.762768288170E+04     2.7932E-07     1.4108E-07     9.8589E-10
    4        -1.762768288170E+04     2.7914E-07     1.4099E-07     6.4756E-10
[...]
*    I     435      0.00564016   0.00001505  -0.00812980 *
*    I     436     -0.00304497  -0.00509855  -0.00734259 *
*    I     437     -0.00305186   0.00513068  -0.00733950 *
*    I     438     -0.00581366  -0.00000807   0.01002881 *
*    I     439      0.00285784   0.00509875   0.01005141 *
*    I     440      0.00285945  -0.00512760   0.01005044 *
*    Cr    441      0.00000329  -0.00023103   0.00000582 *
*    Cr    442     -0.00002497   0.00020899   0.00001003 *
*    I     443      0.00579858   0.00000996  -0.01003023 *
*    I     444     -0.00286656  -0.00509515  -0.01005397 *
*    I     445     -0.00287564   0.00512210  -0.01004824 *
*    I     446     -0.00565549  -0.00001690   0.00813347 *
*    I     447      0.00303445   0.00509774   0.00734154 *
*    I     448      0.00303386  -0.00513766   0.00734252 *
*    Cr    449      0.00035031  -0.00002469   0.00001404 *
*    Cr    450     -0.00002161   0.00020963  -0.00000731 *
*    I     451      0.00563897   0.00002171  -0.00812552 *
*    I     452     -0.00303643  -0.00509478  -0.00734034 *
*    I     453     -0.00305335   0.00513145  -0.00734003 *
*    I     454     -0.00581071  -0.00000468   0.01002564 *
*    I     455      0.00286147   0.00509061   0.01004744 *
*    I     456      0.00285850  -0.00512545   0.01005047 *
*    Cr    457      0.00000016  -0.00022443   0.00000717 *
*    Cr    458     -0.00002250   0.00020834   0.00000379 *
*    I     459      0.00580096   0.00001292  -0.01003212 *
*    I     460     -0.00286696  -0.00509118  -0.01005530 *
*    I     461     -0.00287398   0.00512613  -0.01005253 *
*    I     462     -0.00565435  -0.00001660   0.00813432 *
*    I     463      0.00303234   0.00509583   0.00734370 *
*    I     464      0.00303740  -0.00512941   0.00734041 *
*    Cr    465      0.00033035  -0.00003918   0.00001282 *
*    Cr    466      0.00025794   0.00004976  -0.00000039 *
*    I     467      0.00564491   0.00001918  -0.00813081 *
*    I     468     -0.00304358  -0.00509281  -0.00734232 *
*    I     469     -0.00304508   0.00513438  -0.00733719 *
*    I     470     -0.00581898  -0.00001437   0.01003105 *
*    I     471      0.00285560   0.00509663   0.01005052 *
*    I     472      0.00286279  -0.00512583   0.01004792 *
*    Cr    473      0.00000301  -0.00021736   0.00000774 *
*    Cr    474     -0.00002985   0.00021838   0.00000760 *
*    I     475      0.00580189   0.00001383  -0.01003233 *
*    I     476     -0.00286856  -0.00509157  -0.01005621 *
*    I     477     -0.00287185   0.00512587  -0.01005306 *
*    I     478     -0.00565277  -0.00001347   0.00813457 *
*    I     479      0.00303252   0.00509586   0.00734438 *
*    I     480      0.00303828  -0.00512869   0.00733873 *
*    Cr    481     -0.00000025  -0.00022144  -0.00000931 *
*    Cr    482      0.00035796  -0.00000428   0.00000265 *
*    I     483      0.00564708   0.00001732  -0.00813339 *
*    I     484     -0.00304690  -0.00509129  -0.00734385 *
*    I     485     -0.00304633   0.00512990  -0.00733529 *
*    I     486     -0.00581742  -0.00000866   0.01002743 *
*    I     487      0.00285143   0.00509659   0.01005179 *
*    I     488      0.00286136  -0.00512225   0.01004275 *
*    Cr    489      0.00000162  -0.00021015   0.00000821 *
*    Cr    490     -0.00001885   0.00022541   0.00000909 *
*    I     491      0.00579702   0.00001075  -0.01003018 *
*    I     492     -0.00286800  -0.00509345  -0.01005342 *
*    I     493     -0.00287549   0.00512163  -0.01005328 *
*    I     494     -0.00565206  -0.00001294   0.00813317 *
*    I     495      0.00303341   0.00509431   0.00734300 *
*    I     496      0.00303630  -0.00513235   0.00734152 *
*    Cr    497      0.00000524  -0.00021648  -0.00000661 *
*    Cr    498     -0.00001025   0.00022052  -0.00000636 *
*    I     499      0.00564227   0.00001157  -0.00812687 *
*    I     500     -0.00304359  -0.00509731  -0.00734284 *
*    I     501     -0.00305025   0.00513343  -0.00734355 *
*    I     502     -0.00581344  -0.00001358   0.01002447 *
*    I     503      0.00285620   0.00509127   0.01005252 *
*    I     504      0.00285993  -0.00512410   0.01005180 *
*    Cr    505     -0.00000684  -0.00019665   0.00000386 *
*    Cr    506     -0.00002224   0.00023127   0.00000963 *
*    I     507      0.00580015   0.00000866  -0.01003141 *
*    I     508     -0.00286932  -0.00509442  -0.01005488 *
*    I     509     -0.00287708   0.00512377  -0.01005004 *
*    I     510     -0.00565489  -0.00001481   0.00813565 *
*    I     511      0.00303224   0.00509388   0.00734304 *
*    I     512      0.00303784  -0.00513357   0.00733977 *
*    Cr    513      0.00002548  -0.00023805  -0.00000667 *
*    Cr    514     -0.00001248   0.00022494  -0.00000684 *
*    I     515      0.00563995   0.00001594  -0.00813119 *
*    I     516     -0.00304312  -0.00509971  -0.00734246 *
*    I     517     -0.00305708   0.00512567  -0.00733766 *
*    I     518     -0.00581615  -0.00000999   0.01002930 *
*    I     519      0.00285871   0.00509557   0.01005218 *
*    I     520      0.00285326  -0.00512895   0.01004844 *
*    Cr    521     -0.00000521  -0.00020553   0.00000873 *
*    Cr    522     -0.00000407   0.00021798   0.00000427 *
*    I     523      0.00579967   0.00000989  -0.01002883 *
*    I     524     -0.00286926  -0.00509515  -0.01005493 *
*    I     525     -0.00288126   0.00512497  -0.01004993 *
*    I     526     -0.00565883  -0.00001699   0.00813442 *
*    I     527      0.00303288   0.00509702   0.00734366 *
*    I     528      0.00303491  -0.00514147   0.00734154 *
*    Cr    529      0.00000364  -0.00024200  -0.00000692 *
*    Cr    530     -0.00001892   0.00021276  -0.00000921 *
*    I     531      0.00563967   0.00001350  -0.00813157 *
*    I     532     -0.00304527  -0.00509930  -0.00734269 *
*    I     533     -0.00305355   0.00513185  -0.00734327 *
*    I     534     -0.00581485  -0.00001066   0.01003016 *
*    I     535      0.00285724   0.00509586   0.01005336 *
*    I     536      0.00285922  -0.00512788   0.01005301 *
*    Cr    537      0.00000564  -0.00022386   0.00000728 *
*    Cr    538     -0.00000464   0.00020958   0.00000401 *
*    I     539      0.00580461   0.00001433  -0.01003254 *
*    I     540     -0.00286769  -0.00509323  -0.01005381 *
*    I     541     -0.00287347   0.00512868  -0.01005205 *
*    I     542     -0.00565953  -0.00001485   0.00813552 *
*    I     543      0.00303265   0.00509595   0.00734068 *
*    I     544      0.00303690  -0.00513384   0.00734073 *
*    Cr    545      0.00000331  -0.00023695  -0.00000638 *
*    Cr    546     -0.00002119   0.00020816  -0.00000923 *
*    I     547      0.00564185   0.00001795  -0.00813342 *
*    I     548     -0.00304702  -0.00509448  -0.00734486 *
*    I     549     -0.00305508   0.00512673  -0.00733874 *
*    I     550     -0.00581780  -0.00001558   0.01003257 *
*    I     551      0.00285625   0.00509657   0.01005459 *
*    I     552      0.00285020  -0.00513078   0.01005220 *
*    Cr    553      0.00001218  -0.00022668   0.00000767 *
*    Cr    554     -0.00001823   0.00021207   0.00000954 *
*    I     555      0.00580037   0.00001481  -0.01003254 *
*    I     556     -0.00286647  -0.00509267  -0.01005658 *
*    I     557     -0.00287324   0.00512768  -0.01005300 *
*    I     558     -0.00565320  -0.00001093   0.00813128 *
*    I     559      0.00303219   0.00509614   0.00734392 *
*    I     560      0.00303596  -0.00512946   0.00734071 *
*    Cr    561     -0.00000494  -0.00021928  -0.00001173 *
*    Cr    562     -0.00002245   0.00020905  -0.00000803 *
*    I     563      0.00564456   0.00002024  -0.00813425 *
*    I     564     -0.00304526  -0.00509335  -0.00734509 *
*    I     565     -0.00304972   0.00513894  -0.00734607 *
*    I     566     -0.00581516  -0.00001163   0.01003098 *
*    I     567      0.00285619   0.00509616   0.01005362 *
*    I     568      0.00286021  -0.00512737   0.01005176 *
*    Cr    569      0.00000689  -0.00021522   0.00000985 *
*    Cr    570     -0.00001869   0.00022105   0.00000857 *
*    I     571      0.00579922   0.00001086  -0.01003197 *
*    I     572     -0.00286751  -0.00509233  -0.01005557 *
*    I     573     -0.00287466   0.00512345  -0.01005215 *
*    I     574     -0.00565345  -0.00001136   0.00813424 *
*    I     575      0.00303293   0.00509695   0.00734229 *
*    I     576      0.00303908  -0.00512927   0.00734138 *
*                                                        *
**********************************************************
* TOTAL:           -0.00000000   0.00000000   0.00000000 *
**********************************************************
 
 
***********************************************************
********** Summary of Forces (values in Eh/a) *************
*                                                         *
* ---------------------- Minimum ------------------------ *
* Atom:       505, |F|min =    0.00019681                 *
* Components:     Fx|min       Fy|min       Fz|min        *
*              -0.00000684  -0.00019665   0.00000386      *
*                                                         *
* ---------------------- Maximum ------------------------ *
* Atom:       381, |F|max =    0.01165105                 *
* Components:     Fx|max       Fy|max       Fz|max        *
*              -0.00287057   0.00513447  -0.01005704      *
*                                                         *
* ---------------- Root Mean Square Force --------------- *
*                  |F|rms =    0.00923239                 *
* Components:     Fx|rms       Fy|rms       Fz|rms        *
*               0.00354553   0.00361646   0.00771930      *
***********************************************************
 

------------------------------ TIMING INFORMATION ------------------------------
AVERAGE TIME:    9328.564s on    180 proc(s)                                    
TOTAL TIME:      9328.564s on    180 proc(s)                                    
==================== AVERAGE TIMINGS FROM ALL PROCS (CUMULATIVE) =====================
|| TAG                                         #calls     cpu time   %total  Gflops ||
|| linalg_dsyev_lt                            :     1        0.00s   0.000%  ------ || (1 procs only)
|| hubbard_species_proj                       :     1        0.00s   0.000%  ------ ||
|| sw_bessel_init_cpu                         :     1        0.01s   0.000%  ------ || (1 procs only)
|| hash_table_free                            :    16        0.00s   0.000%  ------ ||
|| density_fftbox_interp_mult_imbal           :  3486        0.00s   0.000%  ------ ||
|| hubbard_projector_character                :     1        0.00s   0.000%  ------ ||
|| hubbard_ngwf_select                        :     1        0.00s   0.000%  ------ ||
|| hubbard_ngwf_on_grid                       :     1        0.00s   0.000%  ------ ||
|| sparse_spam3toblacs_real_fast_imbal        :    10        0.00s   0.000%  ------ ||
|| sparse_blacstospam3_real_fast_imbal        :    24        0.01s   0.000%  ------ ||
|| ewald_calculate_forces_realspace           :     1        0.01s   0.000%  ------ ||
|| linalg_invert_sym_matrix                   :     4        0.01s   0.000%  ------ || (144 procs only)
|| hubbard_tensorial_correction               :     2        0.01s   0.000%  ------ ||
|| onetep.F90 final imbalance                 :     1        0.01s   0.000%  ------ ||
|| paw_dij_hartree                            :    87        0.02s   0.000%  ------ ||
|| sparse_set_to_garbage                      :   344        0.02s   0.000%  ------ ||
|| sparse_spam3toblacs_real_fast_B2           :  1800        0.02s   0.000%  ------ ||
|| linalg_dgemv                               :    27        0.02s   0.000%  ------ ||
|| onetep.F90 main loop imbalance             :     1        0.04s   0.000%  ------ ||
|| ewald_calculate_energy                     :     1        0.04s   0.000%  ------ ||
|| ewald_calculate_forces_recipspace          :     1        0.06s   0.001%  ------ ||
|| sw_init                                    :   164        0.08s   0.001%  ------ ||
|| pseudo_make_structure_factor               :     1        0.11s   0.001%  ------ ||
|| basis_extract_function_from_box            :   600        0.13s   0.001%  ------ ||
|| ewald_calculate_forces                     :     1        0.16s   0.002%  ------ ||
|| restart_hamiltonian_write                  :     1        0.28s   0.003%  ------ ||
|| augmentation_density_forces                :     1        0.31s   0.003%  ------ ||
|| restart_kernel_read                        :     1        0.33s   0.003%  ------ ||
|| hubbard_projection_mtx                     :    18        0.39s   0.004%  ------ ||
|| paw_tcore_hartree_calc_forces              :     1        0.42s   0.005%  ------ ||
|| paw_tcore_hartree_on_grid                  :     1        0.60s   0.006%  ------ ||
|| sparse_spam3toblacs_real_fast_B1           :  1800        0.89s   0.010%  ------ ||
|| sparse_spam3toblacs_real_fast              :    10        0.97s   0.010%  ------ ||
|| paw_nlcc_calculate_forces                  :     1        1.16s   0.012%  ------ ||
|| hubbard_ham_matrix                         :    37        1.18s   0.013%  ------ ||
|| ngwfs_initialise_from_radial               :     2        1.19s   0.013%  ------ ||
|| paw_tcore_density                          :     1        1.24s   0.013%  ------ ||
|| dense_eigensolve                           :     2        1.26s   0.014%  ------ ||
|| paw_sphere_density_on_grid                 :     1        1.44s   0.015%  ------ ||
|| restart_kernel_write                       :     6        1.50s   0.016%  ------ ||
|| hubbard_projector_ham                      :    37        1.54s   0.016%  ------ ||
|| paw_dataset_init                           :     2        1.66s   0.018%  ------ ||
|| sparse_init                                :     1        1.93s   0.021%  ------ ||
|| nonsc_forces_ngwfs_calc                    :     1        3.25s   0.035%  ------ ||
|| sparse_blacstospam3_real_fast              :    24        3.49s   0.037%  ------ ||
|| fourier_filter_cell                        :    88        3.51s   0.038% 444.701 ||
|| hartree_on_grid_single                     :    81        5.00s   0.054%  ------ ||
|| paw_species_calc_proj_prec_mat             :     1        5.90s   0.063%  ------ ||
|| sparse_embed_array_hotelling_invert        :    16        6.70s   0.072%  ------ ||
|| basis_copy_function_to_box                 :  6208        6.94s   0.074%  ------ ||
|| sparse_trace                               :  2454        7.08s   0.076%  ------ ||
|| ngwf_gradient_coeffs                       :     7        7.28s   0.078%  ------ ||
|| restart_ngwfs_tightbox_input               :     1        8.13s   0.087%  ------ ||
|| hubbard_energy_total                       :    79        8.63s   0.093%  ------ ||
|| fourier_apply_box_pair                     :   918        8.69s   0.093%  7.419k ||
|| fourier_interpolate_cell                   :   166       10.84s   0.116% 271.570 ||
|| kernel_fix                                 :    35       13.38s   0.143%  ------ ||
|| augmentation_screen_dij_spam3              :    80       14.71s   0.158%  ------ ||
|| energy_and_force_init_cell                 :     1       14.97s   0.160%  ------ ||
|| paw_dij_xc                                 :    87       17.28s   0.185%  ------ ||
|| kernel_purify                              :   120       18.35s   0.197%  ------ ||
|| lnv_gradient_norm                          :    35       18.66s   0.200%  ------ ||
|| aug_nonlocal_mat_spam3_embed_array         :    79       19.88s   0.213%  ------ ||
|| fourier_apply_cell_backward                :   730       20.44s   0.219% 569.825 ||
|| hubbard_calculate_forces                   :     1       20.65s   0.221%  ------ ||
|| integrals_grad_spam3                       :     4       23.78s   0.255%  ------ ||
|| fourier_apply_cell_forward                 :   730       24.74s   0.265% 470.781 ||
|| hubbard_projector_update                   :     1       29.04s   0.311%  ------ ||
|| projectors_func_grad_ovlp_box_spam3        :     6       33.63s   0.361%  ------ ||
|| aug_nl_calculate_forces                    :     1       34.85s   0.374%  ------ ||
|| hamiltonian_energy_components              :     1       35.39s   0.379%  ------ ||
|| fourier_filter                             :  1049       36.42s   0.390%  ------ ||
|| aug_density_on_grid_spam3                  :    83       40.65s   0.436%  ------ ||
|| eigenstates_calculate                      :     1       40.82s   0.438%  ------ ||
|| xc_energy_potential                        :    81       46.10s   0.494%  ------ ||
|| cell_grid_deposit_box_real                 :  4835       47.81s   0.513%  ------ ||
|| fourier_interpolate                        :  1049       56.66s   0.607%  ------ ||
|| projectors_init_fftbox_recip               :   161       56.68s   0.608%  ------ ||
|| sparse_product                             :  5258      107.47s   1.152%  ------ ||
|| forces_calculate                           :     1      128.30s   1.375%  ------ ||
|| function_ops_brappd_ketppd_spam3           :    68      144.18s   1.546%  ------ ||
|| restart_ngwfs_tightbox_output              :     6      195.17s   2.092%  ------ ||
|| cell_grid_extract_box_real                 :  2773      224.99s   2.412%  ------ ||
|| projectors_func_ovlp_box_spam3             :    70      233.16s   2.499%  ------ ||
|| basis_dot_function_with_box                : 3.774M     264.04s   2.830%  ------ ||
|| density_fftbox_deposit_to_cell             :  3486      272.54s   2.922%  ------ ||
|| integrals_kinetic_spam3                    :    32      318.00s   3.409%  ------ ||
|| potential_apply_to_ngwf_batch              :   148      407.62s   4.370%  ------ ||
|| projectors_gradient_batch                  :    56      495.64s   5.313%  ------ ||
|| fourier_apply_box                          : 18366      507.38s   5.439%  8.259k ||
|| fourier_interpolate_product                :  3320      551.70s   5.914%  ------ ||
|| properties_calculate                       :     1      565.06s   6.057%  ------ ||
|| density_fftbox_interpolate_multiply        :  3486      573.48s   6.148%  ------ ||
|| basis_add_function_to_box                  : 7.810M     635.56s   6.813%  ------ ||
|| integrals_locpot_mat_els_batch             :   148      704.02s   7.547%  ------ ||
|| integrals_locpot_dbl_grid                  :    74     1118.18s  11.987%  ------ ||
|| density_batch_interp_deposit               :   332     1216.30s  13.038%  ------ ||
|| projectors_grad_precond_batch              :    28     1364.00s  14.622%  ------ ||
|| density_batch_row_sums                     :   332     1447.77s  15.520%  ------ ||
|| ngwf_gradient_build_batch                  :    28     2158.19s  23.135%  ------ ||
|| density_on_dbl_grid                        :   166     2752.78s  29.509%  ------ ||
|| hamiltonian_lhxc_calculate                 :    79     2770.32s  29.697%  ------ ||
|| ngwf_gradient_batch                        :    28     3311.21s  35.495%  ------ ||
|| lnv_denskernel_optimise_cg                 :     6     3517.19s  37.703%  ------ ||
|| ngwf_gradient_lnv                          :     7     3603.53s  38.629%  ------ ||
|| ngwf_cg_optimise                           :     1     8513.57s  91.263%  ------ ||
|| energy_and_forces                          :     1     9312.21s  99.825%  ------ ||
|| total_time                                 :     1     9328.56s 100.000%  ------ ||
======================================================================================
Overhead of generating timer report: 
- 0 ms averaging over threads,
- 12 ms ensuring consistency across MPI ranks,
- 2 ms printing in order.

Job completed: 01-06-2025 02:03 (+0100)

onetep_launcher: ONETEP seems to have finished correctly (zero exit code).
                 Brought to you by PID 150199 on nid001517.
