==================================================================================
It's Sat 26 Oct 2024 12:07:08 PM BST.
*** Starting onetep_launcher (node nid004597, PIDs 36179 36180 36181 36182 36183 36185 36186)...
    - ONETEP arguments: Cr2I6_bilayer_HT_AFM_AFM_nSP.dat
    - Current directory: /mnt/lustre/a2fs-work3/work/e89/e89/phsmea/CrI3_onetep_U/U_2.97/HT_AFM/HT_AFM_AFM/nsp-ngwfs
    - Launcher executable directory: /mnt/lustre/a2fs-work3/work/e89/e89/phsmea/CrI3_onetep_U/U_2.97/HT_AFM/HT_AFM_AFM/nsp-ngwfs
    - (-e) ONETEP executable specified through command-line: /work/e89/e89/phsmea/onetep.archer2_2024_cray
      ... trying /work/e89/e89/phsmea/onetep.archer2_2024_cray
          -> looks OK
*** Setting up environment...
    - (-s) Process stack size: unlimited
    - (-t) OMP_NUM_THREADS: 16
    - (-o) OMP_STACKSIZE: 64M
    - (-c) Maximum core file size: 2048000
    - (-d) decfort_dump_flag: n
    - (-m) I_MPI_OFA_TRANSLATION_CACHE: 0
    - (-m) I_MPI_DAPL_TRANSLATION_CACHE: 0
    - (-m) I_MPI_DAPL_UD_TRANSLATION_CACHE: 0
*** Starting ONETEP...
    - /work/e89/e89/phsmea/onetep.archer2_2024_cray Cr2I6_bilayer_HT_AFM_AFM_nSP.dat
=================================================================================
_________________________________________________________________________________
 +---------------------------------------------------------------+
 |                                                               |
 |        ####### #     # ####### ####### ####### ######         |
 |        #     # ##    # #          #    #       #     #        |
 |        #     # # #   # #          #    #       #     #        |
 |        #     # #  #  # #####      #    #####   ######         |
 |        #     # #   # # #          #    #       #              |
 |        #     # #    ## #          #    #       #              |
 |        ####### #     # #######    #    ####### #              |
 |                                                               |
 |        Linear-Scaling Ab Initio Total Energy Program          |
 |                                                               |
 |          Release for academic collaborators of ODG            |
 |                                             Version 7.3.0     |
 | Remote: git@github.com:Miesaz/onetep_mea.git                  |
 | Local branch: master                                          |
 | Commit ID: 4af45e89288c8df5499704252eec3e032ee3d0c8           |
 | Date: Tue Aug 6 11:28:44 2024 +0100                           |
 | Working tree clean                                            |
 |                                                               |
 +---------------------------------------------------------------+
 |                                                               |
 |  Authors:                                                     |
 |  Jacek Dziedzic, Peter D. Haynes, Nicholas D. M. Hine,        |
 |  Arash A. Mostofi, Mike C. Payne and Chris-Kriton Skylaris    |
 |                                                               |
 |  Contributors:                                                |
 |  J. Aarons, L. Andrinopoulos, P. W. Avraam, R. A. Bell,       |
 |  A. Bhandari, G. A. Bramley, R. J. Charlton, S. J. Clark,     |
 |  R. J. Clements, G. C. Constantinescu, F. Corsetti,           |
 |  N. Corsini, O. Dieguez, S. M. M. Dubois, K. K. B. Duff,      |
 |  J. M. Escartin, M. Escobar Azor, A. Greco,                   |
 |  H. Helal, Q. O. Hill, L. P. Lee, J.-H. Li,                   |
 |  T. Li, E. B. Linscott, G. Moynihan, D. D. O`Regan,           |
 |  O. K. Okan, E. Parkinson, M. J. S. Phipps,                   |
 |  C. J. Pickard, J. C. A. Prentice, M. I. J. Probert,          |
 |  L. E. Ratcliff, M. Robinson, A. Ruiz Serrano,                |
 |  M. dos Santos Dias, J. S. Spencer, E. W. Tait,               |
 |  G. Teobaldi, D. Turban, V. Vitale, K. A. Wilkinson,          |
 |  C. Weber, J. C. Womack, Chengcheng Xiao, N. Yeung,           |
 |  and T. J. Zuehlsdorff.                                       |
 |                                                               |
 |                                   Copyright (c) 2004-2024     |
 |                                                               |
 |  Please cite:                                                 |
 |  "The ONETEP linear-scaling density functional theory program"|
 |   J. Chem. Phys. 152(17) 174111 (2020)                        |
 |                                                               |
 |          in all publications arising from your use of ONETEP. |
 |                                                               |
 +---------------------------------------------------------------+
 |                                                               |
 |   ONETEP is based on developments described in the following  |
 |   publications:                                               |
 |                                                               |
 |  "Nonorthogonal generalized Wannier function pseudopotential  |
 |   plane-wave method".                                         |
 |   C.-K. Skylaris, A. A. Mostofi, P. D. Haynes, O. Dieguez,    |
 |   M. C. Payne.                                                |
 |   Phys. Rev. B 66 035119 (2002).                              |
 |                                                               |
 |  "Preconditioned iterative minimization for linear-scaling    |
 |   electronic structure calculations".                         |
 |   A. A. Mostofi, P. D. Haynes, C.-K. Skylaris, M. C. Payne.   |
 |   J. Chem. Phys. 119(17), pp.8842-8848 (2003).                |
 |                                                               |
 |  "Total-energy calculations on a real space grid with         |
 |   localized functions and a plane-wave basis".                |
 |   A. A. Mostofi, C.-K. Skylaris, P. D. Haynes, M. C. Payne.   |
 |   Comput. Phys. Commun. 147, pp.788-802 (2002).               |
 |                                                               |
 |  "Accurate kinetic energy evaluation in electronic structure  |
 |   calculations with localized functions on real space grids"  |
 |   C.-K. Skylaris, A. A. Mostofi, P. D. Haynes, C. J. Pickard, |
 |   M. C. Payne.                                                |
 |   Comput. Phys. Commun. 140, pp.315-322 (2001).               |
 |                                                               |
 |  "Accurate ionic forces and geometry optimization in linear-  |
 |   scaling density-functional theory with local orbitals"      |
 |   N. D. M. Hine, M. Robinson, P. D. Haynes, C.-K. Skylaris,   |
 |   M. C. Payne, and A. A. Mostofi.                             |
 |   Phys. Rev. B 83 195102 (2011).                              |
 |                                                               |
 +---------------------------------------------------------------+

Job started: 26-10-2024 12:07 (+0100)
 
Reading parameters from file "Cr2I6_bilayer_HT_AFM_AFM_nSP.dat" ...... done

If your calculation crashes here, before "Checking processes and threads..."
is displayed, then your stack size is insufficient.
If so, use "ulimit -s unlimited" at runtime.
You can disable this check with "check_stack_size F".

Checking processes and threads...
      Default threads: 16
   Running with 175 MPI processes.
   There are 7 MPI processes running on the same node as the root process.
   Each MPI process is using: 
               1 threads for simulation cell FFTs.
               1 threads for threaded FFT box operations.
              16 threads for loops over batched FFT box operations.
              16 threads in other parallel regions.
   MPI Interface: S1 (use mpi_f08) (-DMPI -DUSE_MPI_F08).
   MPI_ASYNC_PROTECTS_NONBLOCKING: Yes. MPI_SUBARRAYS_SUPPORTED: Yes.
   FFTW Interface: OMP-capable and MODERN. (-DUSE_MODERN_FFTW specified).
   GPU Interface: None.
   GPU FFT Backend: None.
... done

Basic input checks...... done

Reading geometry and species blocks from file "Cr2I6_bilayer_HT_AFM_AFM_nSP.dat" ...... done


--------------------------------------------------------------------------------
---------------------------------- INPUT FILE ----------------------------------
--------------------------------------------------------------------------------

charge : 0                                                                      
cutoff_energy : 1000 eV                                                         
do_properties : T                                                               
edft : F                                                                        
edft_init_maxit : 5                                                             
elec_energy_tol : 2e-07 Ha                                                      
fine_grid_scale : 4                                                             
forces_output_detail : VERBOSE                                                  
maxit_ngwf_cg : 100                                                             
ngwf_threshold_orig : 1e-06                                                     
ngwfs_spin_polarized : F                                                        
output_detail : NORMAL                                                          
paw : T                                                                         
read_denskern : T                                                               
read_hamiltonian : T                                                            
read_tightbox_ngwfs : T                                                         
spin : 0                                                                        
spin_polarized : T                                                              
task : SinglePoint                                                              
write_denskern : T                                                              
write_forces : T                                                                
write_hamiltonian : T                                                           
write_tightbox_ngwfs : T                                                        
xc_functional : PBE                                                             
%BLOCK LATTICE_CART                                                             
ang                                                                             
41.261892132       0.000000000000000        0.000000000000000                   
-20.630946066       35.733846792             0.000000000000000                  
0.000000000000000   0.0000000000000000       27.507928088                       
%ENDBLOCK LATTICE_CART                                                          
%BLOCK POSITIONS_ABS                                                            
ang                                                                             
Cr       5.73012301       1.98615267      15.61475195                           
Cr       2.29163200       3.96948846      15.61475241                           
I        6.71804295      -0.00001318      14.06395847                           
I        3.51661508       2.12334657      14.07089707                           
I        0.07814689       3.83230774      14.07089707                           
I        4.74445508      -0.00001140      17.15723785                           
I        4.50489604       3.83201918      17.15707434                           
I        1.06642478       2.12363336      17.15707434                           
Cr1      3.43917878       1.98613277       9.03123330                           
Cr1      0.00068777       3.96950836       9.03123376                           
I        4.42486276      -0.00001318       7.48874545                           
I        1.22590088       2.12363241       7.48890841                           
I       -2.21256731       3.83202190       7.48890841                           
I        2.45126709      -0.00001140      10.58202506                           
I        2.21418512       3.83230199      10.57507890                           
I       -1.22428614       2.12335055      10.57507890                           
Cr       2.29163200       7.94179381      15.61475195                           
Cr      -1.14685901       9.92512959      15.61475241                           
I        3.27955194       5.95562795      14.06395847                           
I        0.07812407       8.07898770      14.07089707                           
I       -3.36034412       9.78794887      14.07089707                           
I        1.30596407       5.95562973      17.15723785                           
I        1.06640503       9.78766031      17.15707434                           
I       -2.37206623       8.07927449      17.15707434                           
Cr1      0.00068777       7.94177390       9.03123330                           
Cr1     -3.43780324       9.92514949       9.03123376                           
I        0.98637175       5.95562795       7.48874545                           
I       -2.21259013       8.07927354       7.48890841                           
I       -5.65105832       9.78766304       7.48890841                           
I       -0.98722392       5.95562973      10.58202506                           
I       -1.22430589       9.78794313      10.57507890                           
I       -4.66277715       8.07899168      10.57507890                           
Cr      -1.14685901      13.89743494      15.61475195                           
Cr      -4.58535002      15.88077072      15.61475241                           
I       -0.15893907      11.91126908      14.06395847                           
I       -3.36036694      14.03462883      14.07089707                           
I       -6.79883513      15.74359001      14.07089707                           
I       -2.13252694      11.91127086      17.15723785                           
I       -2.37208598      15.74330145      17.15707434                           
I       -5.81055724      14.03491562      17.15707434                           
Cr1     -3.43780324      13.89741504       9.03123330                           
Cr1     -6.87629425      15.88079062       9.03123376                           
I       -2.45211926      11.91126908       7.48874545                           
I       -5.65108114      14.03491467       7.48890841                           
I       -9.08954933      15.74330417       7.48890841                           
I       -4.42571493      11.91127086      10.58202506                           
I       -4.66279691      15.74358426      10.57507890                           
I       -8.10126817      14.03463281      10.57507890                           
Cr      -4.58535002      19.85307607      15.61475195                           
Cr      -8.02384103      21.83641185      15.61475241                           
I       -3.59743008      17.86691022      14.06395847                           
I       -6.79885795      19.99026996      14.07089707                           
I      -10.23732614      21.69923114      14.07089707                           
I       -5.57101795      17.86691200      17.15723785                           
I       -5.81057699      21.69894258      17.15707434                           
I       -9.24904825      19.99055675      17.15707434                           
Cr1     -6.87629425      19.85305617       9.03123330                           
Cr1    -10.31478526      21.83643175       9.03123376                           
I       -5.89061027      17.86691022       7.48874545                           
I       -9.08957216      19.99055580       7.48890841                           
I      -12.52804035      21.69894530       7.48890841                           
I       -7.86420594      17.86691200      10.58202506                           
I       -8.10128792      21.69922539      10.57507890                           
I      -11.53975918      19.99027394      10.57507890                           
Cr      -8.02384103      25.80871720      15.61475195                           
Cr     -11.46233204      27.79205298      15.61475241                           
I       -7.03592109      23.82255135      14.06395847                           
I      -10.23734897      25.94591110      14.07089707                           
I      -13.67581716      27.65487227      14.07089707                           
I       -9.00950896      23.82255313      17.15723785                           
I       -9.24906800      27.65458371      17.15707434                           
I      -12.68753926      25.94619789      17.15707434                           
Cr1    -10.31478526      25.80869730       9.03123330                           
Cr1    -13.75327627      27.79207289       9.03123376                           
I       -9.32910128      23.82255135       7.48874545                           
I      -12.52806317      25.94619693       7.48890841                           
I      -15.96653136      27.65458643       7.48890841                           
I      -11.30269695      23.82255313      10.58202506                           
I      -11.53977893      27.65486652      10.57507890                           
I      -14.97825019      25.94591507      10.57507890                           
Cr     -11.46233205      31.76435833      15.61475195                           
Cr     -14.90082306      33.74769412      15.61475241                           
I      -10.47441210      29.77819248      14.06395847                           
I      -13.67583998      31.90155223      14.07089707                           
I      -17.11430817      33.61051340      14.07089707                           
I      -12.44799997      29.77819426      17.15723785                           
I      -12.68755901      33.61022484      17.15707434                           
I      -16.12603027      31.90183902      17.15707434                           
Cr1    -13.75327627      31.76433843       9.03123330                           
Cr1    -17.19176728      33.74771402       9.03123376                           
I      -12.76759229      29.77819248       7.48874545                           
I      -15.96655418      31.90183807       7.48890841                           
I      -19.40502237      33.61022756       7.48890841                           
I      -14.74118796      29.77819426      10.58202506                           
I      -14.97826994      33.61050765      10.57507890                           
I      -18.41674120      31.90155621      10.57507890                           
Cr      12.60710503       1.98615267      15.61475195                           
Cr       9.16861402       3.96948846      15.61475241                           
I       13.59502497      -0.00001318      14.06395847                           
I       10.39359710       2.12334657      14.07089707                           
I        6.95512891       3.83230774      14.07089707                           
I       11.62143710      -0.00001140      17.15723785                           
I       11.38187806       3.83201918      17.15707434                           
I        7.94340680       2.12363336      17.15707434                           
Cr1     10.31616080       1.98613277       9.03123330                           
Cr1      6.87766979       3.96950836       9.03123376                           
I       11.30184479      -0.00001318       7.48874545                           
I        8.10288290       2.12363241       7.48890841                           
I        4.66441471       3.83202190       7.48890841                           
I        9.32824912      -0.00001140      10.58202506                           
I        9.09116714       3.83230199      10.57507890                           
I        5.65269588       2.12335055      10.57507890                           
Cr       9.16861402       7.94179381      15.61475195                           
Cr       5.73012301       9.92512959      15.61475241                           
I       10.15653396       5.95562795      14.06395847                           
I        6.95510609       8.07898770      14.07089707                           
I        3.51663790       9.78794887      14.07089707                           
I        8.18294609       5.95562973      17.15723785                           
I        7.94338705       9.78766031      17.15707434                           
I        4.50491579       8.07927449      17.15707434                           
Cr1      6.87766979       7.94177390       9.03123330                           
Cr1      3.43917878       9.92514949       9.03123376                           
I        7.86335378       5.95562795       7.48874545                           
I        4.66439189       8.07927354       7.48890841                           
I        1.22592370       9.78766304       7.48890841                           
I        5.88975810       5.95562973      10.58202506                           
I        5.65267613       9.78794313      10.57507890                           
I        2.21420487       8.07899168      10.57507890                           
Cr       5.73012301      13.89743494      15.61475195                           
Cr       2.29163200      15.88077072      15.61475241                           
I        6.71804295      11.91126908      14.06395847                           
I        3.51661508      14.03462883      14.07089707                           
I        0.07814689      15.74359001      14.07089707                           
I        4.74445508      11.91127086      17.15723785                           
I        4.50489604      15.74330145      17.15707434                           
I        1.06642478      14.03491562      17.15707434                           
Cr1      3.43917878      13.89741504       9.03123330                           
Cr1      0.00068777      15.88079062       9.03123376                           
I        4.42486276      11.91126908       7.48874545                           
I        1.22590088      14.03491467       7.48890841                           
I       -2.21256731      15.74330417       7.48890841                           
I        2.45126709      11.91127086      10.58202506                           
I        2.21418512      15.74358426      10.57507890                           
I       -1.22428614      14.03463281      10.57507890                           
Cr       2.29163200      19.85307607      15.61475195                           
Cr      -1.14685901      21.83641185      15.61475241                           
I        3.27955194      17.86691022      14.06395847                           
I        0.07812407      19.99026996      14.07089707                           
I       -3.36034412      21.69923114      14.07089707                           
I        1.30596407      17.86691200      17.15723785                           
I        1.06640503      21.69894258      17.15707434                           
I       -2.37206623      19.99055675      17.15707434                           
Cr1      0.00068777      19.85305617       9.03123330                           
Cr1     -3.43780324      21.83643175       9.03123376                           
I        0.98637175      17.86691022       7.48874545                           
I       -2.21259013      19.99055580       7.48890841                           
I       -5.65105832      21.69894530       7.48890841                           
I       -0.98722392      17.86691200      10.58202506                           
I       -1.22430589      21.69922539      10.57507890                           
I       -4.66277715      19.99027394      10.57507890                           
Cr      -1.14685901      25.80871720      15.61475195                           
Cr      -4.58535002      27.79205298      15.61475241                           
I       -0.15893907      23.82255135      14.06395847                           
I       -3.36036694      25.94591110      14.07089707                           
I       -6.79883513      27.65487227      14.07089707                           
I       -2.13252694      23.82255313      17.15723785                           
I       -2.37208598      27.65458371      17.15707434                           
I       -5.81055724      25.94619789      17.15707434                           
Cr1     -3.43780324      25.80869730       9.03123330                           
Cr1     -6.87629425      27.79207289       9.03123376                           
I       -2.45211926      23.82255135       7.48874545                           
I       -5.65108114      25.94619693       7.48890841                           
I       -9.08954933      27.65458643       7.48890841                           
I       -4.42571493      23.82255313      10.58202506                           
I       -4.66279691      27.65486652      10.57507890                           
I       -8.10126817      25.94591507      10.57507890                           
Cr      -4.58535002      31.76435833      15.61475195                           
Cr      -8.02384103      33.74769412      15.61475241                           
I       -3.59743008      29.77819248      14.06395847                           
I       -6.79885795      31.90155223      14.07089707                           
I      -10.23732614      33.61051340      14.07089707                           
I       -5.57101795      29.77819426      17.15723785                           
I       -5.81057699      33.61022484      17.15707434                           
I       -9.24904825      31.90183902      17.15707434                           
Cr1     -6.87629425      31.76433843       9.03123330                           
Cr1    -10.31478526      33.74771402       9.03123376                           
I       -5.89061027      29.77819248       7.48874545                           
I       -9.08957216      31.90183807       7.48890841                           
I      -12.52804035      33.61022756       7.48890841                           
I       -7.86420594      29.77819426      10.58202506                           
I       -8.10128792      33.61050765      10.57507890                           
I      -11.53975918      31.90155621      10.57507890                           
Cr      19.48408705       1.98615267      15.61475195                           
Cr      16.04559604       3.96948846      15.61475241                           
I       20.47200700      -0.00001318      14.06395847                           
I       17.27057912       2.12334657      14.07089707                           
I       13.83211093       3.83230774      14.07089707                           
I       18.49841912      -0.00001140      17.15723785                           
I       18.25886009       3.83201918      17.15707434                           
I       14.82038883       2.12363336      17.15707434                           
Cr1     17.19314283       1.98613277       9.03123330                           
Cr1     13.75465182       3.96950836       9.03123376                           
I       18.17882681      -0.00001318       7.48874545                           
I       14.97986492       2.12363241       7.48890841                           
I       11.54139673       3.83202190       7.48890841                           
I       16.20523114      -0.00001140      10.58202506                           
I       15.96814916       3.83230199      10.57507890                           
I       12.52967790       2.12335055      10.57507890                           
Cr      16.04559604       7.94179381      15.61475195                           
Cr      12.60710503       9.92512959      15.61475241                           
I       17.03351599       5.95562795      14.06395847                           
I       13.83208811       8.07898770      14.07089707                           
I       10.39361992       9.78794887      14.07089707                           
I       15.05992811       5.95562973      17.15723785                           
I       14.82036907       9.78766031      17.15707434                           
I       11.38189781       8.07927449      17.15707434                           
Cr1     13.75465181       7.94177390       9.03123330                           
Cr1     10.31616080       9.92514949       9.03123376                           
I       14.74033580       5.95562795       7.48874545                           
I       11.54137391       8.07927354       7.48890841                           
I        8.10290572       9.78766304       7.48890841                           
I       12.76674013       5.95562973      10.58202506                           
I       12.52965815       9.78794313      10.57507890                           
I        9.09118689       8.07899168      10.57507890                           
Cr      12.60710503      13.89743494      15.61475195                           
Cr       9.16861402      15.88077072      15.61475241                           
I       13.59502497      11.91126908      14.06395847                           
I       10.39359710      14.03462883      14.07089707                           
I        6.95512891      15.74359001      14.07089707                           
I       11.62143710      11.91127086      17.15723785                           
I       11.38187806      15.74330145      17.15707434                           
I        7.94340680      14.03491562      17.15707434                           
Cr1     10.31616080      13.89741504       9.03123330                           
Cr1      6.87766979      15.88079062       9.03123376                           
I       11.30184479      11.91126908       7.48874545                           
I        8.10288290      14.03491467       7.48890841                           
I        4.66441471      15.74330417       7.48890841                           
I        9.32824912      11.91127086      10.58202506                           
I        9.09116714      15.74358426      10.57507890                           
I        5.65269588      14.03463281      10.57507890                           
Cr       9.16861402      19.85307607      15.61475195                           
Cr       5.73012301      21.83641185      15.61475241                           
I       10.15653396      17.86691022      14.06395847                           
I        6.95510609      19.99026996      14.07089707                           
I        3.51663790      21.69923114      14.07089707                           
I        8.18294609      17.86691200      17.15723785                           
I        7.94338705      21.69894258      17.15707434                           
I        4.50491579      19.99055675      17.15707434                           
Cr1      6.87766979      19.85305617       9.03123330                           
Cr1      3.43917878      21.83643175       9.03123376                           
I        7.86335378      17.86691022       7.48874545                           
I        4.66439189      19.99055580       7.48890841                           
I        1.22592370      21.69894530       7.48890841                           
I        5.88975810      17.86691200      10.58202506                           
I        5.65267613      21.69922539      10.57507890                           
I        2.21420487      19.99027394      10.57507890                           
Cr       5.73012301      25.80871720      15.61475195                           
Cr       2.29163200      27.79205298      15.61475241                           
I        6.71804295      23.82255135      14.06395847                           
I        3.51661508      25.94591110      14.07089707                           
I        0.07814689      27.65487227      14.07089707                           
I        4.74445508      23.82255313      17.15723785                           
I        4.50489604      27.65458371      17.15707434                           
I        1.06642478      25.94619789      17.15707434                           
Cr1      3.43917878      25.80869730       9.03123330                           
Cr1      0.00068777      27.79207289       9.03123376                           
I        4.42486276      23.82255135       7.48874545                           
I        1.22590088      25.94619693       7.48890841                           
I       -2.21256731      27.65458643       7.48890841                           
I        2.45126709      23.82255313      10.58202506                           
I        2.21418512      27.65486652      10.57507890                           
I       -1.22428614      25.94591507      10.57507890                           
Cr       2.29163200      31.76435833      15.61475195                           
Cr      -1.14685901      33.74769412      15.61475241                           
I        3.27955194      29.77819248      14.06395847                           
I        0.07812407      31.90155223      14.07089707                           
I       -3.36034412      33.61051340      14.07089707                           
I        1.30596407      29.77819426      17.15723785                           
I        1.06640503      33.61022484      17.15707434                           
I       -2.37206623      31.90183902      17.15707434                           
Cr1      0.00068777      31.76433843       9.03123330                           
Cr1     -3.43780324      33.74771402       9.03123376                           
I        0.98637175      29.77819248       7.48874545                           
I       -2.21259013      31.90183807       7.48890841                           
I       -5.65105832      33.61022756       7.48890841                           
I       -0.98722392      29.77819426      10.58202506                           
I       -1.22430589      33.61050765      10.57507890                           
I       -4.66277715      31.90155621      10.57507890                           
Cr      26.36106908       1.98615267      15.61475195                           
Cr      22.92257807       3.96948846      15.61475241                           
I       27.34898902      -0.00001318      14.06395847                           
I       24.14756114       2.12334657      14.07089707                           
I       20.70909295       3.83230774      14.07089707                           
I       25.37540115      -0.00001140      17.15723785                           
I       25.13584211       3.83201918      17.15707434                           
I       21.69737085       2.12363336      17.15707434                           
Cr1     24.07012485       1.98613277       9.03123330                           
Cr1     20.63163384       3.96950836       9.03123376                           
I       25.05580883      -0.00001318       7.48874545                           
I       21.85684694       2.12363241       7.48890841                           
I       18.41837875       3.83202190       7.48890841                           
I       23.08221316      -0.00001140      10.58202506                           
I       22.84513118       3.83230199      10.57507890                           
I       19.40665992       2.12335055      10.57507890                           
Cr      22.92257806       7.94179381      15.61475195                           
Cr      19.48408705       9.92512959      15.61475241                           
I       23.91049801       5.95562795      14.06395847                           
I       20.70907013       8.07898770      14.07089707                           
I       17.27060194       9.78794887      14.07089707                           
I       21.93691014       5.95562973      17.15723785                           
I       21.69735110       9.78766031      17.15707434                           
I       18.25887984       8.07927449      17.15707434                           
Cr1     20.63163384       7.94177390       9.03123330                           
Cr1     17.19314283       9.92514949       9.03123376                           
I       21.61731782       5.95562795       7.48874545                           
I       18.41835593       8.07927354       7.48890841                           
I       14.97988774       9.78766304       7.48890841                           
I       19.64372215       5.95562973      10.58202506                           
I       19.40664017       9.78794313      10.57507890                           
I       15.96816891       8.07899168      10.57507890                           
Cr      19.48408705      13.89743494      15.61475195                           
Cr      16.04559604      15.88077072      15.61475241                           
I       20.47200700      11.91126908      14.06395847                           
I       17.27057912      14.03462883      14.07089707                           
I       13.83211093      15.74359001      14.07089707                           
I       18.49841912      11.91127086      17.15723785                           
I       18.25886009      15.74330145      17.15707434                           
I       14.82038883      14.03491562      17.15707434                           
Cr1     17.19314283      13.89741504       9.03123330                           
Cr1     13.75465182      15.88079062       9.03123376                           
I       18.17882681      11.91126908       7.48874545                           
I       14.97986492      14.03491467       7.48890841                           
I       11.54139673      15.74330417       7.48890841                           
I       16.20523114      11.91127086      10.58202506                           
I       15.96814916      15.74358426      10.57507890                           
I       12.52967790      14.03463281      10.57507890                           
Cr      16.04559604      19.85307607      15.61475195                           
Cr      12.60710503      21.83641185      15.61475241                           
I       17.03351599      17.86691022      14.06395847                           
I       13.83208811      19.99026996      14.07089707                           
I       10.39361992      21.69923114      14.07089707                           
I       15.05992811      17.86691200      17.15723785                           
I       14.82036907      21.69894258      17.15707434                           
I       11.38189781      19.99055675      17.15707434                           
Cr1     13.75465181      19.85305617       9.03123330                           
Cr1     10.31616080      21.83643175       9.03123376                           
I       14.74033580      17.86691022       7.48874545                           
I       11.54137391      19.99055580       7.48890841                           
I        8.10290572      21.69894530       7.48890841                           
I       12.76674013      17.86691200      10.58202506                           
I       12.52965815      21.69922539      10.57507890                           
I        9.09118689      19.99027394      10.57507890                           
Cr      12.60710503      25.80871720      15.61475195                           
Cr       9.16861402      27.79205298      15.61475241                           
I       13.59502497      23.82255135      14.06395847                           
I       10.39359710      25.94591110      14.07089707                           
I        6.95512891      27.65487227      14.07089707                           
I       11.62143710      23.82255313      17.15723785                           
I       11.38187806      27.65458371      17.15707434                           
I        7.94340680      25.94619789      17.15707434                           
Cr1     10.31616080      25.80869730       9.03123330                           
Cr1      6.87766979      27.79207289       9.03123376                           
I       11.30184479      23.82255135       7.48874545                           
I        8.10288290      25.94619693       7.48890841                           
I        4.66441471      27.65458643       7.48890841                           
I        9.32824912      23.82255313      10.58202506                           
I        9.09116714      27.65486652      10.57507890                           
I        5.65269588      25.94591507      10.57507890                           
Cr       9.16861402      31.76435833      15.61475195                           
Cr       5.73012301      33.74769412      15.61475241                           
I       10.15653396      29.77819248      14.06395847                           
I        6.95510609      31.90155223      14.07089707                           
I        3.51663790      33.61051340      14.07089707                           
I        8.18294609      29.77819426      17.15723785                           
I        7.94338705      33.61022484      17.15707434                           
I        4.50491579      31.90183902      17.15707434                           
Cr1      6.87766979      31.76433843       9.03123330                           
Cr1      3.43917878      33.74771402       9.03123376                           
I        7.86335378      29.77819248       7.48874545                           
I        4.66439189      31.90183807       7.48890841                           
I        1.22592370      33.61022756       7.48890841                           
I        5.88975810      29.77819426      10.58202506                           
I        5.65267613      33.61050765      10.57507890                           
I        2.21420487      31.90155621      10.57507890                           
Cr      33.23805110       1.98615267      15.61475195                           
Cr      29.79956009       3.96948846      15.61475241                           
I       34.22597104      -0.00001318      14.06395847                           
I       31.02454317       2.12334657      14.07089707                           
I       27.58607498       3.83230774      14.07089707                           
I       32.25238317      -0.00001140      17.15723785                           
I       32.01282413       3.83201918      17.15707434                           
I       28.57435287       2.12363336      17.15707434                           
Cr1     30.94710687       1.98613277       9.03123330                           
Cr1     27.50861586       3.96950836       9.03123376                           
I       31.93279085      -0.00001318       7.48874545                           
I       28.73382897       2.12363241       7.48890841                           
I       25.29536078       3.83202190       7.48890841                           
I       29.95919518      -0.00001140      10.58202506                           
I       29.72211320       3.83230199      10.57507890                           
I       26.28364194       2.12335055      10.57507890                           
Cr      29.79956009       7.94179381      15.61475195                           
Cr      26.36106908       9.92512959      15.61475241                           
I       30.78748003       5.95562795      14.06395847                           
I       27.58605216       8.07898770      14.07089707                           
I       24.14758397       9.78794887      14.07089707                           
I       28.81389216       5.95562973      17.15723785                           
I       28.57433312       9.78766031      17.15707434                           
I       25.13586186       8.07927449      17.15707434                           
Cr1     27.50861586       7.94177390       9.03123330                           
Cr1     24.07012485       9.92514949       9.03123376                           
I       28.49429984       5.95562795       7.48874545                           
I       25.29533795       8.07927354       7.48890841                           
I       21.85686976       9.78766304       7.48890841                           
I       26.52070417       5.95562973      10.58202506                           
I       26.28362219       9.78794313      10.57507890                           
I       22.84515093       8.07899168      10.57507890                           
Cr      26.36106908      13.89743494      15.61475195                           
Cr      22.92257807      15.88077072      15.61475241                           
I       27.34898902      11.91126908      14.06395847                           
I       24.14756114      14.03462883      14.07089707                           
I       20.70909295      15.74359001      14.07089707                           
I       25.37540115      11.91127086      17.15723785                           
I       25.13584211      15.74330145      17.15707434                           
I       21.69737085      14.03491562      17.15707434                           
Cr1     24.07012485      13.89741504       9.03123330                           
Cr1     20.63163384      15.88079062       9.03123376                           
I       25.05580883      11.91126908       7.48874545                           
I       21.85684694      14.03491467       7.48890841                           
I       18.41837875      15.74330417       7.48890841                           
I       23.08221316      11.91127086      10.58202506                           
I       22.84513118      15.74358426      10.57507890                           
I       19.40665992      14.03463281      10.57507890                           
Cr      22.92257806      19.85307607      15.61475195                           
Cr      19.48408705      21.83641185      15.61475241                           
I       23.91049801      17.86691022      14.06395847                           
I       20.70907013      19.99026996      14.07089707                           
I       17.27060194      21.69923114      14.07089707                           
I       21.93691014      17.86691200      17.15723785                           
I       21.69735110      21.69894258      17.15707434                           
I       18.25887984      19.99055675      17.15707434                           
Cr1     20.63163384      19.85305617       9.03123330                           
Cr1     17.19314283      21.83643175       9.03123376                           
I       21.61731782      17.86691022       7.48874545                           
I       18.41835593      19.99055580       7.48890841                           
I       14.97988774      21.69894530       7.48890841                           
I       19.64372215      17.86691200      10.58202506                           
I       19.40664017      21.69922539      10.57507890                           
I       15.96816891      19.99027394      10.57507890                           
Cr      19.48408705      25.80871720      15.61475195                           
Cr      16.04559604      27.79205298      15.61475241                           
I       20.47200700      23.82255135      14.06395847                           
I       17.27057912      25.94591110      14.07089707                           
I       13.83211093      27.65487227      14.07089707                           
I       18.49841912      23.82255313      17.15723785                           
I       18.25886009      27.65458371      17.15707434                           
I       14.82038883      25.94619789      17.15707434                           
Cr1     17.19314283      25.80869730       9.03123330                           
Cr1     13.75465182      27.79207289       9.03123376                           
I       18.17882681      23.82255135       7.48874545                           
I       14.97986492      25.94619693       7.48890841                           
I       11.54139673      27.65458643       7.48890841                           
I       16.20523114      23.82255313      10.58202506                           
I       15.96814916      27.65486652      10.57507890                           
I       12.52967790      25.94591507      10.57507890                           
Cr      16.04559604      31.76435833      15.61475195                           
Cr      12.60710503      33.74769412      15.61475241                           
I       17.03351599      29.77819248      14.06395847                           
I       13.83208811      31.90155223      14.07089707                           
I       10.39361992      33.61051340      14.07089707                           
I       15.05992811      29.77819426      17.15723785                           
I       14.82036907      33.61022484      17.15707434                           
I       11.38189781      31.90183902      17.15707434                           
Cr1     13.75465181      31.76433843       9.03123330                           
Cr1     10.31616080      33.74771402       9.03123376                           
I       14.74033580      29.77819248       7.48874545                           
I       11.54137391      31.90183807       7.48890841                           
I        8.10290572      33.61022756       7.48890841                           
I       12.76674013      29.77819426      10.58202506                           
I       12.52965815      33.61050765      10.57507890                           
I        9.09118689      31.90155621      10.57507890                           
Cr      40.11503312       1.98615267      15.61475195                           
Cr      36.67654211       3.96948846      15.61475241                           
I       41.10295306      -0.00001318      14.06395847                           
I       37.90152519       2.12334657      14.07089707                           
I       34.46305700       3.83230774      14.07089707                           
I       39.12936519      -0.00001140      17.15723785                           
I       38.88980615       3.83201918      17.15707434                           
I       35.45133489       2.12363336      17.15707434                           
Cr1     37.82408889       1.98613277       9.03123330                           
Cr1     34.38559788       3.96950836       9.03123376                           
I       38.80977287      -0.00001318       7.48874545                           
I       35.61081099       2.12363241       7.48890841                           
I       32.17234280       3.83202190       7.48890841                           
I       36.83617720      -0.00001140      10.58202506                           
I       36.59909523       3.83230199      10.57507890                           
I       33.16062397       2.12335055      10.57507890                           
Cr      36.67654211       7.94179381      15.61475195                           
Cr      33.23805110       9.92512959      15.61475241                           
I       37.66446205       5.95562795      14.06395847                           
I       34.46303418       8.07898770      14.07089707                           
I       31.02456599       9.78794887      14.07089707                           
I       35.69087418       5.95562973      17.15723785                           
I       35.45131514       9.78766031      17.15707434                           
I       32.01284388       8.07927449      17.15707434                           
Cr1     34.38559788       7.94177390       9.03123330                           
Cr1     30.94710687       9.92514949       9.03123376                           
I       35.37128186       5.95562795       7.48874545                           
I       32.17231998       8.07927354       7.48890841                           
I       28.73385179       9.78766304       7.48890841                           
I       33.39768619       5.95562973      10.58202506                           
I       33.16060422       9.78794313      10.57507890                           
I       29.72213296       8.07899168      10.57507890                           
Cr      33.23805110      13.89743494      15.61475195                           
Cr      29.79956009      15.88077072      15.61475241                           
I       34.22597104      11.91126908      14.06395847                           
I       31.02454317      14.03462883      14.07089707                           
I       27.58607498      15.74359001      14.07089707                           
I       32.25238317      11.91127086      17.15723785                           
I       32.01282413      15.74330145      17.15707434                           
I       28.57435287      14.03491562      17.15707434                           
Cr1     30.94710687      13.89741504       9.03123330                           
Cr1     27.50861586      15.88079062       9.03123376                           
I       31.93279085      11.91126908       7.48874545                           
I       28.73382897      14.03491467       7.48890841                           
I       25.29536078      15.74330417       7.48890841                           
I       29.95919518      11.91127086      10.58202506                           
I       29.72211320      15.74358426      10.57507890                           
I       26.28364194      14.03463281      10.57507890                           
Cr      29.79956009      19.85307607      15.61475195                           
Cr      26.36106908      21.83641185      15.61475241                           
I       30.78748003      17.86691022      14.06395847                           
I       27.58605216      19.99026996      14.07089707                           
I       24.14758397      21.69923114      14.07089707                           
I       28.81389216      17.86691200      17.15723785                           
I       28.57433312      21.69894258      17.15707434                           
I       25.13586186      19.99055675      17.15707434                           
Cr1     27.50861586      19.85305617       9.03123330                           
Cr1     24.07012485      21.83643175       9.03123376                           
I       28.49429984      17.86691022       7.48874545                           
I       25.29533795      19.99055580       7.48890841                           
I       21.85686976      21.69894530       7.48890841                           
I       26.52070417      17.86691200      10.58202506                           
I       26.28362219      21.69922539      10.57507890                           
I       22.84515093      19.99027394      10.57507890                           
Cr      26.36106908      25.80871720      15.61475195                           
Cr      22.92257807      27.79205298      15.61475241                           
I       27.34898902      23.82255135      14.06395847                           
I       24.14756114      25.94591110      14.07089707                           
I       20.70909295      27.65487227      14.07089707                           
I       25.37540115      23.82255313      17.15723785                           
I       25.13584211      27.65458371      17.15707434                           
I       21.69737085      25.94619789      17.15707434                           
Cr1     24.07012485      25.80869730       9.03123330                           
Cr1     20.63163384      27.79207289       9.03123376                           
I       25.05580883      23.82255135       7.48874545                           
I       21.85684694      25.94619693       7.48890841                           
I       18.41837875      27.65458643       7.48890841                           
I       23.08221316      23.82255313      10.58202506                           
I       22.84513118      27.65486652      10.57507890                           
I       19.40665992      25.94591507      10.57507890                           
Cr      22.92257806      31.76435833      15.61475195                           
Cr      19.48408705      33.74769412      15.61475241                           
I       23.91049801      29.77819248      14.06395847                           
I       20.70907013      31.90155223      14.07089707                           
I       17.27060194      33.61051340      14.07089707                           
I       21.93691014      29.77819426      17.15723785                           
I       21.69735110      33.61022484      17.15707434                           
I       18.25887984      31.90183902      17.15707434                           
Cr1     20.63163384      31.76433843       9.03123330                           
Cr1     17.19314283      33.74771402       9.03123376                           
I       21.61731782      29.77819248       7.48874545                           
I       18.41835593      31.90183807       7.48890841                           
I       14.97988774      33.61022756       7.48890841                           
I       19.64372215      29.77819426      10.58202506                           
I       19.40664017      33.61050765      10.57507890                           
I       15.96816891      31.90155621      10.57507890                           
%ENDBLOCK POSITIONS_ABS                                                         
%BLOCK SPECIES                                                                  
Cr Cr 24 -1 15                                                                  
I   I  53 -1 15                                                                 
Cr1 Cr 24 -1 15                                                                 
%ENDBLOCK SPECIES                                                               
%BLOCK SPECIES_ATOMIC_SET                                                       
Cr "SOLVE INIT SPIN=3"                                                          
I   "SOLVE"                                                                     
Cr1 "SOLVE INIT SPIN=-3"                                                        
%ENDBLOCK SPECIES_ATOMIC_SET                                                    
%BLOCK HUBBARD                                                                  
Cr  2 2.97 0.0 -10.0 0.00 0.0                                                   
Cr1 2 2.97 0.0 -10.0 0.00 0.0                                                   
%ENDBLOCK HUBBARD                                                               
%BLOCK SPECIES_LDOS_GROUPS                                                      
Cr                                                                              
I                                                                               
Cr1                                                                             
%ENDBLOCK SPECIES_LDOS_GROUPS                                                   
%BLOCK SPECIES_POT                                                              
Cr  "../../../../Cr.PBE-paw.abinit"                                             
I   "../../../../I.PBE-paw.abinit"                                              
Cr1 "../../../../Cr.PBE-paw.abinit"                                             
%ENDBLOCK SPECIES_POT                                                           

--------------------------------------------------------------------------------
-------------------------------- END INPUT FILE --------------------------------
--------------------------------------------------------------------------------


 
 ESDF WARNING(1): "charge" (esdf_physical) has no units. Assume "e".
<<<<<<<<<<<<<<<<<<<<<<<<<<<<<<<<< Full system >>>>>>>>>>>>>>>>>>>>>>>>>>>>>>>>>>
<<<<<<<<<<<<<<<<<<<<<<<<<<< PAW Dataset information >>>>>>>>>>>>>>>>>>>>>>>>>>>
File: ../../../../Cr.PBE-paw.abinit; rc = 2.11 bohr; shape type =  2; rshape = 1.80 bohr;
  Atomic number: 24;  ionic charge: 14.000000
    Partial Wave 1: l = 0
    Partial Wave 2: l = 0
    Partial Wave 3: l = 1
    Partial Wave 4: l = 1
    Partial Wave 5: l = 2
    Partial Wave 6: l = 2
  Core charge supplied for Nonlinear Core Corrections
File: ../../../../I.PBE-paw.abinit; rc = 2.30 bohr; shape type =  2; rshape = 2.11 bohr;
  Atomic number: 53;  ionic charge:  7.000000
    Partial Wave 1: l = 0
    Partial Wave 2: l = 0
    Partial Wave 3: l = 1
    Partial Wave 4: l = 1
  Core charge supplied for Nonlinear Core Corrections
<<<<<<<<<<<<<<<<<<<<<<<<<<<<<<<<<<<<<<< >>>>>>>>>>>>>>>>>>>>>>>>>>>>>>>>>>>>>>>

-------------------------- Atom counting information ---------------------------
Symbol    Natoms    Nngwfs    Nprojs
  Cr       144      1872      2592
  I        432      1728      3456
.......   ......    ......    ......
Totals:    576      3600      6048
--------------------------------------------------------------------------------

=============================== PSINC grid sizes ===============================
                      Simulation cell:  175 x 175 x 117
                              FFT-box:  175 x 175 x 117
                                  PPD:    5 x   5 x   1
Grid space d1=  0.445563862424a0 (KE cutoff=  38.26345Eh =1041.20135eV)
Grid space d2=  0.445563862400a0 (KE cutoff=  38.26345Eh =1041.20135eV)
Grid space d3=  0.444294449711a0 (KE cutoff=  38.48241Eh =1047.15957eV)
================================================================================

********************* Fourier parallelisation information **********************
       Coarse grid (whole simulation cell) dimensions:    175   175   117
          Real-space ('12') slabs/proc (min max mean):      0     1     0
         Recip-space ('23') slabs/proc (min max mean):      0     1     0
********************************************************************************

********************* Fourier parallelisation information **********************
       Double grid (whole simulation cell) dimensions:    350   350   234
          Real-space ('12') slabs/proc (min max mean):      1     2     1
         Recip-space ('23') slabs/proc (min max mean):      1     2     1
********************************************************************************

********************* Fourier parallelisation information **********************
         Fine grid (whole simulation cell) dimensions:    700   700   468
          Real-space ('12') slabs/proc (min max mean):      2     3     2
         Recip-space ('23') slabs/proc (min max mean):      2     3     2
********************************************************************************
energy_and_force_init_cell: WARNING in internal_setup_spin:
        even number of electrons in cell and zero spin
        but continuing with spin-polarised calculation

Atom SCF Calculation for Cr : Z (AE atom) =  24 : Z (PS atom) =  14
Config String: 3s2.0 3p6.0 3d5.0 4s1.0 4p0.0 INIT SPIN=3
Orbitals (num,occ):  5     2.00 6.00 5.00 1.00 0.00
Orbitals   (num,l):  5        0    1    2    0    1
Atom SCF converged after  64 iterations to a total energy of    -87.07044631
Adjusting orbital occupancies:
Orbitals (num,spin,occ):  5  1     1.00 3.00 3.50 1.00 0.00
Orbitals   (num,spin,l):  5  1        0    1    2    0    1
Orbitals (num,spin,occ):  5  2     1.00 3.00 1.00 0.50 0.00
Orbitals   (num,spin,l):  5  2        0    1    2    0    1

Atom SCF Calculation for I  : Z (AE atom) =  53 : Z (PS atom) =   7
Config String: 5s2.0 5p5.0
Orbitals (num,occ):  2     2.00 5.00
Orbitals   (num,l):  2        0    1
Atom SCF converged after  28 iterations to a total energy of    -11.61352964

Atom SCF Calculation for Cr : Z (AE atom) =  24 : Z (PS atom) =  14
Config String: 3s2.0 3p6.0 3d5.0 4s1.0 4p0.0 INIT SPIN=-3
Orbitals (num,occ):  5     2.00 6.00 5.00 1.00 0.00
Orbitals   (num,l):  5        0    1    2    0    1
Atom SCF converged after  64 iterations to a total energy of    -87.07044631
Adjusting orbital occupancies:
Orbitals (num,spin,occ):  5  1     1.00 3.00 1.00 0.50 0.00
Orbitals   (num,spin,l):  5  1        0    1    2    0    1
Orbitals (num,spin,occ):  5  2     1.00 3.00 3.50 1.00 0.00
Orbitals   (num,spin,l):  5  2        0    1    2    0    1

Atom SCF Calculation for Cr : Z (AE atom) =  24 : Z (PS atom) =  14
Config String: 3s2.0 3p6.0 3d5.0 4s1.0 4p0.0 INIT SPIN=3
Orbitals (num,occ):  5     2.00 6.00 5.00 1.00 0.00
Orbitals   (num,l):  5        0    1    2    0    1
Atom SCF converged after  64 iterations to a total energy of    -87.07044631

Atom SCF Calculation for I  : Z (AE atom) =  53 : Z (PS atom) =   7
Config String: 5s2.0 5p5.0
Orbitals (num,occ):  2     2.00 5.00
Orbitals   (num,l):  2        0    1
Atom SCF converged after  28 iterations to a total energy of    -11.61352964

Atom SCF Calculation for Cr : Z (AE atom) =  24 : Z (PS atom) =  14
Config String: 3s2.0 3p6.0 3d5.0 4s1.0 4p0.0 INIT SPIN=-3
Orbitals (num,occ):  5     2.00 6.00 5.00 1.00 0.00
Orbitals   (num,l):  5        0    1    2    0    1
Atom SCF converged after  64 iterations to a total energy of    -87.07044631

Determining parallel strategy ...... done
Calculating Ewald energy ...            31475.177180 Hartree
Basis initialisation ...
... done

============================= Charge Augmentation ==============================
                           Aug box size:   49 x  49 x  45
================================================================================
Sparse matrix initialisation ...
 done

Reading NGWFs from file "Cr2I6_bilayer_HT_AFM_AFM_nSP.tightbox_ngwfs" ... done
 done

================================= Core Density =================================
               Core den box size:  125 x 125 x 105
================================================================================

Reading density kernel from file "Cr2I6_bilayer_HT_AFM_AFM_nSP.dkn" ... done

>>> Optimising kernel for current NGWFs:


>>> Density kernel optimised for the current NGWF basis:
     ~~~~~~~~~~~~~~~~~~~~~~~~~~~~~~~~~~~~~~~~~~~~~~~~~~~~~~~~~~~
     Total energy                =  -1.76273566992648E+04  Eh
     Estimated bandgap (UP spin) =   3.9874E-02  Eh
     Estimated bandgap (DN spin) =   3.9885E-02  Eh
     RMS occupancy error         =   5.3411E-16
     [H,K] commutator            =   2.5510E-07
     UP spin occupancy bounds    = [  0.000:  1.000]
     DN spin occupancy bounds    = [ -0.000:  1.000]
     ~~~~~~~~~~~~~~~~~~~~~~~~~~~~~~~~~~~~~~~~~~~~~~~~~~~~~~~~~~~




################################################################################
########################### NGWF CG iteration  001 #############################
################################################################################

>>> Checking for convergence of NGWFs:   NOT CONVERGED
  ========================================================================
         NGWF RMS gradient =  3.5905E-07 <  1.0000E-06  | CONVERGED
  ========================================================================

>>> Improving NGWFs using line search:
  ========================================================================
   Predicted total energy    =      -1.76273567346850E+04 Eh
   Predicted gain in energy  =      -3.54202129528858E-05 Eh
  ========================================================================

Writing NGWFs to file "Cr2I6_bilayer_HT_AFM_AFM_nSP.tightbox_ngwfs".... done

>>> Optimising kernel for current NGWFs:
   iter  |      energy (Eh)       | rms gradient |  commutator  |   dE (Eh)
    1        -1.762735673383E+04     9.6441E-07     4.8710E-07
    2        -1.762735673808E+04     1.1775E-06     5.9472E-07    -4.2535E-06
    3        -1.762735673873E+04     7.5313E-07     3.8039E-07    -6.4708E-07
    4        -1.762735673857E+04     5.9331E-07     2.9967E-07     1.5939E-07
    5        -1.762735673843E+04     5.1479E-07     2.6001E-07     1.3797E-07
Finished density kernel iterations (   5)

Writing density kernel to file "Cr2I6_bilayer_HT_AFM_AFM_nSP.dkn" ... done


>>> Density kernel optimised for the current NGWF basis:
     ~~~~~~~~~~~~~~~~~~~~~~~~~~~~~~~~~~~~~~~~~~~~~~~~~~~~~~~~~~~
     Total energy                =  -1.76273567384328E+04  Eh
     Estimated bandgap (UP spin) =   3.9921E-02  Eh
     Estimated bandgap (DN spin) =   3.9888E-02  Eh
     RMS occupancy error         =   5.3462E-16
     [H,K] commutator            =   2.6001E-07
     UP spin occupancy bounds    = [  0.000:  1.000]
     DN spin occupancy bounds    = [  0.000:  1.000]
     ~~~~~~~~~~~~~~~~~~~~~~~~~~~~~~~~~~~~~~~~~~~~~~~~~~~~~~~~~~~




################################################################################
########################### NGWF CG iteration  002 #############################
################################################################################

>>> Checking for convergence of NGWFs: 
           ........................................................
           |         *** NGWF optimisation converged ***          |
           | RMS NGWF gradient =    0.00000034014958              |
           | Maximum change in energy =  0.00000006800001 / atom  |
           | Criteria satisfied:                                  |
           | -> RMS NGWF gradient lower than set threshold.       |
           | -> Energy change per atom lower than set threshold.  |
           ========================================================

================================================================================
           ---------------- ENERGY COMPONENTS (Eh) ----------------
           | Kinetic                    :     3638.82004944483469 |
           | Core Hartree               :   -95375.01330646533460 |
           | CoreHart (non-coul chg cor):        0.00000000000000
           | Hartree                    :    46414.85104144980140 |
           | Exchange-correlation       :    -2497.77121368730832 |
           | Hubbard DFT+U correction   :        9.23576847924565 |
           | Ewald                      :    31475.17718035517460 |
           | Dij0                       :    -1104.00128470023583 |
           | Dijhartree                 :      496.89598014908688 |
           | Exc [AE core]              :   -84833.43708998893270 |
           | Exc DC [AE core]           :    -3281.49405717059108 |
           | Exc [PS core]              :    -2065.40626502240502 |
           | Exc DC [PS core]           :    -1965.81277678982815 |
           | Exc [Core]                 :   -82082.47987150846170 |
           | Total [Sphere]             :    -1292.65625800921407 |
           | Total                      :   -17627.35673843279800 |
           --------------------------------------------------------
           Integrated compensation chrg.:      379.63777845060940
           Integrated density           :     5039.99987139103905
           Integrated spin density      :       -0.00000000003553
           Integrated |spin density|    :      375.36366685216666
================================================================================


Writing Hamiltonian to file "Cr2I6_bilayer_HT_AFM_AFM_nSP.ham" ... done

                        <<<<< CALCULATION SUMMARY >>>>>                         
|ITER|    RMS GRADIENT   |     TOTAL ENERGY    |   step   |     Epredicted              
   0     0.00000035904828 -17627.35669926481570   0.421250 -17627.35673468502860        
   1     0.00000034014958 -17627.35673843281980  <-- CG                                 

################################################################################
DFT+U information on atom      1 of Hubbard species Cr  
################################################################################
Occupancy matrix of Hubbard site      1 and spin      1 is 
  m_l =   -2          -1           0           1           2
  0.91546085  0.11281820  0.00034950 -0.00045366  0.00009083
  0.11284830  0.82979823 -0.00048452  0.00078428 -0.00007455
  0.00034776 -0.00048186  0.99282839  0.00017056  0.00015815
 -0.00045228  0.00078400  0.00016995  0.83008446 -0.11270329
  0.00009054 -0.00007280  0.00015769 -0.11267422  0.91551997
################################################################################
Occupancy matrix of Hubbard site      1 and spin      2 is 
  m_l =   -2          -1           0           1           2
  0.21272323 -0.14297082 -0.00061681 -0.00045613 -0.00053747
 -0.14301296  0.31855098  0.00034415  0.00019776  0.00077231
 -0.00061473  0.00034115  0.10561771 -0.00029218 -0.00018754
 -0.00045819  0.00019761 -0.00029154  0.31914969  0.14339078
 -0.00053763  0.00077027 -0.00018698  0.14334992  0.21308867
################################################################################
Total occupancy of Hubbard site      1 is         5.65282218 e
Local magnetic moment of Hubbard site      1 is   3.31456163 mu_B
DFT+U energy of Hubbard site      1 is            0.06413658 Ha
################################################################################


################################################################################
DFT+U information on atom      2 of Hubbard species Cr  
################################################################################
Occupancy matrix of Hubbard site      2 and spin      1 is 
  m_l =   -2          -1           0           1           2
  0.91545888  0.11281968 -0.00034414  0.00045800 -0.00008386
  0.11285007  0.82979634  0.00047601 -0.00078363  0.00006899
 -0.00034461  0.00047658  0.99282791  0.00017065  0.00015825
  0.00045834 -0.00078329  0.00016999  0.83008097 -0.11270443
 -0.00008352  0.00006893  0.00015777 -0.11267502  0.91551970
################################################################################
Occupancy matrix of Hubbard site      2 and spin      2 is 
  m_l =   -2          -1           0           1           2
  0.21273044 -0.14297502  0.00061190  0.00045949  0.00054138
 -0.14301754  0.31856391 -0.00033674 -0.00019548 -0.00077345
  0.00061287 -0.00033781  0.10562336 -0.00029226 -0.00018781
  0.00045939 -0.00019539 -0.00029158  0.31916271  0.14339541
  0.00054147 -0.00077352 -0.00018722  0.14335415  0.21309536
################################################################################
Total occupancy of Hubbard site      2 is         5.65285957 e
Local magnetic moment of Hubbard site      2 is   3.31450801 mu_B
DFT+U energy of Hubbard site      2 is            0.06413776 Ha
################################################################################


################################################################################
DFT+U information on atom      1 of Hubbard species Cr1 
################################################################################
Occupancy matrix of Hubbard site     73 and spin      1 is 
  m_l =   -2          -1           0           1           2
  0.21272384 -0.14297039  0.00061189  0.00046048  0.00054182
 -0.14301289  0.31855131 -0.00033701 -0.00019650 -0.00077265
  0.00061290 -0.00033814  0.10561752 -0.00029222 -0.00018815
  0.00046037 -0.00019642 -0.00029162  0.31914718  0.14338998
  0.00054189 -0.00077273 -0.00018763  0.14334898  0.21308796
################################################################################
Occupancy matrix of Hubbard site     73 and spin      2 is 
  m_l =   -2          -1           0           1           2
  0.91545939  0.11281909 -0.00034408  0.00045703 -0.00008391
  0.11284947  0.82979820  0.00047591 -0.00078407  0.00006784
 -0.00034458  0.00047652  0.99282851  0.00017119  0.00015862
  0.00045738 -0.00078372  0.00017059  0.83008525 -0.11270287
 -0.00008356  0.00006779  0.00015818 -0.11267366  0.91552043
################################################################################
Total occupancy of Hubbard site     73 is         5.65281959 e
Local magnetic moment of Hubbard site     73 is  -3.31456399 mu_B
DFT+U energy of Hubbard site     73 is            0.06413656 Ha
################################################################################


################################################################################
DFT+U information on atom      2 of Hubbard species Cr1 
################################################################################
Occupancy matrix of Hubbard site     74 and spin      1 is 
  m_l =   -2          -1           0           1           2
  0.21273117 -0.14297515 -0.00061677 -0.00045797 -0.00053818
 -0.14301739  0.31856427  0.00034419  0.00019920  0.00077210
 -0.00061454  0.00034097  0.10562350 -0.00029246 -0.00018827
 -0.00045998  0.00019913 -0.00029167  0.31915974  0.14339427
 -0.00053824  0.00077005 -0.00018760  0.14335320  0.21309519
################################################################################
Occupancy matrix of Hubbard site     74 and spin      2 is 
  m_l =   -2          -1           0           1           2
  0.91545867  0.11282038  0.00034933 -0.00045286  0.00009093
  0.11285056  0.82979598 -0.00048422  0.00078527 -0.00007341
  0.00034748 -0.00048140  0.99282818  0.00017152  0.00015848
 -0.00045151  0.00078491  0.00017080  0.83008212 -0.11270469
  0.00009057 -0.00007164  0.00015794 -0.11267545  0.91551891
################################################################################
Total occupancy of Hubbard site     74 is         5.65285773 e
Local magnetic moment of Hubbard site     74 is  -3.31451000 mu_B
DFT+U energy of Hubbard site     74 is            0.06413774 Ha
################################################################################


======================== Writing density and potential =========================
Writing "Cr2I6_bilayer_HT_AFM_AFM_nSP_ps_density.cube" ... done
Writing "Cr2I6_bilayer_HT_AFM_AFM_nSP_ps_spindensity.cube" ... done
Writing "Cr2I6_bilayer_HT_AFM_AFM_nSP_ae_density.cube" ... done
Writing "Cr2I6_bilayer_HT_AFM_AFM_nSP_ae_spindensity.cube" ... done
Writing "Cr2I6_bilayer_HT_AFM_AFM_nSP_potential.cube" ... done
Writing "Cr2I6_bilayer_HT_AFM_AFM_nSP_electrostatic_potential.cube" ... done
================================================================================

    Mulliken Atomic Populations
    ---------------------------
Species  Ion    Total   Charge (e)    Spin (hbar)
=================================================
  Cr     1      13.894      0.106      1.90
  Cr     2      13.895      0.105      1.90
  I      3       7.039     -0.039     -0.13
  I      4       7.029     -0.029     -0.13
  I      5       7.029     -0.029     -0.13
  I      6       7.039     -0.039     -0.13
  I      7       7.037     -0.037     -0.13
  I      8       7.037     -0.037     -0.13
  Cr     9      13.894      0.106     -1.90
  Cr    10      13.894      0.106     -1.90
  I     11       7.039     -0.039      0.13
  I     12       7.037     -0.037      0.13
  I     13       7.037     -0.037      0.13
  I     14       7.039     -0.039      0.13
  I     15       7.029     -0.029      0.13
  I     16       7.029     -0.029      0.13
  Cr    17      13.894      0.106      1.90
  Cr    18      13.894      0.106      1.90
  I     19       7.039     -0.039     -0.13
  I     20       7.030     -0.030     -0.13
  I     21       7.029     -0.029     -0.13
  I     22       7.039     -0.039     -0.13
  I     23       7.037     -0.037     -0.13
  I     24       7.038     -0.038     -0.13
  Cr    25      13.894      0.106     -1.90
  Cr    26      13.894      0.106     -1.90
  I     27       7.039     -0.039      0.13
  I     28       7.037     -0.037      0.13
  I     29       7.037     -0.037      0.13
  I     30       7.039     -0.039      0.13
  I     31       7.029     -0.029      0.13
  I     32       7.029     -0.029      0.13
  Cr    33      13.895      0.105      1.90
  Cr    34      13.894      0.106      1.90
  I     35       7.039     -0.039     -0.13
[...]
*    I     435      0.00486886   0.00000650  -0.00701868 *
*    I     436     -0.00265764  -0.00441997  -0.00621897 *
*    I     437     -0.00266760   0.00444206  -0.00621379 *
*    I     438     -0.00499515  -0.00000255   0.00883236 *
*    I     439      0.00246102   0.00438641   0.00885072 *
*    I     440      0.00246532  -0.00440333   0.00884569 *
*    Cr    441      0.00001615  -0.00021592  -0.00002943 *
*    Cr    442     -0.00000187   0.00018931  -0.00002787 *
*    I     443      0.00499005   0.00000463  -0.00883111 *
*    I     444     -0.00246208  -0.00438337  -0.00884801 *
*    I     445     -0.00247215   0.00439747  -0.00884263 *
*    I     446     -0.00487421  -0.00000734   0.00701819 *
*    I     447      0.00265653   0.00442043   0.00621762 *
*    I     448      0.00265932  -0.00444677   0.00621416 *
*    Cr    449      0.00007707  -0.00015537   0.00003724 *
*    Cr    450     -0.00002515   0.00019455   0.00003044 *
*    I     451      0.00486956   0.00000752  -0.00701856 *
*    I     452     -0.00265812  -0.00441920  -0.00621990 *
*    I     453     -0.00266765   0.00444253  -0.00621391 *
*    I     454     -0.00499499  -0.00000264   0.00883202 *
*    I     455      0.00246113   0.00438592   0.00885065 *
*    I     456      0.00246571  -0.00440241   0.00884462 *
*    Cr    457      0.00001253  -0.00019804  -0.00003157 *
*    Cr    458      0.00000491   0.00019380  -0.00003499 *
*    I     459      0.00499035   0.00000737  -0.00883193 *
*    I     460     -0.00246239  -0.00438317  -0.00884804 *
*    I     461     -0.00247059   0.00440140  -0.00884406 *
*    I     462     -0.00487363  -0.00000697   0.00701805 *
*    I     463      0.00265592   0.00441895   0.00621803 *
*    I     464      0.00266160  -0.00444318   0.00621279 *
*    Cr    465      0.00007515  -0.00015503   0.00003688 *
*    Cr    466      0.00007199   0.00014172   0.00003279 *
*    I     467      0.00487094   0.00001042  -0.00701854 *
*    I     468     -0.00265609  -0.00442106  -0.00622125 *
*    I     469     -0.00266684   0.00444438  -0.00621440 *
*    I     470     -0.00499656  -0.00000564   0.00883307 *
*    I     471      0.00246317   0.00438565   0.00885224 *
*    I     472      0.00246344  -0.00440680   0.00884706 *
*    Cr    473      0.00001678  -0.00019959  -0.00002948 *
*    Cr    474     -0.00000236   0.00020363  -0.00003062 *
*    I     475      0.00499235   0.00000821  -0.00883213 *
*    I     476     -0.00246255  -0.00438313  -0.00884894 *
*    I     477     -0.00247005   0.00440295  -0.00884386 *
*    I     478     -0.00487216  -0.00000504   0.00701673 *
*    I     479      0.00265614   0.00441843   0.00621855 *
*    I     480      0.00266235  -0.00444154   0.00621209 *
*    Cr    481     -0.00001794  -0.00020158   0.00002734 *
*    Cr    482      0.00007864   0.00013556   0.00003391 *
*    I     483      0.00487127   0.00001078  -0.00701789 *
*    I     484     -0.00265571  -0.00441982  -0.00622152 *
*    I     485     -0.00266716   0.00444510  -0.00621596 *
*    I     486     -0.00499512  -0.00000107   0.00882962 *
*    I     487      0.00246242   0.00438167   0.00884942 *
*    I     488      0.00246751  -0.00440308   0.00884776 *
*    Cr    489      0.00001473  -0.00019366  -0.00002754 *
*    Cr    490      0.00000320   0.00020772  -0.00002834 *
*    I     491      0.00498970   0.00000395  -0.00883066 *
*    I     492     -0.00246192  -0.00438302  -0.00884803 *
*    I     493     -0.00247304   0.00439900  -0.00884421 *
*    I     494     -0.00487135  -0.00000577   0.00701646 *
*    I     495      0.00265669   0.00441816   0.00621813 *
*    I     496      0.00266072  -0.00444481   0.00621325 *
*    Cr    497     -0.00000807  -0.00020299   0.00003109 *
*    Cr    498     -0.00001982   0.00019849   0.00003163 *
*    I     499      0.00487053   0.00001017  -0.00701891 *
*    I     500     -0.00265628  -0.00442070  -0.00621907 *
*    I     501     -0.00266811   0.00444442  -0.00621518 *
*    I     502     -0.00499482   0.00000027   0.00883164 *
*    I     503      0.00246096   0.00438141   0.00884864 *
*    I     504      0.00246514  -0.00440226   0.00884260 *
*    Cr    505      0.00001426  -0.00018209  -0.00003518 *
*    Cr    506     -0.00000330   0.00020906  -0.00002834 *
*    I     507      0.00499076   0.00000312  -0.00883169 *
*    I     508     -0.00246197  -0.00438265  -0.00884865 *
*    I     509     -0.00247330   0.00439903  -0.00884368 *
*    I     510     -0.00487341  -0.00000668   0.00701708 *
*    I     511      0.00265619   0.00441721   0.00621842 *
*    I     512      0.00266235  -0.00444410   0.00621300 *
*    Cr    513     -0.00000504  -0.00021015   0.00003277 *
*    Cr    514     -0.00002283   0.00020928   0.00003080 *
*    I     515      0.00486756   0.00000870  -0.00701472 *
*    I     516     -0.00265627  -0.00442086  -0.00621936 *
*    I     517     -0.00267026   0.00444216  -0.00621553 *
*    I     518     -0.00499607  -0.00000228   0.00883186 *
*    I     519      0.00246181   0.00438332   0.00884886 *
*    I     520      0.00246407  -0.00440492   0.00884670 *
*    Cr    521      0.00000204  -0.00018157  -0.00002798 *
*    Cr    522      0.00002472   0.00020197  -0.00003363 *
*    I     523      0.00498976   0.00000386  -0.00883144 *
*    I     524     -0.00246320  -0.00438353  -0.00884993 *
*    I     525     -0.00247473   0.00439974  -0.00884347 *
*    I     526     -0.00487513  -0.00000954   0.00701870 *
*    I     527      0.00265588   0.00441896   0.00621974 *
*    I     528      0.00265953  -0.00444740   0.00621396 *
*    Cr    529     -0.00001039  -0.00023019   0.00003227 *
*    Cr    530     -0.00002728   0.00018958   0.00002757 *
*    I     531      0.00486699   0.00000829  -0.00701810 *
*    I     532     -0.00265787  -0.00441960  -0.00622008 *
*    I     533     -0.00266772   0.00444313  -0.00621604 *
*    I     534     -0.00499559  -0.00000222   0.00883372 *
*    I     535      0.00246064   0.00438337   0.00885021 *
*    I     536      0.00246463  -0.00440333   0.00884566 *
*    Cr    537      0.00001967  -0.00021280  -0.00002872 *
*    Cr    538      0.00000971   0.00019326  -0.00003334 *
*    I     539      0.00499320   0.00000637  -0.00883335 *
*    I     540     -0.00246266  -0.00438334  -0.00884858 *
*    I     541     -0.00247070   0.00440365  -0.00884477 *
*    I     542     -0.00487517  -0.00000795   0.00701974 *
*    I     543      0.00265508   0.00441863   0.00621761 *
*    I     544      0.00266054  -0.00444507   0.00621265 *
*    Cr    545     -0.00001041  -0.00021482   0.00002997 *
*    Cr    546     -0.00002829   0.00018983   0.00002699 *
*    I     547      0.00486877   0.00001214  -0.00701818 *
*    I     548     -0.00265828  -0.00441857  -0.00621919 *
*    I     549     -0.00266642   0.00444397  -0.00621509 *
*    I     550     -0.00499662  -0.00000526   0.00883317 *
*    I     551      0.00246190   0.00438345   0.00884940 *
*    I     552      0.00246310  -0.00440561   0.00884672 *
*    Cr    553      0.00002374  -0.00019973  -0.00003080 *
*    Cr    554      0.00000196   0.00019416  -0.00002653 *
*    I     555      0.00499170   0.00000876  -0.00883184 *
*    I     556     -0.00246248  -0.00438301  -0.00884907 *
*    I     557     -0.00247080   0.00440344  -0.00884441 *
*    I     558     -0.00487177  -0.00000352   0.00701590 *
*    I     559      0.00265546   0.00441846   0.00621845 *
*    I     560      0.00266079  -0.00444285   0.00621144 *
*    Cr    561     -0.00001512  -0.00020453   0.00002478 *
*    Cr    562     -0.00003021   0.00019231   0.00002810 *
*    I     563      0.00486964   0.00001197  -0.00701765 *
*    I     564     -0.00265740  -0.00441859  -0.00621947 *
*    I     565     -0.00266570   0.00444740  -0.00621734 *
*    I     566     -0.00499486  -0.00000334   0.00883119 *
*    I     567      0.00246102   0.00438299   0.00884905 *
*    I     568      0.00246626  -0.00440158   0.00884487 *
*    Cr    569      0.00002017  -0.00019666  -0.00002646 *
*    Cr    570      0.00000179   0.00020332  -0.00002737 *
*    I     571      0.00498948   0.00000669  -0.00883130 *
*    I     572     -0.00246200  -0.00438205  -0.00884825 *
*    I     573     -0.00247093   0.00439977  -0.00884343 *
*    I     574     -0.00487256  -0.00000418   0.00701783 *
*    I     575      0.00265636   0.00441965   0.00621729 *
*    I     576      0.00266248  -0.00444260   0.00621306 *
*                                                        *
**********************************************************
* TOTAL:           -0.00000000  -0.00000000   0.00000000 *
**********************************************************
 
 
***********************************************************
********** Summary of Forces (values in Eh/a) *************
*                                                         *
* ---------------------- Minimum ------------------------ *
* Atom:       354, |F|min =    0.00015727                 *
* Components:     Fx|min       Fy|min       Fz|min        *
*               0.00006578   0.00013962   0.00003022      *
*                                                         *
* ---------------------- Maximum ------------------------ *
* Atom:       472, |F|max =    0.01018621                 *
* Components:     Fx|max       Fy|max       Fz|max        *
*               0.00246344  -0.00440680   0.00884706      *
*                                                         *
* ---------------- Root Mean Square Force --------------- *
*                  |F|rms =    0.00801540                 *
* Components:     Fx|rms       Fy|rms       Fz|rms        *
*               0.00306121   0.00312138   0.00671809      *
***********************************************************
 

------------------------------ TIMING INFORMATION ------------------------------
AVERAGE TIME:    2845.240s on    175 proc(s)                                    
TOTAL TIME:      2845.241s on    175 proc(s)                                    
==================== AVERAGE TIMINGS FROM ALL PROCS (CUMULATIVE) =====================
|| TAG                                         #calls     cpu time   %total  Gflops ||
|| linalg_dsyev_lt                            :     1        0.01s   0.000%  ------ || (1 procs only)
|| hubbard_species_proj                       :     1        0.00s   0.000%  ------ ||
|| sw_bessel_init_cpu                         :     1        0.01s   0.000%  ------ || (1 procs only)
|| density_fftbox_interp_mult_imbal           :   798        0.00s   0.000%  ------ ||
|| hash_table_free                            :     4        0.00s   0.000%  ------ ||
|| hubbard_projector_character                :     1        0.00s   0.000%  ------ ||
|| hubbard_ngwf_select                        :     1        0.00s   0.000%  ------ ||
|| hubbard_ngwf_on_grid                       :     1        0.00s   0.000%  ------ ||
|| ewald_calculate_forces_realspace           :     1        0.01s   0.000%  ------ ||
|| sparse_spam3toblacs_real_fast_imbal        :    10        0.01s   0.000%  ------ ||
|| sparse_blacstospam3_real_fast_imbal        :    24        0.01s   0.000%  ------ ||
|| sparse_set_to_garbage                      :    52        0.01s   0.000%  ------ ||
|| paw_dij_hartree                            :    18        0.02s   0.001%  ------ ||
|| linalg_dgemv                               :    27        0.03s   0.001%  ------ ||
|| sparse_spam3toblacs_real_fast_B2           :  1750        0.04s   0.001%  ------ ||
|| linalg_invert_sym_matrix                   :     2        0.05s   0.002%  ------ || (144 procs only)
|| hubbard_tensorial_correction               :     2        0.04s   0.001%  ------ ||
|| ewald_calculate_energy                     :     1        0.04s   0.001%  ------ ||
|| onetep.F90 final imbalance                 :     1        0.05s   0.002%  ------ ||
|| basis_extract_function_from_box            :   185        0.06s   0.002%  ------ ||
|| ewald_calculate_forces_recipspace          :     1        0.08s   0.003%  ------ ||
|| sw_init                                    :    36        0.11s   0.004%  ------ ||
|| onetep.F90 main loop imbalance             :     1        0.13s   0.005%  ------ ||
|| ewald_calculate_forces                     :     1        0.20s   0.007%  ------ ||
|| pseudo_make_structure_factor               :     1        0.20s   0.007%  ------ ||
|| hubbard_projection_mtx                     :     6        0.21s   0.007%  ------ ||
|| hubbard_ham_matrix                         :     7        0.34s   0.012%  ------ ||
|| augmentation_density_forces                :     1        0.38s   0.013%  ------ ||
|| hubbard_projector_ham                      :     7        0.41s   0.014%  ------ ||
|| restart_kernel_read                        :     1        0.42s   0.015%  ------ ||
|| restart_kernel_write                       :     1        0.50s   0.018%  ------ ||
|| paw_tcore_hartree_on_grid                  :     1        0.58s   0.020%  ------ ||
|| restart_hamiltonian_write                  :     1        0.68s   0.024%  ------ ||
|| paw_tcore_hartree_calc_forces              :     1        0.91s   0.032%  ------ ||
|| ngwfs_initialise_from_radial               :     1        1.06s   0.037%  ------ ||
|| fourier_filter_cell                        :    18        1.21s   0.043% 263.756 ||
|| sparse_embed_array_hotelling_invert        :     4        1.35s   0.047%  ------ ||
|| hartree_on_grid_single                     :    17        1.46s   0.051%  ------ ||
|| dense_eigensolve                           :     2        1.62s   0.057%  ------ ||
|| paw_tcore_density                          :     1        1.69s   0.059%  ------ ||
|| sparse_spam3toblacs_real_fast_B1           :  1750        1.73s   0.061%  ------ ||
|| paw_nlcc_calculate_forces                  :     1        1.74s   0.061%  ------ ||
|| sparse_trace                               :   432        1.75s   0.061%  ------ ||
|| nonsc_forces_ngwfs_calc                    :     1        1.77s   0.062%  ------ ||
|| sparse_spam3toblacs_real_fast              :    10        1.87s   0.066%  ------ ||
|| hubbard_energy_total                       :    15        1.96s   0.069%  ------ ||
|| paw_dataset_init                           :     2        2.17s   0.076%  ------ ||
|| kernel_fix                                 :     5        2.19s   0.077%  ------ ||
|| paw_sphere_density_on_grid                 :     1        2.40s   0.084%  ------ ||
|| sparse_init                                :     1        2.45s   0.086%  ------ ||
|| fourier_apply_box_pair                     :   220        2.60s   0.091%  5.786k ||
|| basis_copy_function_to_box                 :  1690        2.69s   0.094%  ------ ||
|| fourier_interpolate_cell                   :    38        2.93s   0.103% 229.954 ||
|| ngwf_gradient_coeffs                       :     2        3.14s   0.110%  ------ ||
|| lnv_gradient_norm                          :     5        3.36s   0.118%  ------ ||
|| kernel_purify                              :    21        4.70s   0.165%  ------ ||
|| augmentation_screen_dij_spam3              :    16        4.89s   0.172%  ------ ||
|| restart_ngwfs_tightbox_input               :     1        5.30s   0.186%  ------ ||
|| sparse_blacstospam3_real_fast              :    24        5.40s   0.190%  ------ ||
|| paw_dij_xc                                 :    18        6.12s   0.215%  ------ ||
|| aug_nonlocal_mat_spam3_embed_array         :    15        6.49s   0.228%  ------ ||
|| fourier_apply_cell_backward                :   154        6.72s   0.236% 365.557 ||
|| fourier_apply_cell_forward                 :   154        7.39s   0.260% 332.352 ||
|| paw_species_calc_proj_prec_mat             :     1        9.19s   0.323%  ------ ||
|| fourier_filter                             :   232       11.09s   0.390%  ------ ||
|| hubbard_calculate_forces                   :     1       12.41s   0.436%  ------ ||
|| integrals_grad_spam3                       :     2       13.69s   0.481%  ------ ||
|| xc_energy_potential                        :    17       14.19s   0.499%  ------ ||
|| aug_density_on_grid_spam3                  :    19       15.19s   0.534%  ------ ||
|| restart_ngwfs_tightbox_output              :     1       16.67s   0.586%  ------ ||
|| fourier_interpolate                        :   232       17.98s   0.632%  ------ ||
|| hubbard_projector_update                   :     1       19.20s   0.675%  ------ ||
|| cell_grid_deposit_box_real                 :  1507       20.56s   0.723%  ------ ||
|| projectors_func_grad_ovlp_box_spam3        :     3       21.06s   0.740%  ------ ||
|| energy_and_force_init_cell                 :     1       21.59s   0.759%  ------ ||
|| projectors_init_fftbox_recip               :    39       21.98s   0.773%  ------ ||
|| aug_nl_calculate_forces                    :     1       22.57s   0.793%  ------ ||
|| sparse_product                             :  1071       26.09s   0.917%  ------ ||
|| function_ops_brappd_ketppd_spam3           :    10       29.10s   1.023%  ------ ||
|| hamiltonian_energy_components              :     1       44.17s   1.552%  ------ ||
|| projectors_func_ovlp_box_spam3             :    11       45.12s   1.586%  ------ ||
|| integrals_kinetic_spam3                    :     4       46.95s   1.650%  ------ ||
|| density_fftbox_deposit_to_cell             :   798       49.68s   1.746%  ------ ||
|| eigenstates_calculate                      :     1       60.94s   2.142%  ------ ||
|| basis_dot_function_with_box                : 722.7k      74.13s   2.606%  ------ ||
|| potential_apply_to_ngwf_batch              :    28       94.84s   3.333%  ------ ||
|| forces_calculate                           :     1      120.70s   4.242%  ------ ||
|| projectors_gradient_batch                  :    16      164.21s   5.771%  ------ ||
|| integrals_locpot_mat_els_batch             :    28      167.73s   5.895%  ------ ||
|| fourier_apply_box                          :  4228      170.12s   5.979%  5.504k ||
|| fourier_interpolate_product                :   781      175.68s   6.175%  ------ ||
|| density_fftbox_interpolate_multiply        :   798      181.99s   6.396%  ------ ||
|| basis_add_function_to_box                  : 1.962M     224.41s   7.887%  ------ ||
|| integrals_locpot_dbl_grid                  :    14      263.98s   9.278%  ------ ||
|| cell_grid_extract_box_real                 :   603      267.48s   9.401%  ------ ||
|| density_batch_interp_deposit               :    76      308.43s  10.840%  ------ ||
|| projectors_grad_precond_batch              :     8      366.66s  12.887%  ------ ||
|| density_batch_row_sums                     :    76      420.68s  14.786%  ------ ||
|| ngwf_gradient_build_batch                  :     8      610.46s  21.455%  ------ ||
|| hamiltonian_lhxc_calculate                 :    15      621.65s  21.849%  ------ ||
|| lnv_denskernel_optimise_cg                 :     1      623.59s  21.917%  ------ ||
|| properties_calculate                       :     1      715.32s  25.141%  ------ ||
|| density_on_dbl_grid                        :    38      742.27s  26.088%  ------ ||
|| ngwf_gradient_batch                        :     8      910.21s  31.990%  ------ ||
|| ngwf_gradient_lnv                          :     2      942.83s  33.137%  ------ ||
|| ngwf_cg_optimise                           :     1     1900.22s  66.786%  ------ ||
|| energy_and_forces                          :     1     2821.44s  99.163%  ------ ||
|| total_time                                 :     1     2845.24s 100.000%  ------ ||
======================================================================================
Overhead of generating timer report: 
- 0 ms averaging over threads,
- 31 ms ensuring consistency across MPI ranks,
- 69 ms printing in order.

Job completed: 26-10-2024 12:54 (+0100)

onetep_launcher: ONETEP seems to have finished correctly (zero exit code).
                 Brought to you by PID 145180 on nid004585.
