==================================================================================
It's Wed 30 Oct 2024 03:50:24 PM GMT.
*** Starting onetep_launcher (node nid003577, PIDs 139807 139808 139809 139810 139811 139812 139813)...
    - ONETEP arguments: Cr2I6_bilayer_HT_AFM_FM_nSP.dat
    - Current directory: /mnt/lustre/a2fs-work3/work/e89/e89/phsmea/CrI3_onetep_U/U_2.97/HT_AFM/HT_AFM_FM/nsp-ngwfs
    - Launcher executable directory: /mnt/lustre/a2fs-work3/work/e89/e89/phsmea/CrI3_onetep_U/U_2.97/HT_AFM/HT_AFM_FM/nsp-ngwfs
    - (-e) ONETEP executable specified through command-line: /work/e89/e89/phsmea/onetep.archer2_2024_cray
      ... trying /work/e89/e89/phsmea/onetep.archer2_2024_cray
          -> looks OK
*** Setting up environment...
    - (-s) Process stack size: unlimited
    - (-t) OMP_NUM_THREADS: 16
    - (-o) OMP_STACKSIZE: 64M
    - (-c) Maximum core file size: 2048000
    - (-d) decfort_dump_flag: n
    - (-m) I_MPI_OFA_TRANSLATION_CACHE: 0
    - (-m) I_MPI_DAPL_TRANSLATION_CACHE: 0
    - (-m) I_MPI_DAPL_UD_TRANSLATION_CACHE: 0
*** Starting ONETEP...
    - /work/e89/e89/phsmea/onetep.archer2_2024_cray Cr2I6_bilayer_HT_AFM_FM_nSP.dat
=================================================================================
_________________________________________________________________________________
 +---------------------------------------------------------------+
 |                                                               |
 |        ####### #     # ####### ####### ####### ######         |
 |        #     # ##    # #          #    #       #     #        |
 |        #     # # #   # #          #    #       #     #        |
 |        #     # #  #  # #####      #    #####   ######         |
 |        #     # #   # # #          #    #       #              |
 |        #     # #    ## #          #    #       #              |
 |        ####### #     # #######    #    ####### #              |
 |                                                               |
 |        Linear-Scaling Ab Initio Total Energy Program          |
 |                                                               |
 |          Release for academic collaborators of ODG            |
 |                                             Version 7.3.0     |
 | Remote: git@github.com:Miesaz/onetep_mea.git                  |
 | Local branch: master                                          |
 | Commit ID: 4af45e89288c8df5499704252eec3e032ee3d0c8           |
 | Date: Tue Aug 6 11:28:44 2024 +0100                           |
 | Working tree clean                                            |
 |                                                               |
 +---------------------------------------------------------------+
 |                                                               |
 |  Authors:                                                     |
 |  Jacek Dziedzic, Peter D. Haynes, Nicholas D. M. Hine,        |
 |  Arash A. Mostofi, Mike C. Payne and Chris-Kriton Skylaris    |
 |                                                               |
 |  Contributors:                                                |
 |  J. Aarons, L. Andrinopoulos, P. W. Avraam, R. A. Bell,       |
 |  A. Bhandari, G. A. Bramley, R. J. Charlton, S. J. Clark,     |
 |  R. J. Clements, G. C. Constantinescu, F. Corsetti,           |
 |  N. Corsini, O. Dieguez, S. M. M. Dubois, K. K. B. Duff,      |
 |  J. M. Escartin, M. Escobar Azor, A. Greco,                   |
 |  H. Helal, Q. O. Hill, L. P. Lee, J.-H. Li,                   |
 |  T. Li, E. B. Linscott, G. Moynihan, D. D. O`Regan,           |
 |  O. K. Okan, E. Parkinson, M. J. S. Phipps,                   |
 |  C. J. Pickard, J. C. A. Prentice, M. I. J. Probert,          |
 |  L. E. Ratcliff, M. Robinson, A. Ruiz Serrano,                |
 |  M. dos Santos Dias, J. S. Spencer, E. W. Tait,               |
 |  G. Teobaldi, D. Turban, V. Vitale, K. A. Wilkinson,          |
 |  C. Weber, J. C. Womack, Chengcheng Xiao, N. Yeung,           |
 |  and T. J. Zuehlsdorff.                                       |
 |                                                               |
 |                                   Copyright (c) 2004-2024     |
 |                                                               |
 |  Please cite:                                                 |
 |  "The ONETEP linear-scaling density functional theory program"|
 |   J. Chem. Phys. 152(17) 174111 (2020)                        |
 |                                                               |
 |          in all publications arising from your use of ONETEP. |
 |                                                               |
 +---------------------------------------------------------------+
 |                                                               |
 |   ONETEP is based on developments described in the following  |
 |   publications:                                               |
 |                                                               |
 |  "Nonorthogonal generalized Wannier function pseudopotential  |
 |   plane-wave method".                                         |
 |   C.-K. Skylaris, A. A. Mostofi, P. D. Haynes, O. Dieguez,    |
 |   M. C. Payne.                                                |
 |   Phys. Rev. B 66 035119 (2002).                              |
 |                                                               |
 |  "Preconditioned iterative minimization for linear-scaling    |
 |   electronic structure calculations".                         |
 |   A. A. Mostofi, P. D. Haynes, C.-K. Skylaris, M. C. Payne.   |
 |   J. Chem. Phys. 119(17), pp.8842-8848 (2003).                |
 |                                                               |
 |  "Total-energy calculations on a real space grid with         |
 |   localized functions and a plane-wave basis".                |
 |   A. A. Mostofi, C.-K. Skylaris, P. D. Haynes, M. C. Payne.   |
 |   Comput. Phys. Commun. 147, pp.788-802 (2002).               |
 |                                                               |
 |  "Accurate kinetic energy evaluation in electronic structure  |
 |   calculations with localized functions on real space grids"  |
 |   C.-K. Skylaris, A. A. Mostofi, P. D. Haynes, C. J. Pickard, |
 |   M. C. Payne.                                                |
 |   Comput. Phys. Commun. 140, pp.315-322 (2001).               |
 |                                                               |
 |  "Accurate ionic forces and geometry optimization in linear-  |
 |   scaling density-functional theory with local orbitals"      |
 |   N. D. M. Hine, M. Robinson, P. D. Haynes, C.-K. Skylaris,   |
 |   M. C. Payne, and A. A. Mostofi.                             |
 |   Phys. Rev. B 83 195102 (2011).                              |
 |                                                               |
 +---------------------------------------------------------------+

Job started: 30-10-2024 15:50 (+0000)
 
Reading parameters from file "Cr2I6_bilayer_HT_AFM_FM_nSP.dat" ...... done

If your calculation crashes here, before "Checking processes and threads..."
is displayed, then your stack size is insufficient.
If so, use "ulimit -s unlimited" at runtime.
You can disable this check with "check_stack_size F".

Checking processes and threads...
      Default threads: 16
   Running with 175 MPI processes.
   There are 7 MPI processes running on the same node as the root process.
   Each MPI process is using: 
               1 threads for simulation cell FFTs.
               1 threads for threaded FFT box operations.
              16 threads for loops over batched FFT box operations.
              16 threads in other parallel regions.
   MPI Interface: S1 (use mpi_f08) (-DMPI -DUSE_MPI_F08).
   MPI_ASYNC_PROTECTS_NONBLOCKING: Yes. MPI_SUBARRAYS_SUPPORTED: Yes.
   FFTW Interface: OMP-capable and MODERN. (-DUSE_MODERN_FFTW specified).
   GPU Interface: None.
   GPU FFT Backend: None.
... done

Basic input checks...... done

Reading geometry and species blocks from file "Cr2I6_bilayer_HT_AFM_FM_nSP.dat" ...... done


--------------------------------------------------------------------------------
---------------------------------- INPUT FILE ----------------------------------
--------------------------------------------------------------------------------

charge : 0                                                                      
cutoff_energy : 1000 eV                                                         
do_properties : T                                                               
edft : F                                                                        
edft_init_maxit : 5                                                             
elec_energy_tol : 2e-07 Ha                                                      
fine_grid_scale : 4                                                             
forces_output_detail : VERBOSE                                                  
maxit_ngwf_cg : 100                                                             
ngwf_threshold_orig : 1e-06                                                     
ngwfs_spin_polarized : F                                                        
output_detail : NORMAL                                                          
paw : T                                                                         
read_denskern : F                                                               
read_hamiltonian : F                                                            
read_tightbox_ngwfs : F                                                         
spin : 432                                                                      
spin_polarized : T                                                              
task : SinglePoint                                                              
write_denskern : T                                                              
write_forces : T                                                                
write_hamiltonian : T                                                           
write_tightbox_ngwfs : T                                                        
xc_functional : PBE                                                             
%BLOCK LATTICE_CART                                                             
ang                                                                             
41.261892132       0.000000000000000        0.000000000000000                   
-20.630946066       35.733846792             0.000000000000000                  
0.000000000000000   0.0000000000000000       27.507928088                       
%ENDBLOCK LATTICE_CART                                                          
%BLOCK POSITIONS_ABS                                                            
ang                                                                             
Cr       5.73012301       1.98615267      15.61475195                           
Cr       2.29163200       3.96948846      15.61475241                           
I        6.71804295      -0.00001318      14.06395847                           
I        3.51661508       2.12334657      14.07089707                           
I        0.07814689       3.83230774      14.07089707                           
I        4.74445508      -0.00001140      17.15723785                           
I        4.50489604       3.83201918      17.15707434                           
I        1.06642478       2.12363336      17.15707434                           
Cr       3.43917878       1.98613277       9.03123330                           
Cr       0.00068777       3.96950836       9.03123376                           
I        4.42486276      -0.00001318       7.48874545                           
I        1.22590088       2.12363241       7.48890841                           
I       -2.21256731       3.83202190       7.48890841                           
I        2.45126709      -0.00001140      10.58202506                           
I        2.21418512       3.83230199      10.57507890                           
I       -1.22428614       2.12335055      10.57507890                           
Cr       2.29163200       7.94179381      15.61475195                           
Cr      -1.14685901       9.92512959      15.61475241                           
I        3.27955194       5.95562795      14.06395847                           
I        0.07812407       8.07898770      14.07089707                           
I       -3.36034412       9.78794887      14.07089707                           
I        1.30596407       5.95562973      17.15723785                           
I        1.06640503       9.78766031      17.15707434                           
I       -2.37206623       8.07927449      17.15707434                           
Cr       0.00068777       7.94177390       9.03123330                           
Cr      -3.43780324       9.92514949       9.03123376                           
I        0.98637175       5.95562795       7.48874545                           
I       -2.21259013       8.07927354       7.48890841                           
I       -5.65105832       9.78766304       7.48890841                           
I       -0.98722392       5.95562973      10.58202506                           
I       -1.22430589       9.78794313      10.57507890                           
I       -4.66277715       8.07899168      10.57507890                           
Cr      -1.14685901      13.89743494      15.61475195                           
Cr      -4.58535002      15.88077072      15.61475241                           
I       -0.15893907      11.91126908      14.06395847                           
I       -3.36036694      14.03462883      14.07089707                           
I       -6.79883513      15.74359001      14.07089707                           
I       -2.13252694      11.91127086      17.15723785                           
I       -2.37208598      15.74330145      17.15707434                           
I       -5.81055724      14.03491562      17.15707434                           
Cr      -3.43780324      13.89741504       9.03123330                           
Cr      -6.87629425      15.88079062       9.03123376                           
I       -2.45211926      11.91126908       7.48874545                           
I       -5.65108114      14.03491467       7.48890841                           
I       -9.08954933      15.74330417       7.48890841                           
I       -4.42571493      11.91127086      10.58202506                           
I       -4.66279691      15.74358426      10.57507890                           
I       -8.10126817      14.03463281      10.57507890                           
Cr      -4.58535002      19.85307607      15.61475195                           
Cr      -8.02384103      21.83641185      15.61475241                           
I       -3.59743008      17.86691022      14.06395847                           
I       -6.79885795      19.99026996      14.07089707                           
I      -10.23732614      21.69923114      14.07089707                           
I       -5.57101795      17.86691200      17.15723785                           
I       -5.81057699      21.69894258      17.15707434                           
I       -9.24904825      19.99055675      17.15707434                           
Cr      -6.87629425      19.85305617       9.03123330                           
Cr     -10.31478526      21.83643175       9.03123376                           
I       -5.89061027      17.86691022       7.48874545                           
I       -9.08957216      19.99055580       7.48890841                           
I      -12.52804035      21.69894530       7.48890841                           
I       -7.86420594      17.86691200      10.58202506                           
I       -8.10128792      21.69922539      10.57507890                           
I      -11.53975918      19.99027394      10.57507890                           
Cr      -8.02384103      25.80871720      15.61475195                           
Cr     -11.46233204      27.79205298      15.61475241                           
I       -7.03592109      23.82255135      14.06395847                           
I      -10.23734897      25.94591110      14.07089707                           
I      -13.67581716      27.65487227      14.07089707                           
I       -9.00950896      23.82255313      17.15723785                           
I       -9.24906800      27.65458371      17.15707434                           
I      -12.68753926      25.94619789      17.15707434                           
Cr     -10.31478526      25.80869730       9.03123330                           
Cr     -13.75327627      27.79207289       9.03123376                           
I       -9.32910128      23.82255135       7.48874545                           
I      -12.52806317      25.94619693       7.48890841                           
I      -15.96653136      27.65458643       7.48890841                           
I      -11.30269695      23.82255313      10.58202506                           
I      -11.53977893      27.65486652      10.57507890                           
I      -14.97825019      25.94591507      10.57507890                           
Cr     -11.46233205      31.76435833      15.61475195                           
Cr     -14.90082306      33.74769412      15.61475241                           
I      -10.47441210      29.77819248      14.06395847                           
I      -13.67583998      31.90155223      14.07089707                           
I      -17.11430817      33.61051340      14.07089707                           
I      -12.44799997      29.77819426      17.15723785                           
I      -12.68755901      33.61022484      17.15707434                           
I      -16.12603027      31.90183902      17.15707434                           
Cr     -13.75327627      31.76433843       9.03123330                           
Cr     -17.19176728      33.74771402       9.03123376                           
I      -12.76759229      29.77819248       7.48874545                           
I      -15.96655418      31.90183807       7.48890841                           
I      -19.40502237      33.61022756       7.48890841                           
I      -14.74118796      29.77819426      10.58202506                           
I      -14.97826994      33.61050765      10.57507890                           
I      -18.41674120      31.90155621      10.57507890                           
Cr      12.60710503       1.98615267      15.61475195                           
Cr       9.16861402       3.96948846      15.61475241                           
I       13.59502497      -0.00001318      14.06395847                           
I       10.39359710       2.12334657      14.07089707                           
I        6.95512891       3.83230774      14.07089707                           
I       11.62143710      -0.00001140      17.15723785                           
I       11.38187806       3.83201918      17.15707434                           
I        7.94340680       2.12363336      17.15707434                           
Cr      10.31616080       1.98613277       9.03123330                           
Cr       6.87766979       3.96950836       9.03123376                           
I       11.30184479      -0.00001318       7.48874545                           
I        8.10288290       2.12363241       7.48890841                           
I        4.66441471       3.83202190       7.48890841                           
I        9.32824912      -0.00001140      10.58202506                           
I        9.09116714       3.83230199      10.57507890                           
I        5.65269588       2.12335055      10.57507890                           
Cr       9.16861402       7.94179381      15.61475195                           
Cr       5.73012301       9.92512959      15.61475241                           
I       10.15653396       5.95562795      14.06395847                           
I        6.95510609       8.07898770      14.07089707                           
I        3.51663790       9.78794887      14.07089707                           
I        8.18294609       5.95562973      17.15723785                           
I        7.94338705       9.78766031      17.15707434                           
I        4.50491579       8.07927449      17.15707434                           
Cr       6.87766979       7.94177390       9.03123330                           
Cr       3.43917878       9.92514949       9.03123376                           
I        7.86335378       5.95562795       7.48874545                           
I        4.66439189       8.07927354       7.48890841                           
I        1.22592370       9.78766304       7.48890841                           
I        5.88975810       5.95562973      10.58202506                           
I        5.65267613       9.78794313      10.57507890                           
I        2.21420487       8.07899168      10.57507890                           
Cr       5.73012301      13.89743494      15.61475195                           
Cr       2.29163200      15.88077072      15.61475241                           
I        6.71804295      11.91126908      14.06395847                           
I        3.51661508      14.03462883      14.07089707                           
I        0.07814689      15.74359001      14.07089707                           
I        4.74445508      11.91127086      17.15723785                           
I        4.50489604      15.74330145      17.15707434                           
I        1.06642478      14.03491562      17.15707434                           
Cr       3.43917878      13.89741504       9.03123330                           
Cr       0.00068777      15.88079062       9.03123376                           
I        4.42486276      11.91126908       7.48874545                           
I        1.22590088      14.03491467       7.48890841                           
I       -2.21256731      15.74330417       7.48890841                           
I        2.45126709      11.91127086      10.58202506                           
I        2.21418512      15.74358426      10.57507890                           
I       -1.22428614      14.03463281      10.57507890                           
Cr       2.29163200      19.85307607      15.61475195                           
Cr      -1.14685901      21.83641185      15.61475241                           
I        3.27955194      17.86691022      14.06395847                           
I        0.07812407      19.99026996      14.07089707                           
I       -3.36034412      21.69923114      14.07089707                           
I        1.30596407      17.86691200      17.15723785                           
I        1.06640503      21.69894258      17.15707434                           
I       -2.37206623      19.99055675      17.15707434                           
Cr       0.00068777      19.85305617       9.03123330                           
Cr      -3.43780324      21.83643175       9.03123376                           
I        0.98637175      17.86691022       7.48874545                           
I       -2.21259013      19.99055580       7.48890841                           
I       -5.65105832      21.69894530       7.48890841                           
I       -0.98722392      17.86691200      10.58202506                           
I       -1.22430589      21.69922539      10.57507890                           
I       -4.66277715      19.99027394      10.57507890                           
Cr      -1.14685901      25.80871720      15.61475195                           
Cr      -4.58535002      27.79205298      15.61475241                           
I       -0.15893907      23.82255135      14.06395847                           
I       -3.36036694      25.94591110      14.07089707                           
I       -6.79883513      27.65487227      14.07089707                           
I       -2.13252694      23.82255313      17.15723785                           
I       -2.37208598      27.65458371      17.15707434                           
I       -5.81055724      25.94619789      17.15707434                           
Cr      -3.43780324      25.80869730       9.03123330                           
Cr      -6.87629425      27.79207289       9.03123376                           
I       -2.45211926      23.82255135       7.48874545                           
I       -5.65108114      25.94619693       7.48890841                           
I       -9.08954933      27.65458643       7.48890841                           
I       -4.42571493      23.82255313      10.58202506                           
I       -4.66279691      27.65486652      10.57507890                           
I       -8.10126817      25.94591507      10.57507890                           
Cr      -4.58535002      31.76435833      15.61475195                           
Cr      -8.02384103      33.74769412      15.61475241                           
I       -3.59743008      29.77819248      14.06395847                           
I       -6.79885795      31.90155223      14.07089707                           
I      -10.23732614      33.61051340      14.07089707                           
I       -5.57101795      29.77819426      17.15723785                           
I       -5.81057699      33.61022484      17.15707434                           
I       -9.24904825      31.90183902      17.15707434                           
Cr      -6.87629425      31.76433843       9.03123330                           
Cr     -10.31478526      33.74771402       9.03123376                           
I       -5.89061027      29.77819248       7.48874545                           
I       -9.08957216      31.90183807       7.48890841                           
I      -12.52804035      33.61022756       7.48890841                           
I       -7.86420594      29.77819426      10.58202506                           
I       -8.10128792      33.61050765      10.57507890                           
I      -11.53975918      31.90155621      10.57507890                           
Cr      19.48408705       1.98615267      15.61475195                           
Cr      16.04559604       3.96948846      15.61475241                           
I       20.47200700      -0.00001318      14.06395847                           
I       17.27057912       2.12334657      14.07089707                           
I       13.83211093       3.83230774      14.07089707                           
I       18.49841912      -0.00001140      17.15723785                           
I       18.25886009       3.83201918      17.15707434                           
I       14.82038883       2.12363336      17.15707434                           
Cr      17.19314283       1.98613277       9.03123330                           
Cr      13.75465182       3.96950836       9.03123376                           
I       18.17882681      -0.00001318       7.48874545                           
I       14.97986492       2.12363241       7.48890841                           
I       11.54139673       3.83202190       7.48890841                           
I       16.20523114      -0.00001140      10.58202506                           
I       15.96814916       3.83230199      10.57507890                           
I       12.52967790       2.12335055      10.57507890                           
Cr      16.04559604       7.94179381      15.61475195                           
Cr      12.60710503       9.92512959      15.61475241                           
I       17.03351599       5.95562795      14.06395847                           
I       13.83208811       8.07898770      14.07089707                           
I       10.39361992       9.78794887      14.07089707                           
I       15.05992811       5.95562973      17.15723785                           
I       14.82036907       9.78766031      17.15707434                           
I       11.38189781       8.07927449      17.15707434                           
Cr      13.75465181       7.94177390       9.03123330                           
Cr      10.31616080       9.92514949       9.03123376                           
I       14.74033580       5.95562795       7.48874545                           
I       11.54137391       8.07927354       7.48890841                           
I        8.10290572       9.78766304       7.48890841                           
I       12.76674013       5.95562973      10.58202506                           
I       12.52965815       9.78794313      10.57507890                           
I        9.09118689       8.07899168      10.57507890                           
Cr      12.60710503      13.89743494      15.61475195                           
Cr       9.16861402      15.88077072      15.61475241                           
I       13.59502497      11.91126908      14.06395847                           
I       10.39359710      14.03462883      14.07089707                           
I        6.95512891      15.74359001      14.07089707                           
I       11.62143710      11.91127086      17.15723785                           
I       11.38187806      15.74330145      17.15707434                           
I        7.94340680      14.03491562      17.15707434                           
Cr      10.31616080      13.89741504       9.03123330                           
Cr       6.87766979      15.88079062       9.03123376                           
I       11.30184479      11.91126908       7.48874545                           
I        8.10288290      14.03491467       7.48890841                           
I        4.66441471      15.74330417       7.48890841                           
I        9.32824912      11.91127086      10.58202506                           
I        9.09116714      15.74358426      10.57507890                           
I        5.65269588      14.03463281      10.57507890                           
Cr       9.16861402      19.85307607      15.61475195                           
Cr       5.73012301      21.83641185      15.61475241                           
I       10.15653396      17.86691022      14.06395847                           
I        6.95510609      19.99026996      14.07089707                           
I        3.51663790      21.69923114      14.07089707                           
I        8.18294609      17.86691200      17.15723785                           
I        7.94338705      21.69894258      17.15707434                           
I        4.50491579      19.99055675      17.15707434                           
Cr       6.87766979      19.85305617       9.03123330                           
Cr       3.43917878      21.83643175       9.03123376                           
I        7.86335378      17.86691022       7.48874545                           
I        4.66439189      19.99055580       7.48890841                           
I        1.22592370      21.69894530       7.48890841                           
I        5.88975810      17.86691200      10.58202506                           
I        5.65267613      21.69922539      10.57507890                           
I        2.21420487      19.99027394      10.57507890                           
Cr       5.73012301      25.80871720      15.61475195                           
Cr       2.29163200      27.79205298      15.61475241                           
I        6.71804295      23.82255135      14.06395847                           
I        3.51661508      25.94591110      14.07089707                           
I        0.07814689      27.65487227      14.07089707                           
I        4.74445508      23.82255313      17.15723785                           
I        4.50489604      27.65458371      17.15707434                           
I        1.06642478      25.94619789      17.15707434                           
Cr       3.43917878      25.80869730       9.03123330                           
Cr       0.00068777      27.79207289       9.03123376                           
I        4.42486276      23.82255135       7.48874545                           
I        1.22590088      25.94619693       7.48890841                           
I       -2.21256731      27.65458643       7.48890841                           
I        2.45126709      23.82255313      10.58202506                           
I        2.21418512      27.65486652      10.57507890                           
I       -1.22428614      25.94591507      10.57507890                           
Cr       2.29163200      31.76435833      15.61475195                           
Cr      -1.14685901      33.74769412      15.61475241                           
I        3.27955194      29.77819248      14.06395847                           
I        0.07812407      31.90155223      14.07089707                           
I       -3.36034412      33.61051340      14.07089707                           
I        1.30596407      29.77819426      17.15723785                           
I        1.06640503      33.61022484      17.15707434                           
I       -2.37206623      31.90183902      17.15707434                           
Cr       0.00068777      31.76433843       9.03123330                           
Cr      -3.43780324      33.74771402       9.03123376                           
I        0.98637175      29.77819248       7.48874545                           
I       -2.21259013      31.90183807       7.48890841                           
I       -5.65105832      33.61022756       7.48890841                           
I       -0.98722392      29.77819426      10.58202506                           
I       -1.22430589      33.61050765      10.57507890                           
I       -4.66277715      31.90155621      10.57507890                           
Cr      26.36106908       1.98615267      15.61475195                           
Cr      22.92257807       3.96948846      15.61475241                           
I       27.34898902      -0.00001318      14.06395847                           
I       24.14756114       2.12334657      14.07089707                           
I       20.70909295       3.83230774      14.07089707                           
I       25.37540115      -0.00001140      17.15723785                           
I       25.13584211       3.83201918      17.15707434                           
I       21.69737085       2.12363336      17.15707434                           
Cr      24.07012485       1.98613277       9.03123330                           
Cr      20.63163384       3.96950836       9.03123376                           
I       25.05580883      -0.00001318       7.48874545                           
I       21.85684694       2.12363241       7.48890841                           
I       18.41837875       3.83202190       7.48890841                           
I       23.08221316      -0.00001140      10.58202506                           
I       22.84513118       3.83230199      10.57507890                           
I       19.40665992       2.12335055      10.57507890                           
Cr      22.92257806       7.94179381      15.61475195                           
Cr      19.48408705       9.92512959      15.61475241                           
I       23.91049801       5.95562795      14.06395847                           
I       20.70907013       8.07898770      14.07089707                           
I       17.27060194       9.78794887      14.07089707                           
I       21.93691014       5.95562973      17.15723785                           
I       21.69735110       9.78766031      17.15707434                           
I       18.25887984       8.07927449      17.15707434                           
Cr      20.63163384       7.94177390       9.03123330                           
Cr      17.19314283       9.92514949       9.03123376                           
I       21.61731782       5.95562795       7.48874545                           
I       18.41835593       8.07927354       7.48890841                           
I       14.97988774       9.78766304       7.48890841                           
I       19.64372215       5.95562973      10.58202506                           
I       19.40664017       9.78794313      10.57507890                           
I       15.96816891       8.07899168      10.57507890                           
Cr      19.48408705      13.89743494      15.61475195                           
Cr      16.04559604      15.88077072      15.61475241                           
I       20.47200700      11.91126908      14.06395847                           
I       17.27057912      14.03462883      14.07089707                           
I       13.83211093      15.74359001      14.07089707                           
I       18.49841912      11.91127086      17.15723785                           
I       18.25886009      15.74330145      17.15707434                           
I       14.82038883      14.03491562      17.15707434                           
Cr      17.19314283      13.89741504       9.03123330                           
Cr      13.75465182      15.88079062       9.03123376                           
I       18.17882681      11.91126908       7.48874545                           
I       14.97986492      14.03491467       7.48890841                           
I       11.54139673      15.74330417       7.48890841                           
I       16.20523114      11.91127086      10.58202506                           
I       15.96814916      15.74358426      10.57507890                           
I       12.52967790      14.03463281      10.57507890                           
Cr      16.04559604      19.85307607      15.61475195                           
Cr      12.60710503      21.83641185      15.61475241                           
I       17.03351599      17.86691022      14.06395847                           
I       13.83208811      19.99026996      14.07089707                           
I       10.39361992      21.69923114      14.07089707                           
I       15.05992811      17.86691200      17.15723785                           
I       14.82036907      21.69894258      17.15707434                           
I       11.38189781      19.99055675      17.15707434                           
Cr      13.75465181      19.85305617       9.03123330                           
Cr      10.31616080      21.83643175       9.03123376                           
I       14.74033580      17.86691022       7.48874545                           
I       11.54137391      19.99055580       7.48890841                           
I        8.10290572      21.69894530       7.48890841                           
I       12.76674013      17.86691200      10.58202506                           
I       12.52965815      21.69922539      10.57507890                           
I        9.09118689      19.99027394      10.57507890                           
Cr      12.60710503      25.80871720      15.61475195                           
Cr       9.16861402      27.79205298      15.61475241                           
I       13.59502497      23.82255135      14.06395847                           
I       10.39359710      25.94591110      14.07089707                           
I        6.95512891      27.65487227      14.07089707                           
I       11.62143710      23.82255313      17.15723785                           
I       11.38187806      27.65458371      17.15707434                           
I        7.94340680      25.94619789      17.15707434                           
Cr      10.31616080      25.80869730       9.03123330                           
Cr       6.87766979      27.79207289       9.03123376                           
I       11.30184479      23.82255135       7.48874545                           
I        8.10288290      25.94619693       7.48890841                           
I        4.66441471      27.65458643       7.48890841                           
I        9.32824912      23.82255313      10.58202506                           
I        9.09116714      27.65486652      10.57507890                           
I        5.65269588      25.94591507      10.57507890                           
Cr       9.16861402      31.76435833      15.61475195                           
Cr       5.73012301      33.74769412      15.61475241                           
I       10.15653396      29.77819248      14.06395847                           
I        6.95510609      31.90155223      14.07089707                           
I        3.51663790      33.61051340      14.07089707                           
I        8.18294609      29.77819426      17.15723785                           
I        7.94338705      33.61022484      17.15707434                           
I        4.50491579      31.90183902      17.15707434                           
Cr       6.87766979      31.76433843       9.03123330                           
Cr       3.43917878      33.74771402       9.03123376                           
I        7.86335378      29.77819248       7.48874545                           
I        4.66439189      31.90183807       7.48890841                           
I        1.22592370      33.61022756       7.48890841                           
I        5.88975810      29.77819426      10.58202506                           
I        5.65267613      33.61050765      10.57507890                           
I        2.21420487      31.90155621      10.57507890                           
Cr      33.23805110       1.98615267      15.61475195                           
Cr      29.79956009       3.96948846      15.61475241                           
I       34.22597104      -0.00001318      14.06395847                           
I       31.02454317       2.12334657      14.07089707                           
I       27.58607498       3.83230774      14.07089707                           
I       32.25238317      -0.00001140      17.15723785                           
I       32.01282413       3.83201918      17.15707434                           
I       28.57435287       2.12363336      17.15707434                           
Cr      30.94710687       1.98613277       9.03123330                           
Cr      27.50861586       3.96950836       9.03123376                           
I       31.93279085      -0.00001318       7.48874545                           
I       28.73382897       2.12363241       7.48890841                           
I       25.29536078       3.83202190       7.48890841                           
I       29.95919518      -0.00001140      10.58202506                           
I       29.72211320       3.83230199      10.57507890                           
I       26.28364194       2.12335055      10.57507890                           
Cr      29.79956009       7.94179381      15.61475195                           
Cr      26.36106908       9.92512959      15.61475241                           
I       30.78748003       5.95562795      14.06395847                           
I       27.58605216       8.07898770      14.07089707                           
I       24.14758397       9.78794887      14.07089707                           
I       28.81389216       5.95562973      17.15723785                           
I       28.57433312       9.78766031      17.15707434                           
I       25.13586186       8.07927449      17.15707434                           
Cr      27.50861586       7.94177390       9.03123330                           
Cr      24.07012485       9.92514949       9.03123376                           
I       28.49429984       5.95562795       7.48874545                           
I       25.29533795       8.07927354       7.48890841                           
I       21.85686976       9.78766304       7.48890841                           
I       26.52070417       5.95562973      10.58202506                           
I       26.28362219       9.78794313      10.57507890                           
I       22.84515093       8.07899168      10.57507890                           
Cr      26.36106908      13.89743494      15.61475195                           
Cr      22.92257807      15.88077072      15.61475241                           
I       27.34898902      11.91126908      14.06395847                           
I       24.14756114      14.03462883      14.07089707                           
I       20.70909295      15.74359001      14.07089707                           
I       25.37540115      11.91127086      17.15723785                           
I       25.13584211      15.74330145      17.15707434                           
I       21.69737085      14.03491562      17.15707434                           
Cr      24.07012485      13.89741504       9.03123330                           
Cr      20.63163384      15.88079062       9.03123376                           
I       25.05580883      11.91126908       7.48874545                           
I       21.85684694      14.03491467       7.48890841                           
I       18.41837875      15.74330417       7.48890841                           
I       23.08221316      11.91127086      10.58202506                           
I       22.84513118      15.74358426      10.57507890                           
I       19.40665992      14.03463281      10.57507890                           
Cr      22.92257806      19.85307607      15.61475195                           
Cr      19.48408705      21.83641185      15.61475241                           
I       23.91049801      17.86691022      14.06395847                           
I       20.70907013      19.99026996      14.07089707                           
I       17.27060194      21.69923114      14.07089707                           
I       21.93691014      17.86691200      17.15723785                           
I       21.69735110      21.69894258      17.15707434                           
I       18.25887984      19.99055675      17.15707434                           
Cr      20.63163384      19.85305617       9.03123330                           
Cr      17.19314283      21.83643175       9.03123376                           
I       21.61731782      17.86691022       7.48874545                           
I       18.41835593      19.99055580       7.48890841                           
I       14.97988774      21.69894530       7.48890841                           
I       19.64372215      17.86691200      10.58202506                           
I       19.40664017      21.69922539      10.57507890                           
I       15.96816891      19.99027394      10.57507890                           
Cr      19.48408705      25.80871720      15.61475195                           
Cr      16.04559604      27.79205298      15.61475241                           
I       20.47200700      23.82255135      14.06395847                           
I       17.27057912      25.94591110      14.07089707                           
I       13.83211093      27.65487227      14.07089707                           
I       18.49841912      23.82255313      17.15723785                           
I       18.25886009      27.65458371      17.15707434                           
I       14.82038883      25.94619789      17.15707434                           
Cr      17.19314283      25.80869730       9.03123330                           
Cr      13.75465182      27.79207289       9.03123376                           
I       18.17882681      23.82255135       7.48874545                           
I       14.97986492      25.94619693       7.48890841                           
I       11.54139673      27.65458643       7.48890841                           
I       16.20523114      23.82255313      10.58202506                           
I       15.96814916      27.65486652      10.57507890                           
I       12.52967790      25.94591507      10.57507890                           
Cr      16.04559604      31.76435833      15.61475195                           
Cr      12.60710503      33.74769412      15.61475241                           
I       17.03351599      29.77819248      14.06395847                           
I       13.83208811      31.90155223      14.07089707                           
I       10.39361992      33.61051340      14.07089707                           
I       15.05992811      29.77819426      17.15723785                           
I       14.82036907      33.61022484      17.15707434                           
I       11.38189781      31.90183902      17.15707434                           
Cr      13.75465181      31.76433843       9.03123330                           
Cr      10.31616080      33.74771402       9.03123376                           
I       14.74033580      29.77819248       7.48874545                           
I       11.54137391      31.90183807       7.48890841                           
I        8.10290572      33.61022756       7.48890841                           
I       12.76674013      29.77819426      10.58202506                           
I       12.52965815      33.61050765      10.57507890                           
I        9.09118689      31.90155621      10.57507890                           
Cr      40.11503312       1.98615267      15.61475195                           
Cr      36.67654211       3.96948846      15.61475241                           
I       41.10295306      -0.00001318      14.06395847                           
I       37.90152519       2.12334657      14.07089707                           
I       34.46305700       3.83230774      14.07089707                           
I       39.12936519      -0.00001140      17.15723785                           
I       38.88980615       3.83201918      17.15707434                           
I       35.45133489       2.12363336      17.15707434                           
Cr      37.82408889       1.98613277       9.03123330                           
Cr      34.38559788       3.96950836       9.03123376                           
I       38.80977287      -0.00001318       7.48874545                           
I       35.61081099       2.12363241       7.48890841                           
I       32.17234280       3.83202190       7.48890841                           
I       36.83617720      -0.00001140      10.58202506                           
I       36.59909523       3.83230199      10.57507890                           
I       33.16062397       2.12335055      10.57507890                           
Cr      36.67654211       7.94179381      15.61475195                           
Cr      33.23805110       9.92512959      15.61475241                           
I       37.66446205       5.95562795      14.06395847                           
I       34.46303418       8.07898770      14.07089707                           
I       31.02456599       9.78794887      14.07089707                           
I       35.69087418       5.95562973      17.15723785                           
I       35.45131514       9.78766031      17.15707434                           
I       32.01284388       8.07927449      17.15707434                           
Cr      34.38559788       7.94177390       9.03123330                           
Cr      30.94710687       9.92514949       9.03123376                           
I       35.37128186       5.95562795       7.48874545                           
I       32.17231998       8.07927354       7.48890841                           
I       28.73385179       9.78766304       7.48890841                           
I       33.39768619       5.95562973      10.58202506                           
I       33.16060422       9.78794313      10.57507890                           
I       29.72213296       8.07899168      10.57507890                           
Cr      33.23805110      13.89743494      15.61475195                           
Cr      29.79956009      15.88077072      15.61475241                           
I       34.22597104      11.91126908      14.06395847                           
I       31.02454317      14.03462883      14.07089707                           
I       27.58607498      15.74359001      14.07089707                           
I       32.25238317      11.91127086      17.15723785                           
I       32.01282413      15.74330145      17.15707434                           
I       28.57435287      14.03491562      17.15707434                           
Cr      30.94710687      13.89741504       9.03123330                           
Cr      27.50861586      15.88079062       9.03123376                           
I       31.93279085      11.91126908       7.48874545                           
I       28.73382897      14.03491467       7.48890841                           
I       25.29536078      15.74330417       7.48890841                           
I       29.95919518      11.91127086      10.58202506                           
I       29.72211320      15.74358426      10.57507890                           
I       26.28364194      14.03463281      10.57507890                           
Cr      29.79956009      19.85307607      15.61475195                           
Cr      26.36106908      21.83641185      15.61475241                           
I       30.78748003      17.86691022      14.06395847                           
I       27.58605216      19.99026996      14.07089707                           
I       24.14758397      21.69923114      14.07089707                           
I       28.81389216      17.86691200      17.15723785                           
I       28.57433312      21.69894258      17.15707434                           
I       25.13586186      19.99055675      17.15707434                           
Cr      27.50861586      19.85305617       9.03123330                           
Cr      24.07012485      21.83643175       9.03123376                           
I       28.49429984      17.86691022       7.48874545                           
I       25.29533795      19.99055580       7.48890841                           
I       21.85686976      21.69894530       7.48890841                           
I       26.52070417      17.86691200      10.58202506                           
I       26.28362219      21.69922539      10.57507890                           
I       22.84515093      19.99027394      10.57507890                           
Cr      26.36106908      25.80871720      15.61475195                           
Cr      22.92257807      27.79205298      15.61475241                           
I       27.34898902      23.82255135      14.06395847                           
I       24.14756114      25.94591110      14.07089707                           
I       20.70909295      27.65487227      14.07089707                           
I       25.37540115      23.82255313      17.15723785                           
I       25.13584211      27.65458371      17.15707434                           
I       21.69737085      25.94619789      17.15707434                           
Cr      24.07012485      25.80869730       9.03123330                           
Cr      20.63163384      27.79207289       9.03123376                           
I       25.05580883      23.82255135       7.48874545                           
I       21.85684694      25.94619693       7.48890841                           
I       18.41837875      27.65458643       7.48890841                           
I       23.08221316      23.82255313      10.58202506                           
I       22.84513118      27.65486652      10.57507890                           
I       19.40665992      25.94591507      10.57507890                           
Cr      22.92257806      31.76435833      15.61475195                           
Cr      19.48408705      33.74769412      15.61475241                           
I       23.91049801      29.77819248      14.06395847                           
I       20.70907013      31.90155223      14.07089707                           
I       17.27060194      33.61051340      14.07089707                           
I       21.93691014      29.77819426      17.15723785                           
I       21.69735110      33.61022484      17.15707434                           
I       18.25887984      31.90183902      17.15707434                           
Cr      20.63163384      31.76433843       9.03123330                           
Cr      17.19314283      33.74771402       9.03123376                           
I       21.61731782      29.77819248       7.48874545                           
I       18.41835593      31.90183807       7.48890841                           
I       14.97988774      33.61022756       7.48890841                           
I       19.64372215      29.77819426      10.58202506                           
I       19.40664017      33.61050765      10.57507890                           
I       15.96816891      31.90155621      10.57507890                           
%ENDBLOCK POSITIONS_ABS                                                         
%BLOCK SPECIES                                                                  
Cr Cr 24 -1 15                                                                  
I   I  53 -1 15                                                                 
%ENDBLOCK SPECIES                                                               
%BLOCK SPECIES_ATOMIC_SET                                                       
Cr "SOLVE INIT SPIN=3"                                                          
I   "SOLVE"                                                                     
%ENDBLOCK SPECIES_ATOMIC_SET                                                    
%BLOCK HUBBARD                                                                  
Cr  2 2.97 0.0 -10.0 0.00 0.0                                                   
%ENDBLOCK HUBBARD                                                               
%BLOCK SPECIES_LDOS_GROUPS                                                      
Cr                                                                              
I                                                                               
%ENDBLOCK SPECIES_LDOS_GROUPS                                                   
%BLOCK SPECIES_POT                                                              
Cr  "../../../../Cr.PBE-paw.abinit"                                             
I   "../../../../I.PBE-paw.abinit"                                              
%ENDBLOCK SPECIES_POT                                                           

--------------------------------------------------------------------------------
-------------------------------- END INPUT FILE --------------------------------
--------------------------------------------------------------------------------


 
 ESDF WARNING(1): "charge" (esdf_physical) has no units. Assume "e".
<<<<<<<<<<<<<<<<<<<<<<<<<<<<<<<<< Full system >>>>>>>>>>>>>>>>>>>>>>>>>>>>>>>>>>
<<<<<<<<<<<<<<<<<<<<<<<<<<< PAW Dataset information >>>>>>>>>>>>>>>>>>>>>>>>>>>
File: ../../../../Cr.PBE-paw.abinit; rc = 2.11 bohr; shape type =  2; rshape = 1.80 bohr;
  Atomic number: 24;  ionic charge: 14.000000
    Partial Wave 1: l = 0
    Partial Wave 2: l = 0
    Partial Wave 3: l = 1
    Partial Wave 4: l = 1
    Partial Wave 5: l = 2
    Partial Wave 6: l = 2
  Core charge supplied for Nonlinear Core Corrections
File: ../../../../I.PBE-paw.abinit; rc = 2.30 bohr; shape type =  2; rshape = 2.11 bohr;
  Atomic number: 53;  ionic charge:  7.000000
    Partial Wave 1: l = 0
    Partial Wave 2: l = 0
    Partial Wave 3: l = 1
    Partial Wave 4: l = 1
  Core charge supplied for Nonlinear Core Corrections
<<<<<<<<<<<<<<<<<<<<<<<<<<<<<<<<<<<<<<< >>>>>>>>>>>>>>>>>>>>>>>>>>>>>>>>>>>>>>>

-------------------------- Atom counting information ---------------------------
Symbol    Natoms    Nngwfs    Nprojs
  Cr       144      1872      2592
  I        432      1728      3456
.......   ......    ......    ......
Totals:    576      3600      6048
--------------------------------------------------------------------------------

=============================== PSINC grid sizes ===============================
                      Simulation cell:  175 x 175 x 117
                              FFT-box:  175 x 175 x 117
                                  PPD:    5 x   5 x   1
Grid space d1=  0.445563862424a0 (KE cutoff=  38.26345Eh =1041.20135eV)
Grid space d2=  0.445563862400a0 (KE cutoff=  38.26345Eh =1041.20135eV)
Grid space d3=  0.444294449711a0 (KE cutoff=  38.48241Eh =1047.15957eV)
================================================================================

********************* Fourier parallelisation information **********************
       Coarse grid (whole simulation cell) dimensions:    175   175   117
          Real-space ('12') slabs/proc (min max mean):      0     1     0
         Recip-space ('23') slabs/proc (min max mean):      0     1     0
********************************************************************************

********************* Fourier parallelisation information **********************
       Double grid (whole simulation cell) dimensions:    350   350   234
          Real-space ('12') slabs/proc (min max mean):      1     2     1
         Recip-space ('23') slabs/proc (min max mean):      1     2     1
********************************************************************************

********************* Fourier parallelisation information **********************
         Fine grid (whole simulation cell) dimensions:    700   700   468
          Real-space ('12') slabs/proc (min max mean):      2     3     2
         Recip-space ('23') slabs/proc (min max mean):      2     3     2
********************************************************************************

Atom SCF Calculation for Cr : Z (AE atom) =  24 : Z (PS atom) =  14
Config String: 3s2.0 3p6.0 3d5.0 4s1.0 4p0.0 INIT SPIN=3
Orbitals (num,occ):  5     2.00 6.00 5.00 1.00 0.00
Orbitals   (num,l):  5        0    1    2    0    1
Atom SCF converged after  64 iterations to a total energy of    -87.07044631
Adjusting orbital occupancies:
Orbitals (num,spin,occ):  5  1     1.00 3.00 3.50 1.00 0.00
Orbitals   (num,spin,l):  5  1        0    1    2    0    1
Orbitals (num,spin,occ):  5  2     1.00 3.00 1.00 0.50 0.00
Orbitals   (num,spin,l):  5  2        0    1    2    0    1

Atom SCF Calculation for I  : Z (AE atom) =  53 : Z (PS atom) =   7
Config String: 5s2.0 5p5.0
Orbitals (num,occ):  2     2.00 5.00
Orbitals   (num,l):  2        0    1
Atom SCF converged after  28 iterations to a total energy of    -11.61352964

Atom SCF Calculation for Cr : Z (AE atom) =  24 : Z (PS atom) =  14
Config String: 3s2.0 3p6.0 3d5.0 4s1.0 4p0.0 INIT SPIN=3
Orbitals (num,occ):  5     2.00 6.00 5.00 1.00 0.00
Orbitals   (num,l):  5        0    1    2    0    1
Atom SCF converged after  64 iterations to a total energy of    -87.07044631

Atom SCF Calculation for I  : Z (AE atom) =  53 : Z (PS atom) =   7
Config String: 5s2.0 5p5.0
Orbitals (num,occ):  2     2.00 5.00
Orbitals   (num,l):  2        0    1
Atom SCF converged after  28 iterations to a total energy of    -11.61352964

Determining parallel strategy ...... done
Calculating Ewald energy ...            31475.177180 Hartree
Basis initialisation ...
... done

============================= Charge Augmentation ==============================
                           Aug box size:   49 x  49 x  45
================================================================================
Sparse matrix initialisation ...
 done
NGWF initialisation ... done
 done

================================= Core Density =================================
               Core den box size:  125 x 125 x 105
================================================================================
Density kernel initialisation

--------------------------- Ensemble-DFT optimisation --------------------------
Running ScaLAPACK on  175 processor(s).
With smearing scheme: FERMIDIRAC                                                                      

--------------------------------------------------------------------------------
  Iter                              Commutator    Free_energy(A=E-TS)     DeltaA
#    0                          0.005662785081  -17493.31558956548180  -1.75E+04
#    1                          0.002515441879  -17571.32054886761760  -7.80E+01
#    2                          0.000203340905  -17613.39365014792930  -4.21E+01
#    3                          0.000170712505  -17613.74817631165930  -3.55E-01
#    4                          0.000139453575  -17613.97439494693030  -2.26E-01
#    5                          0.000104217249  -17614.13304730980600  -1.59E-01
Finished EDFT density kernel iterations (   5)


Writing density kernel to file "Cr2I6_bilayer_HT_AFM_FM_nSP.dkn" ... done

Writing Hamiltonian to file "Cr2I6_bilayer_HT_AFM_FM_nSP.ham" ... done

Writing density kernel to file "Cr2I6_bilayer_HT_AFM_FM_nSP.dkn" ... done

>>> Optimising kernel for current NGWFs:
   iter  |      energy (Eh)       | rms gradient |  commutator  |   dE (Eh)
    1        -1.761413269756E+04     1.9006E-04     1.0395E-04
    2        -1.761420067157E+04     2.0999E-04     1.0602E-04    -6.7974E-02
    3        -1.761429992414E+04     2.2637E-04     1.1291E-04    -9.9253E-02
    4        -1.761437399187E+04     1.4267E-04     7.1830E-05    -7.4068E-02
    5        -1.761440588216E+04     8.6829E-05     4.4046E-05    -3.1890E-02
Finished density kernel iterations (   5)

Writing density kernel to file "Cr2I6_bilayer_HT_AFM_FM_nSP.dkn" ... done


>>> Density kernel optimised for the current NGWF basis:
     ~~~~~~~~~~~~~~~~~~~~~~~~~~~~~~~~~~~~~~~~~~~~~~~~~~~~~~~~~~~
     Total energy                =  -1.76144058821586E+04  Eh
     Estimated bandgap (UP spin) =   3.6310E-02  Eh
     Estimated bandgap (DN spin) =   1.0681E-01  Eh
     RMS occupancy error         =   4.6782E-13
     [H,K] commutator            =   4.4046E-05
     UP spin occupancy bounds    = [  0.000:  1.000]
     DN spin occupancy bounds    = [  0.000:  1.000]
     ~~~~~~~~~~~~~~~~~~~~~~~~~~~~~~~~~~~~~~~~~~~~~~~~~~~~~~~~~~~




################################################################################
########################### NGWF CG iteration  001 #############################
################################################################################

>>> Checking for convergence of NGWFs:   NOT CONVERGED
  ========================================================================
         NGWF RMS gradient =  9.8363E-05 >  1.0000E-06  | above tolerance
  ========================================================================

>>> Improving NGWFs using line search:
  ========================================================================
   Predicted total energy    =      -1.76222173926302E+04 Eh
   Predicted gain in energy  =      -7.81151047151798E+00 Eh
  ========================================================================

Writing NGWFs to file "Cr2I6_bilayer_HT_AFM_FM_nSP.tightbox_ngwfs".... done

>>> Optimising kernel for current NGWFs:
   iter  |      energy (Eh)       | rms gradient |  commutator  |   dE (Eh)
    1        -1.762220023228E+04     5.0971E-04     2.6066E-04
    2        -1.762255529072E+04     1.8195E-04     9.2678E-05    -3.5506E-01
    3        -1.762258733693E+04     9.2152E-05     4.6467E-05    -3.2046E-02
    4        -1.762259997821E+04     7.3483E-05     3.7256E-05    -1.2641E-02
    5        -1.762260778733E+04     4.2760E-05     2.1899E-05    -7.8091E-03
Finished density kernel iterations (   5)

Writing density kernel to file "Cr2I6_bilayer_HT_AFM_FM_nSP.dkn" ... done


>>> Density kernel optimised for the current NGWF basis:
     ~~~~~~~~~~~~~~~~~~~~~~~~~~~~~~~~~~~~~~~~~~~~~~~~~~~~~~~~~~~
     Total energy                =  -1.76226077873284E+04  Eh
     Estimated bandgap (UP spin) =   4.0920E-02  Eh
     Estimated bandgap (DN spin) =   1.1325E-01  Eh
     RMS occupancy error         =   8.7646E-10
     [H,K] commutator            =   2.1899E-05
     UP spin occupancy bounds    = [ -0.000:  1.000]
     DN spin occupancy bounds    = [ -0.000:  1.000]
     ~~~~~~~~~~~~~~~~~~~~~~~~~~~~~~~~~~~~~~~~~~~~~~~~~~~~~~~~~~~




################################################################################
########################### NGWF CG iteration  002 #############################
################################################################################

>>> Checking for convergence of NGWFs:   NOT CONVERGED
  ========================================================================
         NGWF RMS gradient =  6.6936E-05 >  1.0000E-06  | above tolerance
  Maximum change in energy =  1.4239E-02 >  2.0000E-07  | above tolerance
  ========================================================================

>>> Improving NGWFs using line search:
  ========================================================================
   Predicted total energy    =      -1.76250841356612E+04 Eh
   Predicted gain in energy  =      -2.47634833285701E+00 Eh
  ========================================================================

Writing NGWFs to file "Cr2I6_bilayer_HT_AFM_FM_nSP.tightbox_ngwfs".... done

>>> Optimising kernel for current NGWFs:
   iter  |      energy (Eh)       | rms gradient |  commutator  |   dE (Eh)
    1        -1.762507429903E+04     1.7019E-04     8.8064E-05
    2        -1.762511862876E+04     5.4342E-05     2.7921E-05    -4.4330E-02
    3        -1.762512295699E+04     5.8451E-05     3.0169E-05    -4.3282E-03
    4        -1.762513048017E+04     4.5688E-05     2.3621E-05    -7.5232E-03
    5        -1.762513322302E+04     4.0742E-05     2.0698E-05    -2.7429E-03
Finished density kernel iterations (   5)

Writing density kernel to file "Cr2I6_bilayer_HT_AFM_FM_nSP.dkn" ... done


>>> Density kernel optimised for the current NGWF basis:
     ~~~~~~~~~~~~~~~~~~~~~~~~~~~~~~~~~~~~~~~~~~~~~~~~~~~~~~~~~~~
     Total energy                =  -1.76251332230239E+04  Eh
     Estimated bandgap (UP spin) =   3.9551E-02  Eh
     Estimated bandgap (DN spin) =   1.1329E-01  Eh
     RMS occupancy error         =   1.1896E-09
     [H,K] commutator            =   2.0698E-05
     UP spin occupancy bounds    = [  0.000:  1.000]
     DN spin occupancy bounds    = [ -0.000:  1.000]
     ~~~~~~~~~~~~~~~~~~~~~~~~~~~~~~~~~~~~~~~~~~~~~~~~~~~~~~~~~~~




################################################################################
########################### NGWF CG iteration  003 #############################
################################################################################

>>> Checking for convergence of NGWFs:   NOT CONVERGED
  ========================================================================
         NGWF RMS gradient =  4.1311E-05 >  1.0000E-06  | above tolerance
  Maximum change in energy =  1.4239E-02 >  2.0000E-07  | above tolerance
  ========================================================================

>>> Improving NGWFs using line search:
  ========================================================================
   Predicted total energy    =      -1.76261973093621E+04 Eh
   Predicted gain in energy  =      -1.06408633816318E+00 Eh
  ========================================================================

Writing NGWFs to file "Cr2I6_bilayer_HT_AFM_FM_nSP.tightbox_ngwfs".... done

>>> Optimising kernel for current NGWFs:
   iter  |      energy (Eh)       | rms gradient |  commutator  |   dE (Eh)
    1        -1.762618635763E+04     1.7516E-04     8.9449E-05
    2        -1.762621999951E+04     8.2747E-05     4.2887E-05    -3.3642E-02
    3        -1.762622585320E+04     3.1703E-05     1.6136E-05    -5.8537E-03
    4        -1.762622745272E+04     2.6608E-05     1.3338E-05    -1.5995E-03
    5        -1.762622886630E+04     1.6742E-05     8.2545E-06    -1.4136E-03
Finished density kernel iterations (   5)

Writing density kernel to file "Cr2I6_bilayer_HT_AFM_FM_nSP.dkn" ... done


>>> Density kernel optimised for the current NGWF basis:
     ~~~~~~~~~~~~~~~~~~~~~~~~~~~~~~~~~~~~~~~~~~~~~~~~~~~~~~~~~~~
     Total energy                =  -1.76262288663001E+04  Eh
     Estimated bandgap (UP spin) =   3.9256E-02  Eh
     Estimated bandgap (DN spin) =   1.1383E-01  Eh
     RMS occupancy error         =   1.6754E-10
     [H,K] commutator            =   8.2545E-06
     UP spin occupancy bounds    = [  0.000:  1.000]
     DN spin occupancy bounds    = [  0.000:  1.000]
     ~~~~~~~~~~~~~~~~~~~~~~~~~~~~~~~~~~~~~~~~~~~~~~~~~~~~~~~~~~~




################################################################################
########################### NGWF CG iteration  004 #############################
################################################################################

>>> Checking for convergence of NGWFs:   NOT CONVERGED
  ========================================================================
         NGWF RMS gradient =  2.9918E-05 >  1.0000E-06  | above tolerance
  Maximum change in energy =  4.3844E-03 >  2.0000E-07  | above tolerance
  ========================================================================

>>> Improving NGWFs using line search:
  ========================================================================
   Predicted total energy    =      -1.76268126727347E+04 Eh
   Predicted gain in energy  =      -5.83806434642611E-01 Eh
  ========================================================================

Writing NGWFs to file "Cr2I6_bilayer_HT_AFM_FM_nSP.tightbox_ngwfs".... done

>>> Optimising kernel for current NGWFs:
   iter  |      energy (Eh)       | rms gradient |  commutator  |   dE (Eh)
    1        -1.762680202907E+04     6.1569E-05     3.1690E-05
    2        -1.762680771574E+04     3.7580E-05     1.8960E-05    -5.6867E-03
    3        -1.762680962229E+04     2.7846E-05     1.3635E-05    -1.9065E-03
    4        -1.762681098169E+04     2.9393E-05     1.4847E-05    -1.3594E-03
    5        -1.762681193752E+04     1.8682E-05     9.5558E-06    -9.5583E-04
Finished density kernel iterations (   5)

Writing density kernel to file "Cr2I6_bilayer_HT_AFM_FM_nSP.dkn" ... done


>>> Density kernel optimised for the current NGWF basis:
     ~~~~~~~~~~~~~~~~~~~~~~~~~~~~~~~~~~~~~~~~~~~~~~~~~~~~~~~~~~~
     Total energy                =  -1.76268119375194E+04  Eh
     Estimated bandgap (UP spin) =   3.8441E-02  Eh
     Estimated bandgap (DN spin) =   1.1415E-01  Eh
     RMS occupancy error         =   1.7876E-10
     [H,K] commutator            =   9.5558E-06
     UP spin occupancy bounds    = [  0.000:  1.000]
     DN spin occupancy bounds    = [ -0.000:  1.000]
     ~~~~~~~~~~~~~~~~~~~~~~~~~~~~~~~~~~~~~~~~~~~~~~~~~~~~~~~~~~~




################################################################################
########################### NGWF CG iteration  005 #############################
################################################################################

>>> Checking for convergence of NGWFs:   NOT CONVERGED
  ========================================================================
         NGWF RMS gradient =  2.0844E-05 >  1.0000E-06  | above tolerance
  Maximum change in energy =  1.9022E-03 >  2.0000E-07  | above tolerance
  ========================================================================

>>> Improving NGWFs using line search:
  ========================================================================
   Predicted total energy    =      -1.76269817623310E+04 Eh
   Predicted gain in energy  =      -1.69824811633589E-01 Eh
  ========================================================================

Writing NGWFs to file "Cr2I6_bilayer_HT_AFM_FM_nSP.tightbox_ngwfs".... done

>>> Optimising kernel for current NGWFs:
   iter  |      energy (Eh)       | rms gradient |  commutator  |   dE (Eh)
    1        -1.762698106801E+04     1.2726E-05     6.4155E-06
    2        -1.762698142187E+04     2.2860E-05     1.1027E-05    -3.5386E-04
    3        -1.762698188266E+04     2.1746E-05     1.0708E-05    -4.6079E-04
    4        -1.762698221253E+04     1.6285E-05     8.1481E-06    -3.2986E-04
    5        -1.762697928680E+04     7.2728E-05     3.6017E-05     2.9257E-03
Finished density kernel iterations (   5)

Writing density kernel to file "Cr2I6_bilayer_HT_AFM_FM_nSP.dkn" ... done


>>> Density kernel optimised for the current NGWF basis:
     ~~~~~~~~~~~~~~~~~~~~~~~~~~~~~~~~~~~~~~~~~~~~~~~~~~~~~~~~~~~
     Total energy                =  -1.76269792868021E+04  Eh
     Estimated bandgap (UP spin) =   3.8229E-02  Eh
     Estimated bandgap (DN spin) =   1.1482E-01  Eh
     RMS occupancy error         =   2.2027E-09
     [H,K] commutator            =   3.6017E-05
     UP spin occupancy bounds    = [ -0.000:  1.000]
     DN spin occupancy bounds    = [ -0.000:  1.000]
     ~~~~~~~~~~~~~~~~~~~~~~~~~~~~~~~~~~~~~~~~~~~~~~~~~~~~~~~~~~~




################################################################################
########################### NGWF CG iteration  006 #############################
################################################################################

>>> Checking for convergence of NGWFs:   NOT CONVERGED
  ========================================================================
         NGWF RMS gradient =  1.4548E-05 >  1.0000E-06  | above tolerance
  Maximum change in energy =  1.0123E-03 >  2.0000E-07  | above tolerance
  ========================================================================

>>> Improving NGWFs using line search:
  ========================================================================
   Predicted total energy    =      -1.76271156878471E+04 Eh
   Predicted gain in energy  =      -1.36401044994273E-01 Eh
  ========================================================================

Writing NGWFs to file "Cr2I6_bilayer_HT_AFM_FM_nSP.tightbox_ngwfs".... done

>>> Optimising kernel for current NGWFs:
   iter  |      energy (Eh)       | rms gradient |  commutator  |   dE (Eh)
    1        -1.762711136155E+04     5.9158E-05     2.9723E-05
    2        -1.762711455051E+04     2.4904E-05     1.2588E-05    -3.1890E-03
    3        -1.762711549069E+04     2.1396E-05     1.0741E-05    -9.4018E-04
    4        -1.762711608451E+04     7.3634E-06     3.7691E-06    -5.9381E-04
    5        -1.762711616092E+04     6.5434E-06     3.4197E-06    -7.6412E-05
Finished density kernel iterations (   5)

Writing density kernel to file "Cr2I6_bilayer_HT_AFM_FM_nSP.dkn" ... done


>>> Density kernel optimised for the current NGWF basis:
     ~~~~~~~~~~~~~~~~~~~~~~~~~~~~~~~~~~~~~~~~~~~~~~~~~~~~~~~~~~~
     Total energy                =  -1.76271161609196E+04  Eh
     Estimated bandgap (UP spin) =   3.7042E-02  Eh
     Estimated bandgap (DN spin) =   1.1311E-01  Eh
     RMS occupancy error         =   8.6232E-13
     [H,K] commutator            =   3.4197E-06
     UP spin occupancy bounds    = [  0.000:  1.000]
     DN spin occupancy bounds    = [  0.000:  1.000]
     ~~~~~~~~~~~~~~~~~~~~~~~~~~~~~~~~~~~~~~~~~~~~~~~~~~~~~~~~~~~




################################################################################
########################### NGWF CG iteration  007 #############################
################################################################################

[...]
*    I     436     -0.00267863  -0.00435662  -0.00610765 *
*    I     437     -0.00269203   0.00437589  -0.00610313 *
*    I     438     -0.00495000   0.00000046   0.00878417 *
*    I     439      0.00246757   0.00429579   0.00878020 *
*    I     440      0.00246918  -0.00431305   0.00877592 *
*    Cr    441      0.00006568  -0.00022536   0.00009618 *
*    Cr    442      0.00004879   0.00019513   0.00009766 *
*    I     443      0.00494495   0.00000367  -0.00878348 *
*    I     444     -0.00246630  -0.00429487  -0.00877847 *
*    I     445     -0.00247757   0.00430693  -0.00877363 *
*    I     446     -0.00478621  -0.00000644   0.00679071 *
*    I     447      0.00268033   0.00435574   0.00610694 *
*    I     448      0.00268233  -0.00438124   0.00610384 *
*    Cr    449      0.00002939  -0.00016087  -0.00008853 *
*    Cr    450     -0.00007419   0.00020229  -0.00009460 *
*    I     451      0.00478355   0.00000530  -0.00679444 *
*    I     452     -0.00268336  -0.00435576  -0.00611160 *
*    I     453     -0.00269196   0.00437626  -0.00610328 *
*    I     454     -0.00495201  -0.00000279   0.00878719 *
*    I     455      0.00246546   0.00429900   0.00878337 *
*    I     456      0.00246971  -0.00431219   0.00877480 *
*    Cr    457      0.00006104  -0.00020683   0.00009421 *
*    Cr    458      0.00005494   0.00020015   0.00009089 *
*    I     459      0.00494588   0.00000626  -0.00878537 *
*    I     460     -0.00246763  -0.00429469  -0.00877912 *
*    I     461     -0.00247603   0.00431054  -0.00877466 *
*    I     462     -0.00478651  -0.00000590   0.00679189 *
*    I     463      0.00267910   0.00435502   0.00610782 *
*    I     464      0.00268458  -0.00437787   0.00610238 *
*    Cr    465      0.00002833  -0.00016074  -0.00008801 *
*    Cr    466      0.00002815   0.00014790  -0.00009249 *
*    I     467      0.00478295   0.00001173  -0.00679110 *
*    I     468     -0.00267899  -0.00435513  -0.00610792 *
*    I     469     -0.00268785   0.00437899  -0.00610225 *
*    I     470     -0.00495132  -0.00000189   0.00878499 *
*    I     471      0.00246675   0.00429543   0.00877995 *
*    I     472      0.00246996  -0.00431388   0.00877568 *
*    Cr    473      0.00006402  -0.00020797   0.00009610 *
*    Cr    474      0.00004647   0.00021125   0.00009504 *
*    I     475      0.00494786   0.00000704  -0.00878554 *
*    I     476     -0.00246782  -0.00429474  -0.00877991 *
*    I     477     -0.00247553   0.00431218  -0.00877447 *
*    I     478     -0.00478527  -0.00000419   0.00679061 *
*    I     479      0.00267933   0.00435459   0.00610843 *
*    I     480      0.00268532  -0.00437619   0.00610172 *
*    Cr    481     -0.00006957  -0.00020916  -0.00009764 *
*    Cr    482      0.00003360   0.00014158  -0.00009121 *
*    I     483      0.00478378   0.00000987  -0.00679154 *
*    I     484     -0.00268069  -0.00435342  -0.00610943 *
*    I     485     -0.00268949   0.00437759  -0.00610196 *
*    I     486     -0.00495070  -0.00000016   0.00878286 *
*    I     487      0.00246451   0.00429300   0.00877833 *
*    I     488      0.00247136  -0.00431039   0.00877483 *
*    Cr    489      0.00006359  -0.00020099   0.00009765 *
*    Cr    490      0.00005186   0.00021597   0.00009718 *
*    I     491      0.00494548   0.00000293  -0.00878421 *
*    I     492     -0.00246711  -0.00429442  -0.00877909 *
*    I     493     -0.00247836   0.00430870  -0.00877508 *
*    I     494     -0.00478441  -0.00000492   0.00679029 *
*    I     495      0.00267988   0.00435425   0.00610811 *
*    I     496      0.00268405  -0.00437951   0.00610303 *
*    Cr    497     -0.00005860  -0.00021050  -0.00009398 *
*    Cr    498     -0.00006837   0.00020644  -0.00009366 *
*    I     499      0.00478199   0.00000668  -0.00679078 *
*    I     500     -0.00267990  -0.00435636  -0.00610876 *
*    I     501     -0.00269287   0.00437684  -0.00610303 *
*    I     502     -0.00494930  -0.00000143   0.00878294 *
*    I     503      0.00246557   0.00429287   0.00877919 *
*    I     504      0.00246756  -0.00431181   0.00877130 *
*    Cr    505      0.00006268  -0.00018848   0.00009077 *
*    Cr    506      0.00004524   0.00021729   0.00009717 *
*    I     507      0.00494638   0.00000231  -0.00878519 *
*    I     508     -0.00246716  -0.00429403  -0.00877956 *
*    I     509     -0.00247911   0.00430775  -0.00877402 *
*    I     510     -0.00478644  -0.00000574   0.00679090 *
*    I     511      0.00267939   0.00435342   0.00610834 *
*    I     512      0.00268483  -0.00437873   0.00610211 *
*    Cr    513     -0.00005541  -0.00021741  -0.00009258 *
*    Cr    514     -0.00007124   0.00021712  -0.00009448 *
*    I     515      0.00478026   0.00000760  -0.00678843 *
*    I     516     -0.00268032  -0.00435606  -0.00610853 *
*    I     517     -0.00269381   0.00437559  -0.00610379 *
*    I     518     -0.00495160  -0.00000152   0.00878487 *
*    I     519      0.00246563   0.00429458   0.00877884 *
*    I     520      0.00246797  -0.00431373   0.00877558 *
*    Cr    521      0.00004973  -0.00018736   0.00009764 *
*    Cr    522      0.00007592   0.00020932   0.00009226 *
*    I     523      0.00494528   0.00000399  -0.00878451 *
*    I     524     -0.00246795  -0.00429424  -0.00877966 *
*    I     525     -0.00247877   0.00430939  -0.00877361 *
*    I     526     -0.00478762  -0.00000759   0.00679196 *
*    I     527      0.00267870   0.00435421   0.00610837 *
*    I     528      0.00268356  -0.00438086   0.00610286 *
*    Cr    529     -0.00006143  -0.00023890  -0.00009299 *
*    Cr    530     -0.00007614   0.00019556  -0.00009727 *
*    I     531      0.00477894   0.00000737  -0.00679075 *
*    I     532     -0.00268035  -0.00435571  -0.00610951 *
*    I     533     -0.00269280   0.00437590  -0.00610446 *
*    I     534     -0.00495059  -0.00000141   0.00878579 *
*    I     535      0.00246624   0.00429382   0.00878031 *
*    I     536      0.00246729  -0.00431317   0.00877498 *
*    Cr    537      0.00007008  -0.00022156   0.00009686 *
*    Cr    538      0.00006039   0.00019877   0.00009240 *
*    I     539      0.00494808   0.00000532  -0.00878570 *
*    I     540     -0.00246684  -0.00429493  -0.00877902 *
*    I     541     -0.00247677   0.00431229  -0.00877496 *
*    I     542     -0.00478720  -0.00000702   0.00679223 *
*    I     543      0.00267889   0.00435398   0.00610690 *
*    I     544      0.00268278  -0.00437986   0.00610193 *
*    Cr    545     -0.00006239  -0.00022289  -0.00009508 *
*    Cr    546     -0.00007888   0.00019690  -0.00009821 *
*    I     547      0.00478136   0.00001146  -0.00679191 *
*    I     548     -0.00268144  -0.00435472  -0.00610902 *
*    I     549     -0.00268919   0.00438026  -0.00610679 *
*    I     550     -0.00495225  -0.00000379   0.00878610 *
*    I     551      0.00246703   0.00429465   0.00878000 *
*    I     552      0.00246999  -0.00431515   0.00877908 *
*    Cr    553      0.00007409  -0.00020839   0.00009496 *
*    Cr    554      0.00005272   0.00019965   0.00009888 *
*    I     555      0.00494740   0.00000768  -0.00878534 *
*    I     556     -0.00246782  -0.00429451  -0.00878007 *
*    I     557     -0.00247615   0.00431277  -0.00877519 *
*    I     558     -0.00478480  -0.00000268   0.00678982 *
*    I     559      0.00267865   0.00435445   0.00610835 *
*    I     560      0.00268419  -0.00437760   0.00610126 *
*    Cr    561     -0.00006736  -0.00021252  -0.00010000 *
*    Cr    562     -0.00008070   0.00020064  -0.00009700 *
*    I     563      0.00478213   0.00001107  -0.00679139 *
*    I     564     -0.00268079  -0.00435457  -0.00610907 *
*    I     565     -0.00269067   0.00437989  -0.00610553 *
*    I     566     -0.00495064  -0.00000212   0.00878431 *
*    I     567      0.00246589   0.00429415   0.00877962 *
*    I     568      0.00246902  -0.00431121   0.00877410 *
*    Cr    569      0.00006925  -0.00020447   0.00009876 *
*    Cr    570      0.00005224   0.00021041   0.00009781 *
*    I     571      0.00494512   0.00000567  -0.00878486 *
*    I     572     -0.00246729  -0.00429356  -0.00877933 *
*    I     573     -0.00247621   0.00430928  -0.00877434 *
*    I     574     -0.00478559  -0.00000338   0.00679177 *
*    I     575      0.00267957   0.00435568   0.00610726 *
*    I     576      0.00268573  -0.00437729   0.00610297 *
*                                                        *
**********************************************************
* TOTAL:           -0.00000000  -0.00000000  -0.00000000 *
**********************************************************
 
 
***********************************************************
********** Summary of Forces (values in Eh/a) *************
*                                                         *
* ---------------------- Minimum ------------------------ *
* Atom:       482, |F|min =    0.00017173                 *
* Components:     Fx|min       Fy|min       Fz|min        *
*               0.00003360   0.00014158  -0.00009121      *
*                                                         *
* ---------------------- Maximum ------------------------ *
* Atom:       552, |F|max =    0.01008928                 *
* Components:     Fx|max       Fy|max       Fz|max        *
*               0.00246999  -0.00431515   0.00877908      *
*                                                         *
* ---------------- Root Mean Square Force --------------- *
*                  |F|rms =    0.00791487                 *
* Components:     Fx|rms       Fy|rms       Fz|rms        *
*               0.00304103   0.00306684   0.00663263      *
***********************************************************
 

------------------------------ TIMING INFORMATION ------------------------------
AVERAGE TIME:   29861.813s on    175 proc(s)                                    
TOTAL TIME:     29861.813s on    175 proc(s)                                    
==================== AVERAGE TIMINGS FROM ALL PROCS (CUMULATIVE) =====================
|| TAG                                         #calls     cpu time   %total  Gflops ||
|| hubbard_species_proj                       :     1        0.00s   0.000%  ------ ||
|| sw_bessel_init_cpu                         :     1        0.01s   0.000%  ------ || (1 procs only)
|| hubbard_projector_character                :     1        0.00s   0.000%  ------ ||
|| density_fftbox_interp_mult_imbal           : 10836        0.00s   0.000%  ------ ||
|| onetep.F90 final imbalance                 :     1        0.00s   0.000%  ------ ||
|| hubbard_ngwf_select                        :     1        0.00s   0.000%  ------ ||
|| hubbard_ngwf_on_grid                       :     1        0.00s   0.000%  ------ ||
|| ewald_calculate_forces_realspace           :     1        0.01s   0.000%  ------ ||
|| linalg_invert_sym_matrix                   :     2        0.01s   0.000%  ------ || (144 procs only)
|| hubbard_tensorial_correction               :     2        0.01s   0.000%  ------ ||
|| hash_table_free                            :    47        0.02s   0.000%  ------ ||
|| linalg_dgemv                               :    24        0.02s   0.000%  ------ ||
|| ewald_calculate_energy                     :     1        0.04s   0.000%  ------ ||
|| onetep.F90 main loop imbalance             :     1        0.05s   0.000%  ------ ||
|| sparse_spam3toblacs_real_fast_imbal        :    78        0.05s   0.000%  ------ ||
|| sparse_blacstospam3_real_fast_imbal        :    92        0.06s   0.000%  ------ ||
|| ewald_calculate_forces_recipspace          :     1        0.07s   0.000%  ------ ||
|| sw_init                                    :   515        0.14s   0.000%  ------ ||
|| ewald_calculate_forces                     :     1        0.16s   0.001%  ------ ||
|| pseudo_make_structure_factor               :     1        0.20s   0.001%  ------ ||
|| paw_dij_hartree                            :   285        0.24s   0.001%  ------ ||
|| sparse_set_to_garbage                      :   697        0.26s   0.001%  ------ ||
|| sparse_spam3toblacs_real_fast_B2           : 13650        0.28s   0.001%  ------ ||
|| augmentation_density_forces                :     1        0.33s   0.001%  ------ ||
|| basis_extract_function_from_box            :  1892        0.35s   0.001%  ------ ||
|| paw_tcore_hartree_on_grid                  :     1        0.53s   0.002%  ------ ||
|| restart_hamiltonian_write                  :     2        0.84s   0.003%  ------ ||
|| paw_tcore_hartree_calc_forces              :     1        0.86s   0.003%  ------ ||
|| paw_tcore_density                          :     1        1.69s   0.006%  ------ ||
|| paw_nlcc_calculate_forces                  :     1        1.99s   0.007%  ------ ||
|| ngwfs_initialise_from_radial               :     2        2.11s   0.007%  ------ ||
|| paw_dataset_init                           :     2        2.16s   0.007%  ------ ||
|| nonsc_forces_ngwfs_calc                    :     1        2.22s   0.007%  ------ ||
|| paw_sphere_density_on_grid                 :     1        2.27s   0.008%  ------ ||
|| sparse_init                                :     1        2.47s   0.008%  ------ ||
|| hubbard_projection_mtx                     :    49        2.54s   0.009%  ------ ||
|| hubbard_ham_matrix                         :   123        5.68s   0.019%  ------ ||
|| hubbard_projector_ham                      :   122        6.97s   0.023%  ------ ||
|| paw_species_calc_proj_prec_mat             :     1        9.18s   0.031%  ------ ||
|| sparse_embed_array_hotelling_invert        :    47       10.22s   0.034%  ------ ||
|| sparse_spam3toblacs_real_fast_B1           : 13650       10.82s   0.036%  ------ ||
|| sparse_spam3toblacs_real_fast              :    78       11.74s   0.039%  ------ ||
|| hubbard_calculate_forces                   :     1       12.17s   0.041%  ------ ||
|| restart_kernel_write                       :    25       14.24s   0.048%  ------ ||
|| integrals_grad_spam3                       :     2       14.26s   0.048%  ------ ||
|| hubbard_projector_update                   :     1       19.11s   0.064%  ------ ||
|| sparse_blacstospam3_real_fast              :    92       20.39s   0.068%  ------ ||
|| basis_copy_function_to_box                 : 17613       21.25s   0.071%  ------ ||
|| energy_and_force_init_cell                 :     1       21.38s   0.072%  ------ ||
|| projectors_func_grad_ovlp_box_spam3        :     3       21.74s   0.073%  ------ ||
|| dense_eigensolve                           :    36       22.41s   0.075%  ------ ||
|| aug_nl_calculate_forces                    :     1       23.74s   0.079%  ------ ||
|| hartree_on_grid_single                     :   257       24.75s   0.083%  ------ ||
|| fourier_apply_box_pair                     :  2408       28.06s   0.094%  5.859k ||
|| fourier_filter_cell                        :   292       30.23s   0.101% 171.303 ||
|| edft_diag_ngwf_ham                         :    34       31.31s   0.105%  ------ ||
|| hubbard_energy_total                       :   260       32.02s   0.107%  ------ ||
|| ngwf_gradient_coeffs                       :    23       33.54s   0.112%  ------ ||
|| fourier_interpolate_cell                   :   516       33.72s   0.113% 271.340 ||
|| sparse_trace                               :  8820       42.85s   0.143%  ------ ||
|| hamiltonian_energy_components              :     1       44.82s   0.150%  ------ ||
|| edft_apply_smearing_operator               :    17       52.60s   0.176%  ------ ||
|| eigenstates_calculate                      :     1       59.73s   0.200%  ------ ||
|| kernel_purify                              :   373       62.99s   0.211%  ------ ||
|| lnv_gradient_norm                          :   115       72.87s   0.244%  ------ ||
|| augmentation_screen_dij_spam3              :   256       79.42s   0.266%  ------ ||
|| kernel_fix                                 :   115       82.84s   0.277%  ------ ||
|| density_init_guess_real                    :     2       83.28s   0.279%  ------ ||
|| paw_dij_xc                                 :   285       97.98s   0.328%  ------ ||
|| fourier_apply_cell_backward                :  2314      103.88s   0.348% 355.359 ||
|| aug_nonlocal_mat_spam3_embed_array         :   261      115.24s   0.386%  ------ ||
|| cell_grid_deposit_box_real                 : 13955      120.44s   0.403%  ------ ||
|| forces_calculate                           :     1      124.00s   0.415%  ------ ||
|| fourier_apply_cell_forward                 :  2314      160.49s   0.537% 229.997 ||
|| fourier_filter                             :  3577      170.86s   0.572%  ------ ||
|| aug_density_on_grid_spam3                  :   258      209.06s   0.700%  ------ ||
|| projectors_init_fftbox_recip               :   377      212.62s   0.712%  ------ ||
|| restart_ngwfs_tightbox_output              :    22      247.90s   0.830%  ------ ||
|| function_ops_brappd_ketppd_spam3           :    96      263.34s   0.882%  ------ ||
|| xc_energy_potential                        :   257      273.98s   0.917%  ------ ||
|| fourier_interpolate                        :  3577      290.82s   0.974%  ------ ||
|| cell_grid_extract_box_real                 :  8989      299.85s   1.004%  ------ ||
|| projectors_func_ovlp_box_spam3             :    97      416.07s   1.393%  ------ ||
|| sparse_product                             : 16389      420.86s   1.409%  ------ ||
|| integrals_kinetic_spam3                    :    47      570.60s   1.911%  ------ ||
|| properties_calculate                       :     1      677.19s   2.268%  ------ ||
|| density_fftbox_deposit_to_cell             : 10836      700.96s   2.347%  ------ ||
|| edft_calculate                             :     1     1036.56s   3.471%  ------ ||
|| basis_dot_function_with_box                : 10.37M    1055.23s   3.534%  ------ ||
|| potential_apply_to_ngwf_batch              :   492     1647.26s   5.516%  ------ ||
|| projectors_gradient_batch                  :   184     1860.28s   6.230%  ------ ||
|| fourier_apply_box                          : 54665     2312.23s   7.743%  5.620k ||
|| fourier_interpolate_product                : 10614     2376.32s   7.958%  ------ ||
|| density_fftbox_interpolate_multiply        : 10836     2459.42s   8.236%  ------ ||
|| basis_add_function_to_box                  : 25.36M    2805.73s   9.396%  ------ ||
|| integrals_locpot_mat_els_batch             :   492     2938.07s   9.839%  ------ ||
|| density_batch_interp_deposit               :  1032     4253.68s  14.245%  ------ ||
|| projectors_grad_precond_batch              :    92     4287.02s  14.356%  ------ ||
|| integrals_locpot_dbl_grid                  :   246     4614.18s  15.452%  ------ ||
|| density_batch_row_sums                     :  1032     5694.35s  19.069%  ------ ||
|| ngwf_gradient_build_batch                  :    92     7104.90s  23.793%  ------ ||
|| density_on_dbl_grid                        :   516    10129.13s  33.920%  ------ ||
|| ngwf_gradient_batch                        :    92    10576.71s  35.419%  ------ ||
|| hamiltonian_lhxc_calculate                 :   254    10730.19s  35.933%  ------ ||
|| ngwf_gradient_lnv                          :    23    11205.77s  37.525%  ------ ||
|| lnv_denskernel_optimise_cg                 :    23    13695.71s  45.864%  ------ ||
|| ngwf_cg_optimise                           :     1    27798.32s  93.090%  ------ ||
|| energy_and_forces                          :     1    29838.30s  99.921%  ------ ||
|| total_time                                 :     1    29861.81s 100.000%  ------ ||
======================================================================================
Overhead of generating timer report: 
- 0 ms averaging over threads,
- 18 ms ensuring consistency across MPI ranks,
- 31 ms printing in order.

Job completed: 31-10-2024 00:08 (+0000)

onetep_launcher: ONETEP seems to have finished correctly (zero exit code).
                 Brought to you by PID 151755 on nid003567.
