==================================================================================
It's Fri 30 May 2025 11:03:00 PM BST.
*** Starting onetep_launcher (node nid004949, PIDs 44630 44631 44632 44633 44634 44635)...
    - ONETEP arguments: Cr2I6_bilayer_HT_AFM_FM_SP.dat
    - Current directory: /mnt/lustre/a2fs-work3/work/e89/e89/phsmea/CrI3_onetep_U/U_2.97/HT_AFM/HT_AFM_FM/sp-ngwfs
    - Launcher executable directory: /mnt/lustre/a2fs-work3/work/e89/e89/phsmea/CrI3_onetep_U/U_2.97/HT_AFM/HT_AFM_FM/sp-ngwfs
    - (-e) ONETEP executable specified through command-line: /work/e89/e89/phsmea/onetep.archer2_2024_cray
      ... trying /work/e89/e89/phsmea/onetep.archer2_2024_cray
          -> looks OK
*** Setting up environment...
    - (-s) Process stack size: unlimited
    - (-t) OMP_NUM_THREADS: 17
    - (-o) OMP_STACKSIZE: 64M
    - (-c) Maximum core file size: 2048000
    - (-d) decfort_dump_flag: n
    - (-m) I_MPI_OFA_TRANSLATION_CACHE: 0
    - (-m) I_MPI_DAPL_TRANSLATION_CACHE: 0
    - (-m) I_MPI_DAPL_UD_TRANSLATION_CACHE: 0
*** Starting ONETEP...
    - /work/e89/e89/phsmea/onetep.archer2_2024_cray Cr2I6_bilayer_HT_AFM_FM_SP.dat
=================================================================================
_________________________________________________________________________________
 +---------------------------------------------------------------+
 |                                                               |
 |        ####### #     # ####### ####### ####### ######         |
 |        #     # ##    # #          #    #       #     #        |
 |        #     # # #   # #          #    #       #     #        |
 |        #     # #  #  # #####      #    #####   ######         |
 |        #     # #   # # #          #    #       #              |
 |        #     # #    ## #          #    #       #              |
 |        ####### #     # #######    #    ####### #              |
 |                                                               |
 |        Linear-Scaling Ab Initio Total Energy Program          |
 |                                                               |
 |          Release for academic collaborators of ODG            |
 |                                             Version 7.3.0     |
 | Remote: git@github.com:Miesaz/onetep_mea.git                  |
 | Local branch: master                                          |
 | Commit ID: 4af45e89288c8df5499704252eec3e032ee3d0c8           |
 | Date: Tue Aug 6 11:28:44 2024 +0100                           |
 | Working tree clean                                            |
 |                                                               |
 +---------------------------------------------------------------+
 |                                                               |
 |  Authors:                                                     |
 |  Jacek Dziedzic, Peter D. Haynes, Nicholas D. M. Hine,        |
 |  Arash A. Mostofi, Mike C. Payne and Chris-Kriton Skylaris    |
 |                                                               |
 |  Contributors:                                                |
 |  J. Aarons, L. Andrinopoulos, P. W. Avraam, R. A. Bell,       |
 |  A. Bhandari, G. A. Bramley, R. J. Charlton, S. J. Clark,     |
 |  R. J. Clements, G. C. Constantinescu, F. Corsetti,           |
 |  N. Corsini, O. Dieguez, S. M. M. Dubois, K. K. B. Duff,      |
 |  J. M. Escartin, M. Escobar Azor, A. Greco,                   |
 |  H. Helal, Q. O. Hill, L. P. Lee, J.-H. Li,                   |
 |  T. Li, E. B. Linscott, G. Moynihan, D. D. O`Regan,           |
 |  O. K. Okan, E. Parkinson, M. J. S. Phipps,                   |
 |  C. J. Pickard, J. C. A. Prentice, M. I. J. Probert,          |
 |  L. E. Ratcliff, M. Robinson, A. Ruiz Serrano,                |
 |  M. dos Santos Dias, J. S. Spencer, E. W. Tait,               |
 |  G. Teobaldi, D. Turban, V. Vitale, K. A. Wilkinson,          |
 |  C. Weber, J. C. Womack, Chengcheng Xiao, N. Yeung,           |
 |  and T. J. Zuehlsdorff.                                       |
 |                                                               |
 |                                   Copyright (c) 2004-2024     |
 |                                                               |
 |  Please cite:                                                 |
 |  "The ONETEP linear-scaling density functional theory program"|
 |   J. Chem. Phys. 152(17) 174111 (2020)                        |
 |                                                               |
 |          in all publications arising from your use of ONETEP. |
 |                                                               |
 +---------------------------------------------------------------+
 |                                                               |
 |   ONETEP is based on developments described in the following  |
 |   publications:                                               |
 |                                                               |
 |  "Nonorthogonal generalized Wannier function pseudopotential  |
 |   plane-wave method".                                         |
 |   C.-K. Skylaris, A. A. Mostofi, P. D. Haynes, O. Dieguez,    |
 |   M. C. Payne.                                                |
 |   Phys. Rev. B 66 035119 (2002).                              |
 |                                                               |
 |  "Preconditioned iterative minimization for linear-scaling    |
 |   electronic structure calculations".                         |
 |   A. A. Mostofi, P. D. Haynes, C.-K. Skylaris, M. C. Payne.   |
 |   J. Chem. Phys. 119(17), pp.8842-8848 (2003).                |
 |                                                               |
 |  "Total-energy calculations on a real space grid with         |
 |   localized functions and a plane-wave basis".                |
 |   A. A. Mostofi, C.-K. Skylaris, P. D. Haynes, M. C. Payne.   |
 |   Comput. Phys. Commun. 147, pp.788-802 (2002).               |
 |                                                               |
 |  "Accurate kinetic energy evaluation in electronic structure  |
 |   calculations with localized functions on real space grids"  |
 |   C.-K. Skylaris, A. A. Mostofi, P. D. Haynes, C. J. Pickard, |
 |   M. C. Payne.                                                |
 |   Comput. Phys. Commun. 140, pp.315-322 (2001).               |
 |                                                               |
 |  "Accurate ionic forces and geometry optimization in linear-  |
 |   scaling density-functional theory with local orbitals"      |
 |   N. D. M. Hine, M. Robinson, P. D. Haynes, C.-K. Skylaris,   |
 |   M. C. Payne, and A. A. Mostofi.                             |
 |   Phys. Rev. B 83 195102 (2011).                              |
 |                                                               |
 +---------------------------------------------------------------+

Job started: 30-05-2025 23:03 (+0100)
 
Reading parameters from file "Cr2I6_bilayer_HT_AFM_FM_SP.dat" ...... done

If your calculation crashes here, before "Checking processes and threads..."
is displayed, then your stack size is insufficient.
If so, use "ulimit -s unlimited" at runtime.
You can disable this check with "check_stack_size F".

Checking processes and threads...
      Default threads: 17
   Running with 180 MPI processes.
   There are 6 MPI processes running on the same node as the root process.
   Each MPI process is using: 
               1 threads for simulation cell FFTs.
               1 threads for threaded FFT box operations.
              17 threads for loops over batched FFT box operations.
              17 threads in other parallel regions.
   MPI Interface: S1 (use mpi_f08) (-DMPI -DUSE_MPI_F08).
   MPI_ASYNC_PROTECTS_NONBLOCKING: Yes. MPI_SUBARRAYS_SUPPORTED: Yes.
   FFTW Interface: OMP-capable and MODERN. (-DUSE_MODERN_FFTW specified).
   GPU Interface: None.
   GPU FFT Backend: None.
... done

Basic input checks...
WARNING: The number of FFT boxes in a batch is not a multiple of the number of
OpenMP threads. Consider changing fftbox_batch_size.
... done

Reading geometry and species blocks from file "Cr2I6_bilayer_HT_AFM_FM_SP.dat" ...... done


--------------------------------------------------------------------------------
---------------------------------- INPUT FILE ----------------------------------
--------------------------------------------------------------------------------

charge : 0                                                                      
cutoff_energy : 1000 eV                                                         
delta_e_conv : F                                                                
do_properties : T                                                               
edft : F                                                                        
edft_init_maxit : 15                                                            
elec_energy_tol : 1e-07 Ha                                                      
fine_grid_scale : 4                                                             
forces_output_detail : VERBOSE                                                  
maxit_ngwf_cg : 100                                                             
MAXIT_LNV     : 15                                                              
MINIT_LNV     : 5                                                               
ngwf_threshold_orig : 1e-07                                                     
ngwfs_spin_polarized : T                                                        
output_detail : NORMAL                                                          
paw : T                                                                         
read_denskern : F                                                               
read_hamiltonian : F                                                            
read_tightbox_ngwfs : F                                                         
spin : 432                                                                      
spin_polarized : T                                                              
task : SinglePoint                                                              
write_denskern : T                                                              
write_forces : T                                                                
write_hamiltonian : T                                                           
write_tightbox_ngwfs : T                                                        
xc_functional : PBE                                                             
%BLOCK LATTICE_CART                                                             
ang                                                                             
41.261892132       0.000000000000000        0.000000000000000                   
-20.630946066       35.733846792             0.000000000000000                  
0.000000000000000   0.0000000000000000       27.507928088                       
%ENDBLOCK LATTICE_CART                                                          
%BLOCK POSITIONS_ABS                                                            
ang                                                                             
Cr       5.73012301       1.98615267      15.61475195                           
Cr       2.29163200       3.96948846      15.61475241                           
I        6.71804295      -0.00001318      14.06395847                           
I        3.51661508       2.12334657      14.07089707                           
I        0.07814689       3.83230774      14.07089707                           
I        4.74445508      -0.00001140      17.15723785                           
I        4.50489604       3.83201918      17.15707434                           
I        1.06642478       2.12363336      17.15707434                           
Cr       3.43917878       1.98613277       9.03123330                           
Cr       0.00068777       3.96950836       9.03123376                           
I        4.42486276      -0.00001318       7.48874545                           
I        1.22590088       2.12363241       7.48890841                           
I       -2.21256731       3.83202190       7.48890841                           
I        2.45126709      -0.00001140      10.58202506                           
I        2.21418512       3.83230199      10.57507890                           
I       -1.22428614       2.12335055      10.57507890                           
Cr       2.29163200       7.94179381      15.61475195                           
Cr      -1.14685901       9.92512959      15.61475241                           
I        3.27955194       5.95562795      14.06395847                           
I        0.07812407       8.07898770      14.07089707                           
I       -3.36034412       9.78794887      14.07089707                           
I        1.30596407       5.95562973      17.15723785                           
I        1.06640503       9.78766031      17.15707434                           
I       -2.37206623       8.07927449      17.15707434                           
Cr       0.00068777       7.94177390       9.03123330                           
Cr      -3.43780324       9.92514949       9.03123376                           
I        0.98637175       5.95562795       7.48874545                           
I       -2.21259013       8.07927354       7.48890841                           
I       -5.65105832       9.78766304       7.48890841                           
I       -0.98722392       5.95562973      10.58202506                           
I       -1.22430589       9.78794313      10.57507890                           
I       -4.66277715       8.07899168      10.57507890                           
Cr      -1.14685901      13.89743494      15.61475195                           
Cr      -4.58535002      15.88077072      15.61475241                           
I       -0.15893907      11.91126908      14.06395847                           
I       -3.36036694      14.03462883      14.07089707                           
I       -6.79883513      15.74359001      14.07089707                           
I       -2.13252694      11.91127086      17.15723785                           
I       -2.37208598      15.74330145      17.15707434                           
I       -5.81055724      14.03491562      17.15707434                           
Cr      -3.43780324      13.89741504       9.03123330                           
Cr      -6.87629425      15.88079062       9.03123376                           
I       -2.45211926      11.91126908       7.48874545                           
I       -5.65108114      14.03491467       7.48890841                           
I       -9.08954933      15.74330417       7.48890841                           
I       -4.42571493      11.91127086      10.58202506                           
I       -4.66279691      15.74358426      10.57507890                           
I       -8.10126817      14.03463281      10.57507890                           
Cr      -4.58535002      19.85307607      15.61475195                           
Cr      -8.02384103      21.83641185      15.61475241                           
I       -3.59743008      17.86691022      14.06395847                           
I       -6.79885795      19.99026996      14.07089707                           
I      -10.23732614      21.69923114      14.07089707                           
I       -5.57101795      17.86691200      17.15723785                           
I       -5.81057699      21.69894258      17.15707434                           
I       -9.24904825      19.99055675      17.15707434                           
Cr      -6.87629425      19.85305617       9.03123330                           
Cr     -10.31478526      21.83643175       9.03123376                           
I       -5.89061027      17.86691022       7.48874545                           
I       -9.08957216      19.99055580       7.48890841                           
I      -12.52804035      21.69894530       7.48890841                           
I       -7.86420594      17.86691200      10.58202506                           
I       -8.10128792      21.69922539      10.57507890                           
I      -11.53975918      19.99027394      10.57507890                           
Cr      -8.02384103      25.80871720      15.61475195                           
Cr     -11.46233204      27.79205298      15.61475241                           
I       -7.03592109      23.82255135      14.06395847                           
I      -10.23734897      25.94591110      14.07089707                           
I      -13.67581716      27.65487227      14.07089707                           
I       -9.00950896      23.82255313      17.15723785                           
I       -9.24906800      27.65458371      17.15707434                           
I      -12.68753926      25.94619789      17.15707434                           
Cr     -10.31478526      25.80869730       9.03123330                           
Cr     -13.75327627      27.79207289       9.03123376                           
I       -9.32910128      23.82255135       7.48874545                           
I      -12.52806317      25.94619693       7.48890841                           
I      -15.96653136      27.65458643       7.48890841                           
I      -11.30269695      23.82255313      10.58202506                           
I      -11.53977893      27.65486652      10.57507890                           
I      -14.97825019      25.94591507      10.57507890                           
Cr     -11.46233205      31.76435833      15.61475195                           
Cr     -14.90082306      33.74769412      15.61475241                           
I      -10.47441210      29.77819248      14.06395847                           
I      -13.67583998      31.90155223      14.07089707                           
I      -17.11430817      33.61051340      14.07089707                           
I      -12.44799997      29.77819426      17.15723785                           
I      -12.68755901      33.61022484      17.15707434                           
I      -16.12603027      31.90183902      17.15707434                           
Cr     -13.75327627      31.76433843       9.03123330                           
Cr     -17.19176728      33.74771402       9.03123376                           
I      -12.76759229      29.77819248       7.48874545                           
I      -15.96655418      31.90183807       7.48890841                           
I      -19.40502237      33.61022756       7.48890841                           
I      -14.74118796      29.77819426      10.58202506                           
I      -14.97826994      33.61050765      10.57507890                           
I      -18.41674120      31.90155621      10.57507890                           
Cr      12.60710503       1.98615267      15.61475195                           
Cr       9.16861402       3.96948846      15.61475241                           
I       13.59502497      -0.00001318      14.06395847                           
I       10.39359710       2.12334657      14.07089707                           
I        6.95512891       3.83230774      14.07089707                           
I       11.62143710      -0.00001140      17.15723785                           
I       11.38187806       3.83201918      17.15707434                           
I        7.94340680       2.12363336      17.15707434                           
Cr      10.31616080       1.98613277       9.03123330                           
Cr       6.87766979       3.96950836       9.03123376                           
I       11.30184479      -0.00001318       7.48874545                           
I        8.10288290       2.12363241       7.48890841                           
I        4.66441471       3.83202190       7.48890841                           
I        9.32824912      -0.00001140      10.58202506                           
I        9.09116714       3.83230199      10.57507890                           
I        5.65269588       2.12335055      10.57507890                           
Cr       9.16861402       7.94179381      15.61475195                           
Cr       5.73012301       9.92512959      15.61475241                           
I       10.15653396       5.95562795      14.06395847                           
I        6.95510609       8.07898770      14.07089707                           
I        3.51663790       9.78794887      14.07089707                           
I        8.18294609       5.95562973      17.15723785                           
I        7.94338705       9.78766031      17.15707434                           
I        4.50491579       8.07927449      17.15707434                           
Cr       6.87766979       7.94177390       9.03123330                           
Cr       3.43917878       9.92514949       9.03123376                           
I        7.86335378       5.95562795       7.48874545                           
I        4.66439189       8.07927354       7.48890841                           
I        1.22592370       9.78766304       7.48890841                           
I        5.88975810       5.95562973      10.58202506                           
I        5.65267613       9.78794313      10.57507890                           
I        2.21420487       8.07899168      10.57507890                           
Cr       5.73012301      13.89743494      15.61475195                           
Cr       2.29163200      15.88077072      15.61475241                           
I        6.71804295      11.91126908      14.06395847                           
I        3.51661508      14.03462883      14.07089707                           
I        0.07814689      15.74359001      14.07089707                           
I        4.74445508      11.91127086      17.15723785                           
I        4.50489604      15.74330145      17.15707434                           
I        1.06642478      14.03491562      17.15707434                           
Cr       3.43917878      13.89741504       9.03123330                           
Cr       0.00068777      15.88079062       9.03123376                           
I        4.42486276      11.91126908       7.48874545                           
I        1.22590088      14.03491467       7.48890841                           
I       -2.21256731      15.74330417       7.48890841                           
I        2.45126709      11.91127086      10.58202506                           
I        2.21418512      15.74358426      10.57507890                           
I       -1.22428614      14.03463281      10.57507890                           
Cr       2.29163200      19.85307607      15.61475195                           
Cr      -1.14685901      21.83641185      15.61475241                           
I        3.27955194      17.86691022      14.06395847                           
I        0.07812407      19.99026996      14.07089707                           
I       -3.36034412      21.69923114      14.07089707                           
I        1.30596407      17.86691200      17.15723785                           
I        1.06640503      21.69894258      17.15707434                           
I       -2.37206623      19.99055675      17.15707434                           
Cr       0.00068777      19.85305617       9.03123330                           
Cr      -3.43780324      21.83643175       9.03123376                           
I        0.98637175      17.86691022       7.48874545                           
I       -2.21259013      19.99055580       7.48890841                           
I       -5.65105832      21.69894530       7.48890841                           
I       -0.98722392      17.86691200      10.58202506                           
I       -1.22430589      21.69922539      10.57507890                           
I       -4.66277715      19.99027394      10.57507890                           
Cr      -1.14685901      25.80871720      15.61475195                           
Cr      -4.58535002      27.79205298      15.61475241                           
I       -0.15893907      23.82255135      14.06395847                           
I       -3.36036694      25.94591110      14.07089707                           
I       -6.79883513      27.65487227      14.07089707                           
I       -2.13252694      23.82255313      17.15723785                           
I       -2.37208598      27.65458371      17.15707434                           
I       -5.81055724      25.94619789      17.15707434                           
Cr      -3.43780324      25.80869730       9.03123330                           
Cr      -6.87629425      27.79207289       9.03123376                           
I       -2.45211926      23.82255135       7.48874545                           
I       -5.65108114      25.94619693       7.48890841                           
I       -9.08954933      27.65458643       7.48890841                           
I       -4.42571493      23.82255313      10.58202506                           
I       -4.66279691      27.65486652      10.57507890                           
I       -8.10126817      25.94591507      10.57507890                           
Cr      -4.58535002      31.76435833      15.61475195                           
Cr      -8.02384103      33.74769412      15.61475241                           
I       -3.59743008      29.77819248      14.06395847                           
I       -6.79885795      31.90155223      14.07089707                           
I      -10.23732614      33.61051340      14.07089707                           
I       -5.57101795      29.77819426      17.15723785                           
I       -5.81057699      33.61022484      17.15707434                           
I       -9.24904825      31.90183902      17.15707434                           
Cr      -6.87629425      31.76433843       9.03123330                           
Cr     -10.31478526      33.74771402       9.03123376                           
I       -5.89061027      29.77819248       7.48874545                           
I       -9.08957216      31.90183807       7.48890841                           
I      -12.52804035      33.61022756       7.48890841                           
I       -7.86420594      29.77819426      10.58202506                           
I       -8.10128792      33.61050765      10.57507890                           
I      -11.53975918      31.90155621      10.57507890                           
Cr      19.48408705       1.98615267      15.61475195                           
Cr      16.04559604       3.96948846      15.61475241                           
I       20.47200700      -0.00001318      14.06395847                           
I       17.27057912       2.12334657      14.07089707                           
I       13.83211093       3.83230774      14.07089707                           
I       18.49841912      -0.00001140      17.15723785                           
I       18.25886009       3.83201918      17.15707434                           
I       14.82038883       2.12363336      17.15707434                           
Cr      17.19314283       1.98613277       9.03123330                           
Cr      13.75465182       3.96950836       9.03123376                           
I       18.17882681      -0.00001318       7.48874545                           
I       14.97986492       2.12363241       7.48890841                           
I       11.54139673       3.83202190       7.48890841                           
I       16.20523114      -0.00001140      10.58202506                           
I       15.96814916       3.83230199      10.57507890                           
I       12.52967790       2.12335055      10.57507890                           
Cr      16.04559604       7.94179381      15.61475195                           
Cr      12.60710503       9.92512959      15.61475241                           
I       17.03351599       5.95562795      14.06395847                           
I       13.83208811       8.07898770      14.07089707                           
I       10.39361992       9.78794887      14.07089707                           
I       15.05992811       5.95562973      17.15723785                           
I       14.82036907       9.78766031      17.15707434                           
I       11.38189781       8.07927449      17.15707434                           
Cr      13.75465181       7.94177390       9.03123330                           
Cr      10.31616080       9.92514949       9.03123376                           
I       14.74033580       5.95562795       7.48874545                           
I       11.54137391       8.07927354       7.48890841                           
I        8.10290572       9.78766304       7.48890841                           
I       12.76674013       5.95562973      10.58202506                           
I       12.52965815       9.78794313      10.57507890                           
I        9.09118689       8.07899168      10.57507890                           
Cr      12.60710503      13.89743494      15.61475195                           
Cr       9.16861402      15.88077072      15.61475241                           
I       13.59502497      11.91126908      14.06395847                           
I       10.39359710      14.03462883      14.07089707                           
I        6.95512891      15.74359001      14.07089707                           
I       11.62143710      11.91127086      17.15723785                           
I       11.38187806      15.74330145      17.15707434                           
I        7.94340680      14.03491562      17.15707434                           
Cr      10.31616080      13.89741504       9.03123330                           
Cr       6.87766979      15.88079062       9.03123376                           
I       11.30184479      11.91126908       7.48874545                           
I        8.10288290      14.03491467       7.48890841                           
I        4.66441471      15.74330417       7.48890841                           
I        9.32824912      11.91127086      10.58202506                           
I        9.09116714      15.74358426      10.57507890                           
I        5.65269588      14.03463281      10.57507890                           
Cr       9.16861402      19.85307607      15.61475195                           
Cr       5.73012301      21.83641185      15.61475241                           
I       10.15653396      17.86691022      14.06395847                           
I        6.95510609      19.99026996      14.07089707                           
I        3.51663790      21.69923114      14.07089707                           
I        8.18294609      17.86691200      17.15723785                           
I        7.94338705      21.69894258      17.15707434                           
I        4.50491579      19.99055675      17.15707434                           
Cr       6.87766979      19.85305617       9.03123330                           
Cr       3.43917878      21.83643175       9.03123376                           
I        7.86335378      17.86691022       7.48874545                           
I        4.66439189      19.99055580       7.48890841                           
I        1.22592370      21.69894530       7.48890841                           
I        5.88975810      17.86691200      10.58202506                           
I        5.65267613      21.69922539      10.57507890                           
I        2.21420487      19.99027394      10.57507890                           
Cr       5.73012301      25.80871720      15.61475195                           
Cr       2.29163200      27.79205298      15.61475241                           
I        6.71804295      23.82255135      14.06395847                           
I        3.51661508      25.94591110      14.07089707                           
I        0.07814689      27.65487227      14.07089707                           
I        4.74445508      23.82255313      17.15723785                           
I        4.50489604      27.65458371      17.15707434                           
I        1.06642478      25.94619789      17.15707434                           
Cr       3.43917878      25.80869730       9.03123330                           
Cr       0.00068777      27.79207289       9.03123376                           
I        4.42486276      23.82255135       7.48874545                           
I        1.22590088      25.94619693       7.48890841                           
I       -2.21256731      27.65458643       7.48890841                           
I        2.45126709      23.82255313      10.58202506                           
I        2.21418512      27.65486652      10.57507890                           
I       -1.22428614      25.94591507      10.57507890                           
Cr       2.29163200      31.76435833      15.61475195                           
Cr      -1.14685901      33.74769412      15.61475241                           
I        3.27955194      29.77819248      14.06395847                           
I        0.07812407      31.90155223      14.07089707                           
I       -3.36034412      33.61051340      14.07089707                           
I        1.30596407      29.77819426      17.15723785                           
I        1.06640503      33.61022484      17.15707434                           
I       -2.37206623      31.90183902      17.15707434                           
Cr       0.00068777      31.76433843       9.03123330                           
Cr      -3.43780324      33.74771402       9.03123376                           
I        0.98637175      29.77819248       7.48874545                           
I       -2.21259013      31.90183807       7.48890841                           
I       -5.65105832      33.61022756       7.48890841                           
I       -0.98722392      29.77819426      10.58202506                           
I       -1.22430589      33.61050765      10.57507890                           
I       -4.66277715      31.90155621      10.57507890                           
Cr      26.36106908       1.98615267      15.61475195                           
Cr      22.92257807       3.96948846      15.61475241                           
I       27.34898902      -0.00001318      14.06395847                           
I       24.14756114       2.12334657      14.07089707                           
I       20.70909295       3.83230774      14.07089707                           
I       25.37540115      -0.00001140      17.15723785                           
I       25.13584211       3.83201918      17.15707434                           
I       21.69737085       2.12363336      17.15707434                           
Cr      24.07012485       1.98613277       9.03123330                           
Cr      20.63163384       3.96950836       9.03123376                           
I       25.05580883      -0.00001318       7.48874545                           
I       21.85684694       2.12363241       7.48890841                           
I       18.41837875       3.83202190       7.48890841                           
I       23.08221316      -0.00001140      10.58202506                           
I       22.84513118       3.83230199      10.57507890                           
I       19.40665992       2.12335055      10.57507890                           
Cr      22.92257806       7.94179381      15.61475195                           
Cr      19.48408705       9.92512959      15.61475241                           
I       23.91049801       5.95562795      14.06395847                           
I       20.70907013       8.07898770      14.07089707                           
I       17.27060194       9.78794887      14.07089707                           
I       21.93691014       5.95562973      17.15723785                           
I       21.69735110       9.78766031      17.15707434                           
I       18.25887984       8.07927449      17.15707434                           
Cr      20.63163384       7.94177390       9.03123330                           
Cr      17.19314283       9.92514949       9.03123376                           
I       21.61731782       5.95562795       7.48874545                           
I       18.41835593       8.07927354       7.48890841                           
I       14.97988774       9.78766304       7.48890841                           
I       19.64372215       5.95562973      10.58202506                           
I       19.40664017       9.78794313      10.57507890                           
I       15.96816891       8.07899168      10.57507890                           
Cr      19.48408705      13.89743494      15.61475195                           
Cr      16.04559604      15.88077072      15.61475241                           
I       20.47200700      11.91126908      14.06395847                           
I       17.27057912      14.03462883      14.07089707                           
I       13.83211093      15.74359001      14.07089707                           
I       18.49841912      11.91127086      17.15723785                           
I       18.25886009      15.74330145      17.15707434                           
I       14.82038883      14.03491562      17.15707434                           
Cr      17.19314283      13.89741504       9.03123330                           
Cr      13.75465182      15.88079062       9.03123376                           
I       18.17882681      11.91126908       7.48874545                           
I       14.97986492      14.03491467       7.48890841                           
I       11.54139673      15.74330417       7.48890841                           
I       16.20523114      11.91127086      10.58202506                           
I       15.96814916      15.74358426      10.57507890                           
I       12.52967790      14.03463281      10.57507890                           
Cr      16.04559604      19.85307607      15.61475195                           
Cr      12.60710503      21.83641185      15.61475241                           
I       17.03351599      17.86691022      14.06395847                           
I       13.83208811      19.99026996      14.07089707                           
I       10.39361992      21.69923114      14.07089707                           
I       15.05992811      17.86691200      17.15723785                           
I       14.82036907      21.69894258      17.15707434                           
I       11.38189781      19.99055675      17.15707434                           
Cr      13.75465181      19.85305617       9.03123330                           
Cr      10.31616080      21.83643175       9.03123376                           
I       14.74033580      17.86691022       7.48874545                           
I       11.54137391      19.99055580       7.48890841                           
I        8.10290572      21.69894530       7.48890841                           
I       12.76674013      17.86691200      10.58202506                           
I       12.52965815      21.69922539      10.57507890                           
I        9.09118689      19.99027394      10.57507890                           
Cr      12.60710503      25.80871720      15.61475195                           
Cr       9.16861402      27.79205298      15.61475241                           
I       13.59502497      23.82255135      14.06395847                           
I       10.39359710      25.94591110      14.07089707                           
I        6.95512891      27.65487227      14.07089707                           
I       11.62143710      23.82255313      17.15723785                           
I       11.38187806      27.65458371      17.15707434                           
I        7.94340680      25.94619789      17.15707434                           
Cr      10.31616080      25.80869730       9.03123330                           
Cr       6.87766979      27.79207289       9.03123376                           
I       11.30184479      23.82255135       7.48874545                           
I        8.10288290      25.94619693       7.48890841                           
I        4.66441471      27.65458643       7.48890841                           
I        9.32824912      23.82255313      10.58202506                           
I        9.09116714      27.65486652      10.57507890                           
I        5.65269588      25.94591507      10.57507890                           
Cr       9.16861402      31.76435833      15.61475195                           
Cr       5.73012301      33.74769412      15.61475241                           
I       10.15653396      29.77819248      14.06395847                           
I        6.95510609      31.90155223      14.07089707                           
I        3.51663790      33.61051340      14.07089707                           
I        8.18294609      29.77819426      17.15723785                           
I        7.94338705      33.61022484      17.15707434                           
I        4.50491579      31.90183902      17.15707434                           
Cr       6.87766979      31.76433843       9.03123330                           
Cr       3.43917878      33.74771402       9.03123376                           
I        7.86335378      29.77819248       7.48874545                           
I        4.66439189      31.90183807       7.48890841                           
I        1.22592370      33.61022756       7.48890841                           
I        5.88975810      29.77819426      10.58202506                           
I        5.65267613      33.61050765      10.57507890                           
I        2.21420487      31.90155621      10.57507890                           
Cr      33.23805110       1.98615267      15.61475195                           
Cr      29.79956009       3.96948846      15.61475241                           
I       34.22597104      -0.00001318      14.06395847                           
I       31.02454317       2.12334657      14.07089707                           
I       27.58607498       3.83230774      14.07089707                           
I       32.25238317      -0.00001140      17.15723785                           
I       32.01282413       3.83201918      17.15707434                           
I       28.57435287       2.12363336      17.15707434                           
Cr      30.94710687       1.98613277       9.03123330                           
Cr      27.50861586       3.96950836       9.03123376                           
I       31.93279085      -0.00001318       7.48874545                           
I       28.73382897       2.12363241       7.48890841                           
I       25.29536078       3.83202190       7.48890841                           
I       29.95919518      -0.00001140      10.58202506                           
I       29.72211320       3.83230199      10.57507890                           
I       26.28364194       2.12335055      10.57507890                           
Cr      29.79956009       7.94179381      15.61475195                           
Cr      26.36106908       9.92512959      15.61475241                           
I       30.78748003       5.95562795      14.06395847                           
I       27.58605216       8.07898770      14.07089707                           
I       24.14758397       9.78794887      14.07089707                           
I       28.81389216       5.95562973      17.15723785                           
I       28.57433312       9.78766031      17.15707434                           
I       25.13586186       8.07927449      17.15707434                           
Cr      27.50861586       7.94177390       9.03123330                           
Cr      24.07012485       9.92514949       9.03123376                           
I       28.49429984       5.95562795       7.48874545                           
I       25.29533795       8.07927354       7.48890841                           
I       21.85686976       9.78766304       7.48890841                           
I       26.52070417       5.95562973      10.58202506                           
I       26.28362219       9.78794313      10.57507890                           
I       22.84515093       8.07899168      10.57507890                           
Cr      26.36106908      13.89743494      15.61475195                           
Cr      22.92257807      15.88077072      15.61475241                           
I       27.34898902      11.91126908      14.06395847                           
I       24.14756114      14.03462883      14.07089707                           
I       20.70909295      15.74359001      14.07089707                           
I       25.37540115      11.91127086      17.15723785                           
I       25.13584211      15.74330145      17.15707434                           
I       21.69737085      14.03491562      17.15707434                           
Cr      24.07012485      13.89741504       9.03123330                           
Cr      20.63163384      15.88079062       9.03123376                           
I       25.05580883      11.91126908       7.48874545                           
I       21.85684694      14.03491467       7.48890841                           
I       18.41837875      15.74330417       7.48890841                           
I       23.08221316      11.91127086      10.58202506                           
I       22.84513118      15.74358426      10.57507890                           
I       19.40665992      14.03463281      10.57507890                           
Cr      22.92257806      19.85307607      15.61475195                           
Cr      19.48408705      21.83641185      15.61475241                           
I       23.91049801      17.86691022      14.06395847                           
I       20.70907013      19.99026996      14.07089707                           
I       17.27060194      21.69923114      14.07089707                           
I       21.93691014      17.86691200      17.15723785                           
I       21.69735110      21.69894258      17.15707434                           
I       18.25887984      19.99055675      17.15707434                           
Cr      20.63163384      19.85305617       9.03123330                           
Cr      17.19314283      21.83643175       9.03123376                           
I       21.61731782      17.86691022       7.48874545                           
I       18.41835593      19.99055580       7.48890841                           
I       14.97988774      21.69894530       7.48890841                           
I       19.64372215      17.86691200      10.58202506                           
I       19.40664017      21.69922539      10.57507890                           
I       15.96816891      19.99027394      10.57507890                           
Cr      19.48408705      25.80871720      15.61475195                           
Cr      16.04559604      27.79205298      15.61475241                           
I       20.47200700      23.82255135      14.06395847                           
I       17.27057912      25.94591110      14.07089707                           
I       13.83211093      27.65487227      14.07089707                           
I       18.49841912      23.82255313      17.15723785                           
I       18.25886009      27.65458371      17.15707434                           
I       14.82038883      25.94619789      17.15707434                           
Cr      17.19314283      25.80869730       9.03123330                           
Cr      13.75465182      27.79207289       9.03123376                           
I       18.17882681      23.82255135       7.48874545                           
I       14.97986492      25.94619693       7.48890841                           
I       11.54139673      27.65458643       7.48890841                           
I       16.20523114      23.82255313      10.58202506                           
I       15.96814916      27.65486652      10.57507890                           
I       12.52967790      25.94591507      10.57507890                           
Cr      16.04559604      31.76435833      15.61475195                           
Cr      12.60710503      33.74769412      15.61475241                           
I       17.03351599      29.77819248      14.06395847                           
I       13.83208811      31.90155223      14.07089707                           
I       10.39361992      33.61051340      14.07089707                           
I       15.05992811      29.77819426      17.15723785                           
I       14.82036907      33.61022484      17.15707434                           
I       11.38189781      31.90183902      17.15707434                           
Cr      13.75465181      31.76433843       9.03123330                           
Cr      10.31616080      33.74771402       9.03123376                           
I       14.74033580      29.77819248       7.48874545                           
I       11.54137391      31.90183807       7.48890841                           
I        8.10290572      33.61022756       7.48890841                           
I       12.76674013      29.77819426      10.58202506                           
I       12.52965815      33.61050765      10.57507890                           
I        9.09118689      31.90155621      10.57507890                           
Cr      40.11503312       1.98615267      15.61475195                           
Cr      36.67654211       3.96948846      15.61475241                           
I       41.10295306      -0.00001318      14.06395847                           
I       37.90152519       2.12334657      14.07089707                           
I       34.46305700       3.83230774      14.07089707                           
I       39.12936519      -0.00001140      17.15723785                           
I       38.88980615       3.83201918      17.15707434                           
I       35.45133489       2.12363336      17.15707434                           
Cr      37.82408889       1.98613277       9.03123330                           
Cr      34.38559788       3.96950836       9.03123376                           
I       38.80977287      -0.00001318       7.48874545                           
I       35.61081099       2.12363241       7.48890841                           
I       32.17234280       3.83202190       7.48890841                           
I       36.83617720      -0.00001140      10.58202506                           
I       36.59909523       3.83230199      10.57507890                           
I       33.16062397       2.12335055      10.57507890                           
Cr      36.67654211       7.94179381      15.61475195                           
Cr      33.23805110       9.92512959      15.61475241                           
I       37.66446205       5.95562795      14.06395847                           
I       34.46303418       8.07898770      14.07089707                           
I       31.02456599       9.78794887      14.07089707                           
I       35.69087418       5.95562973      17.15723785                           
I       35.45131514       9.78766031      17.15707434                           
I       32.01284388       8.07927449      17.15707434                           
Cr      34.38559788       7.94177390       9.03123330                           
Cr      30.94710687       9.92514949       9.03123376                           
I       35.37128186       5.95562795       7.48874545                           
I       32.17231998       8.07927354       7.48890841                           
I       28.73385179       9.78766304       7.48890841                           
I       33.39768619       5.95562973      10.58202506                           
I       33.16060422       9.78794313      10.57507890                           
I       29.72213296       8.07899168      10.57507890                           
Cr      33.23805110      13.89743494      15.61475195                           
Cr      29.79956009      15.88077072      15.61475241                           
I       34.22597104      11.91126908      14.06395847                           
I       31.02454317      14.03462883      14.07089707                           
I       27.58607498      15.74359001      14.07089707                           
I       32.25238317      11.91127086      17.15723785                           
I       32.01282413      15.74330145      17.15707434                           
I       28.57435287      14.03491562      17.15707434                           
Cr      30.94710687      13.89741504       9.03123330                           
Cr      27.50861586      15.88079062       9.03123376                           
I       31.93279085      11.91126908       7.48874545                           
I       28.73382897      14.03491467       7.48890841                           
I       25.29536078      15.74330417       7.48890841                           
I       29.95919518      11.91127086      10.58202506                           
I       29.72211320      15.74358426      10.57507890                           
I       26.28364194      14.03463281      10.57507890                           
Cr      29.79956009      19.85307607      15.61475195                           
Cr      26.36106908      21.83641185      15.61475241                           
I       30.78748003      17.86691022      14.06395847                           
I       27.58605216      19.99026996      14.07089707                           
I       24.14758397      21.69923114      14.07089707                           
I       28.81389216      17.86691200      17.15723785                           
I       28.57433312      21.69894258      17.15707434                           
I       25.13586186      19.99055675      17.15707434                           
Cr      27.50861586      19.85305617       9.03123330                           
Cr      24.07012485      21.83643175       9.03123376                           
I       28.49429984      17.86691022       7.48874545                           
I       25.29533795      19.99055580       7.48890841                           
I       21.85686976      21.69894530       7.48890841                           
I       26.52070417      17.86691200      10.58202506                           
I       26.28362219      21.69922539      10.57507890                           
I       22.84515093      19.99027394      10.57507890                           
Cr      26.36106908      25.80871720      15.61475195                           
Cr      22.92257807      27.79205298      15.61475241                           
I       27.34898902      23.82255135      14.06395847                           
I       24.14756114      25.94591110      14.07089707                           
I       20.70909295      27.65487227      14.07089707                           
I       25.37540115      23.82255313      17.15723785                           
I       25.13584211      27.65458371      17.15707434                           
I       21.69737085      25.94619789      17.15707434                           
Cr      24.07012485      25.80869730       9.03123330                           
Cr      20.63163384      27.79207289       9.03123376                           
I       25.05580883      23.82255135       7.48874545                           
I       21.85684694      25.94619693       7.48890841                           
I       18.41837875      27.65458643       7.48890841                           
I       23.08221316      23.82255313      10.58202506                           
I       22.84513118      27.65486652      10.57507890                           
I       19.40665992      25.94591507      10.57507890                           
Cr      22.92257806      31.76435833      15.61475195                           
Cr      19.48408705      33.74769412      15.61475241                           
I       23.91049801      29.77819248      14.06395847                           
I       20.70907013      31.90155223      14.07089707                           
I       17.27060194      33.61051340      14.07089707                           
I       21.93691014      29.77819426      17.15723785                           
I       21.69735110      33.61022484      17.15707434                           
I       18.25887984      31.90183902      17.15707434                           
Cr      20.63163384      31.76433843       9.03123330                           
Cr      17.19314283      33.74771402       9.03123376                           
I       21.61731782      29.77819248       7.48874545                           
I       18.41835593      31.90183807       7.48890841                           
I       14.97988774      33.61022756       7.48890841                           
I       19.64372215      29.77819426      10.58202506                           
I       19.40664017      33.61050765      10.57507890                           
I       15.96816891      31.90155621      10.57507890                           
%ENDBLOCK POSITIONS_ABS                                                         
%BLOCK SPECIES                                                                  
Cr Cr 24 -1 15                                                                  
I   I  53 -1 15                                                                 
%ENDBLOCK SPECIES                                                               
%BLOCK SPECIES_ATOMIC_SET                                                       
Cr "SOLVE INIT SPIN=3"                                                          
I   "SOLVE"                                                                     
%ENDBLOCK SPECIES_ATOMIC_SET                                                    
%BLOCK HUBBARD                                                                  
Cr  2 2.97 0.0 -10.0 0.00 0.0                                                   
%ENDBLOCK HUBBARD                                                               
%BLOCK SPECIES_LDOS_GROUPS                                                      
Cr                                                                              
I                                                                               
%ENDBLOCK SPECIES_LDOS_GROUPS                                                   
%BLOCK SPECIES_POT                                                              
Cr  "../../../../Cr.PBE-paw.abinit"                                             
I   "../../../../I.PBE-paw.abinit"                                              
%ENDBLOCK SPECIES_POT                                                           

--------------------------------------------------------------------------------
-------------------------------- END INPUT FILE --------------------------------
--------------------------------------------------------------------------------


 
 ESDF WARNING(1): "charge" (esdf_physical) has no units. Assume "e".
<<<<<<<<<<<<<<<<<<<<<<<<<<<<<<<<< Full system >>>>>>>>>>>>>>>>>>>>>>>>>>>>>>>>>>
<<<<<<<<<<<<<<<<<<<<<<<<<<< PAW Dataset information >>>>>>>>>>>>>>>>>>>>>>>>>>>
File: ../../../../Cr.PBE-paw.abinit; rc = 2.11 bohr; shape type =  2; rshape = 1.80 bohr;
  Atomic number: 24;  ionic charge: 14.000000
    Partial Wave 1: l = 0
    Partial Wave 2: l = 0
    Partial Wave 3: l = 1
    Partial Wave 4: l = 1
    Partial Wave 5: l = 2
    Partial Wave 6: l = 2
  Core charge supplied for Nonlinear Core Corrections
File: ../../../../I.PBE-paw.abinit; rc = 2.30 bohr; shape type =  2; rshape = 2.11 bohr;
  Atomic number: 53;  ionic charge:  7.000000
    Partial Wave 1: l = 0
    Partial Wave 2: l = 0
    Partial Wave 3: l = 1
    Partial Wave 4: l = 1
  Core charge supplied for Nonlinear Core Corrections
<<<<<<<<<<<<<<<<<<<<<<<<<<<<<<<<<<<<<<< >>>>>>>>>>>>>>>>>>>>>>>>>>>>>>>>>>>>>>>

-------------------------- Atom counting information ---------------------------
Symbol    Natoms    Nngwfs    Nprojs
  Cr       144      1872      2592
  I        432      1728      3456
.......   ......    ......    ......
Totals:    576      3600      6048
--------------------------------------------------------------------------------

=============================== PSINC grid sizes ===============================
                      Simulation cell:  175 x 175 x 117
                              FFT-box:  175 x 175 x 117
                                  PPD:    5 x   5 x   1
Grid space d1=  0.445563862424a0 (KE cutoff=  38.26345Eh =1041.20135eV)
Grid space d2=  0.445563862400a0 (KE cutoff=  38.26345Eh =1041.20135eV)
Grid space d3=  0.444294449711a0 (KE cutoff=  38.48241Eh =1047.15957eV)
================================================================================

********************* Fourier parallelisation information **********************
       Coarse grid (whole simulation cell) dimensions:    175   175   117
          Real-space ('12') slabs/proc (min max mean):      0     1     0
         Recip-space ('23') slabs/proc (min max mean):      0     1     0
********************************************************************************

********************* Fourier parallelisation information **********************
       Double grid (whole simulation cell) dimensions:    350   350   234
          Real-space ('12') slabs/proc (min max mean):      1     2     1
         Recip-space ('23') slabs/proc (min max mean):      0     1     0
********************************************************************************

********************* Fourier parallelisation information **********************
         Fine grid (whole simulation cell) dimensions:    700   700   468
          Real-space ('12') slabs/proc (min max mean):      2     3     2
         Recip-space ('23') slabs/proc (min max mean):      1     2     1
********************************************************************************

Atom SCF Calculation for Cr : Z (AE atom) =  24 : Z (PS atom) =  14
Config String: 3s2.0 3p6.0 3d5.0 4s1.0 4p0.0 INIT SPIN=3
Orbitals (num,occ):  5     2.00 6.00 5.00 1.00 0.00
Orbitals   (num,l):  5        0    1    2    0    1
Atom SCF converged after  64 iterations to a total energy of    -87.07044631
Adjusting orbital occupancies:
Orbitals (num,spin,occ):  5  1     1.00 3.00 3.50 1.00 0.00
Orbitals   (num,spin,l):  5  1        0    1    2    0    1
Orbitals (num,spin,occ):  5  2     1.00 3.00 1.00 0.50 0.00
Orbitals   (num,spin,l):  5  2        0    1    2    0    1

Atom SCF Calculation for I  : Z (AE atom) =  53 : Z (PS atom) =   7
Config String: 5s2.0 5p5.0
Orbitals (num,occ):  2     2.00 5.00
Orbitals   (num,l):  2        0    1
Atom SCF converged after  28 iterations to a total energy of    -11.61352964

Atom SCF Calculation for Cr : Z (AE atom) =  24 : Z (PS atom) =  14
Config String: 3s2.0 3p6.0 3d5.0 4s1.0 4p0.0 INIT SPIN=3
Orbitals (num,occ):  5     2.00 6.00 5.00 1.00 0.00
Orbitals   (num,l):  5        0    1    2    0    1
Atom SCF converged after  64 iterations to a total energy of    -87.07044631

Atom SCF Calculation for I  : Z (AE atom) =  53 : Z (PS atom) =   7
Config String: 5s2.0 5p5.0
Orbitals (num,occ):  2     2.00 5.00
Orbitals   (num,l):  2        0    1
Atom SCF converged after  28 iterations to a total energy of    -11.61352964

WARNING: The number of FFT boxes in a batch is not a multiple of the number of
OpenMP threads. Consider changing fftbox_batch_size.

Determining parallel strategy ...... done
Calculating Ewald energy ...            31475.177180 Hartree
Basis initialisation ...
... done

============================= Charge Augmentation ==============================
                           Aug box size:   49 x  49 x  45
================================================================================
Sparse matrix initialisation ...
 done
NGWF initialisation ... done
 done

================================= Core Density =================================
               Core den box size:  125 x 125 x 105
================================================================================
Density kernel initialisation

--------------------------- Ensemble-DFT optimisation --------------------------
Running ScaLAPACK on  180 processor(s).
With smearing scheme: FERMIDIRAC                                                                      

--------------------------------------------------------------------------------
  Iter                              Commutator    Free_energy(A=E-TS)     DeltaA
#    0                          0.005662785081  -17493.31558956519440  -1.75E+04
#    1                          0.002515441879  -17571.32054886785040  -7.80E+01
#    2                          0.000203340905  -17613.39365014774380  -4.21E+01
#    3                          0.000170712505  -17613.74817631173210  -3.55E-01
#    4                          0.000139453575  -17613.97439494694480  -2.26E-01
#    5                          0.000104217249  -17614.13304730988970  -1.59E-01
#    6                          0.000090633573  -17614.23467028933740  -1.02E-01
#    7                          0.000067369307  -17614.30455817390250  -6.99E-02
#    8                          0.000059082752  -17614.34895917208270  -4.44E-02
#    9                          0.000045428122  -17614.38053948427480  -3.16E-02
#   10                          0.000038792793  -17614.40074657385050  -2.02E-02
#   11                          0.000032344354  -17614.41589098111940  -1.51E-02
#   12                          0.000026589067  -17614.42561986653530  -9.73E-03
#   13                          0.000024082660  -17614.43336277120760  -7.74E-03
#   14                          0.000018082047  -17614.43840404323780  -5.04E-03
#   15                          0.000019078490  -17614.44264265553650  -4.24E-03
Finished EDFT density kernel iterations (  15)


Writing density kernel to file "Cr2I6_bilayer_HT_AFM_FM_SP.dkn" ... done

Writing Hamiltonian to file "Cr2I6_bilayer_HT_AFM_FM_SP.ham" ... done

Writing density kernel to file "Cr2I6_bilayer_HT_AFM_FM_SP.dkn" ... done

>>> Optimising kernel for current NGWFs:
   iter  |      energy (Eh)       | rms gradient |  commutator  |   dE (Eh)
    1        -1.761444176411E+04     3.3437E-05     1.8364E-05
    2        -1.761444387332E+04     3.3975E-05     1.7172E-05    -2.1092E-03
    3        -1.761444594274E+04     5.8799E-05     3.0738E-05    -2.0694E-03
    4        -1.761444866467E+04     5.9085E-05     3.0506E-05    -2.7219E-03
    5        -1.761445135798E+04     3.9567E-05     2.0852E-05    -2.6933E-03
Finished density kernel iterations (   5)

Writing density kernel to file "Cr2I6_bilayer_HT_AFM_FM_SP.dkn" ... done


>>> Density kernel optimised for the current NGWF basis:
     ~~~~~~~~~~~~~~~~~~~~~~~~~~~~~~~~~~~~~~~~~~~~~~~~~~~~~~~~~~~
     Total energy                =  -1.76144513579823E+04  Eh
     Estimated bandgap (UP spin) =   3.4039E-02  Eh
     Estimated bandgap (DN spin) =   1.0678E-01  Eh
     RMS occupancy error         =   2.0456E-09
     [H,K] commutator            =   2.0852E-05
     UP spin occupancy bounds    = [ -0.000:  1.000]
     DN spin occupancy bounds    = [ -0.000:  1.000]
     ~~~~~~~~~~~~~~~~~~~~~~~~~~~~~~~~~~~~~~~~~~~~~~~~~~~~~~~~~~~




################################################################################
########################### NGWF CG iteration  001 #############################
################################################################################

>>> Checking for convergence of NGWFs:   NOT CONVERGED
  ========================================================================
         NGWF RMS gradient =  1.0228E-04 >  1.0000E-07  | above tolerance
  ========================================================================

>>> Improving NGWFs using line search:
  ========================================================================
   Predicted total energy    =      -1.76224228425346E+04 Eh
   Predicted gain in energy  =      -7.97148455232309E+00 Eh
  ========================================================================

Writing NGWFs to file "Cr2I6_bilayer_HT_AFM_FM_SP.tightbox_ngwfs".... done

>>> Optimising kernel for current NGWFs:
   iter  |      energy (Eh)       | rms gradient |  commutator  |   dE (Eh)
    1        -1.762240817987E+04     5.2588E-04     2.6642E-04
    2        -1.762277029502E+04     2.1320E-04     1.0832E-04    -3.6212E-01
    3        -1.762280971807E+04     9.4094E-05     4.7952E-05    -3.9423E-02
    4        -1.762282179728E+04     6.3598E-05     3.2334E-05    -1.2079E-02
    5        -1.762282821539E+04     2.9633E-05     1.5106E-05    -6.4181E-03
Finished density kernel iterations (   5)

Writing density kernel to file "Cr2I6_bilayer_HT_AFM_FM_SP.dkn" ... done


>>> Density kernel optimised for the current NGWF basis:
     ~~~~~~~~~~~~~~~~~~~~~~~~~~~~~~~~~~~~~~~~~~~~~~~~~~~~~~~~~~~
     Total energy                =  -1.76228282153926E+04  Eh
     Estimated bandgap (UP spin) =   4.0892E-02  Eh
     Estimated bandgap (DN spin) =   1.1783E-01  Eh
     RMS occupancy error         =   6.6226E-10
     [H,K] commutator            =   1.5106E-05
     UP spin occupancy bounds    = [ -0.000:  1.000]
     DN spin occupancy bounds    = [ -0.000:  1.000]
     ~~~~~~~~~~~~~~~~~~~~~~~~~~~~~~~~~~~~~~~~~~~~~~~~~~~~~~~~~~~




################################################################################
########################### NGWF CG iteration  002 #############################
################################################################################

>>> Checking for convergence of NGWFs:   NOT CONVERGED
  ========================================================================
         NGWF RMS gradient =  6.8967E-05 >  1.0000E-07  | above tolerance
  Maximum change in energy =  1.4543E-02 >  1.0000E-07  | above tolerance
  ========================================================================

>>> Improving NGWFs using line search:
  ========================================================================
   Predicted total energy    =      -1.76254558106320E+04 Eh
   Predicted gain in energy  =      -2.62759523938075E+00 Eh
  ========================================================================

Writing NGWFs to file "Cr2I6_bilayer_HT_AFM_FM_SP.tightbox_ngwfs".... done

>>> Optimising kernel for current NGWFs:
   iter  |      energy (Eh)       | rms gradient |  commutator  |   dE (Eh)
    1        -1.762544847376E+04     2.0298E-04     1.0366E-04
    2        -1.762551103570E+04     5.2881E-05     2.6949E-05    -6.2562E-02
    3        -1.762551495444E+04     5.1057E-05     2.6918E-05    -3.9187E-03
    4        -1.762551988977E+04     3.0325E-05     1.5505E-05    -4.9353E-03
    5        -1.762552132665E+04     2.6621E-05     1.3271E-05    -1.4369E-03
Finished density kernel iterations (   5)

Writing density kernel to file "Cr2I6_bilayer_HT_AFM_FM_SP.dkn" ... done


>>> Density kernel optimised for the current NGWF basis:
     ~~~~~~~~~~~~~~~~~~~~~~~~~~~~~~~~~~~~~~~~~~~~~~~~~~~~~~~~~~~
     Total energy                =  -1.76255213266539E+04  Eh
     Estimated bandgap (UP spin) =   4.0111E-02  Eh
     Estimated bandgap (DN spin) =   1.1788E-01  Eh
     RMS occupancy error         =   9.8924E-11
     [H,K] commutator            =   1.3271E-05
     UP spin occupancy bounds    = [ -0.000:  1.000]
     DN spin occupancy bounds    = [ -0.000:  1.000]
     ~~~~~~~~~~~~~~~~~~~~~~~~~~~~~~~~~~~~~~~~~~~~~~~~~~~~~~~~~~~




################################################################################
########################### NGWF CG iteration  003 #############################
################################################################################

>>> Checking for convergence of NGWFs:   NOT CONVERGED
  ========================================================================
         NGWF RMS gradient =  4.2385E-05 >  1.0000E-07  | above tolerance
  Maximum change in energy =  1.4543E-02 >  1.0000E-07  | above tolerance
  ========================================================================

>>> Improving NGWFs using line search:
  ========================================================================
   Predicted total energy    =      -1.76266100830008E+04 Eh
   Predicted gain in energy  =      -1.08875634693686E+00 Eh
  ========================================================================

Writing NGWFs to file "Cr2I6_bilayer_HT_AFM_FM_SP.tightbox_ngwfs".... done

>>> Optimising kernel for current NGWFs:
   iter  |      energy (Eh)       | rms gradient |  commutator  |   dE (Eh)
    1        -1.762659967357E+04     1.9885E-04     1.0130E-04
    2        -1.762664345549E+04     9.3387E-05     4.8213E-05    -4.3782E-02
    3        -1.762665090425E+04     3.3170E-05     1.6854E-05    -7.4488E-03
    4        -1.762665260495E+04     2.6892E-05     1.3492E-05    -1.7007E-03
    5        -1.762665417322E+04     1.7323E-05     8.4333E-06    -1.5683E-03
Finished density kernel iterations (   5)

Writing density kernel to file "Cr2I6_bilayer_HT_AFM_FM_SP.dkn" ... done


>>> Density kernel optimised for the current NGWF basis:
     ~~~~~~~~~~~~~~~~~~~~~~~~~~~~~~~~~~~~~~~~~~~~~~~~~~~~~~~~~~~
     Total energy                =  -1.76266541732199E+04  Eh
     Estimated bandgap (UP spin) =   4.0145E-02  Eh
     Estimated bandgap (DN spin) =   1.1870E-01  Eh
     RMS occupancy error         =   6.8623E-11
     [H,K] commutator            =   8.4333E-06
     UP spin occupancy bounds    = [ -0.000:  1.000]
     DN spin occupancy bounds    = [ -0.000:  1.000]
     ~~~~~~~~~~~~~~~~~~~~~~~~~~~~~~~~~~~~~~~~~~~~~~~~~~~~~~~~~~~




################################################################################
########################### NGWF CG iteration  004 #############################
################################################################################

>>> Checking for convergence of NGWFs:   NOT CONVERGED
  ========================================================================
         NGWF RMS gradient =  2.9384E-05 >  1.0000E-07  | above tolerance
  Maximum change in energy =  4.6755E-03 >  1.0000E-07  | above tolerance
  ========================================================================

>>> Improving NGWFs using line search:
  ========================================================================
   Predicted total energy    =      -1.76272287270524E+04 Eh
   Predicted gain in energy  =      -5.74553832477250E-01 Eh
  ========================================================================

Writing NGWFs to file "Cr2I6_bilayer_HT_AFM_FM_SP.tightbox_ngwfs".... done

>>> Optimising kernel for current NGWFs:
   iter  |      energy (Eh)       | rms gradient |  commutator  |   dE (Eh)
    1        -1.762721776641E+04     8.3853E-05     4.2764E-05
    2        -1.762722708540E+04     3.8758E-05     2.0123E-05    -9.3190E-03
    3        -1.762722870687E+04     2.3647E-05     1.2278E-05    -1.6215E-03
    4        -1.762722965339E+04     2.3268E-05     1.2183E-05    -9.4652E-04
    5        -1.762723042753E+04     1.2332E-05     6.3124E-06    -7.7414E-04
Finished density kernel iterations (   5)

Writing density kernel to file "Cr2I6_bilayer_HT_AFM_FM_SP.dkn" ... done


>>> Density kernel optimised for the current NGWF basis:
     ~~~~~~~~~~~~~~~~~~~~~~~~~~~~~~~~~~~~~~~~~~~~~~~~~~~~~~~~~~~
     Total energy                =  -1.76272304275332E+04  Eh
     Estimated bandgap (UP spin) =   3.9505E-02  Eh
     Estimated bandgap (DN spin) =   1.1835E-01  Eh
     RMS occupancy error         =   9.3024E-11
     [H,K] commutator            =   6.3124E-06
     UP spin occupancy bounds    = [  0.000:  1.000]
     DN spin occupancy bounds    = [  0.000:  1.000]
     ~~~~~~~~~~~~~~~~~~~~~~~~~~~~~~~~~~~~~~~~~~~~~~~~~~~~~~~~~~~




################################################################################
########################### NGWF CG iteration  005 #############################
################################################################################

>>> Checking for convergence of NGWFs:   NOT CONVERGED
  ========================================================================
         NGWF RMS gradient =  2.0431E-05 >  1.0000E-07  | above tolerance
  Maximum change in energy =  1.9667E-03 >  1.0000E-07  | above tolerance
  ========================================================================

>>> Improving NGWFs using line search:
  ========================================================================
   Predicted total energy    =      -1.76273870888204E+04 Eh
   Predicted gain in energy  =      -1.56661287150200E-01 Eh
  ========================================================================

Writing NGWFs to file "Cr2I6_bilayer_HT_AFM_FM_SP.tightbox_ngwfs".... done

>>> Optimising kernel for current NGWFs:
   iter  |      energy (Eh)       | rms gradient |  commutator  |   dE (Eh)
    1        -1.762738636173E+04     1.0067E-05     5.0716E-06
    2        -1.762738655807E+04     1.4692E-05     7.2296E-06    -1.9635E-04
    3        -1.762738683442E+04     1.7183E-05     8.7193E-06    -2.7635E-04
    4        -1.762738702525E+04     1.5657E-05     7.8308E-06    -1.9082E-04
    5        -1.762738725505E+04     2.2974E-05     1.1838E-05    -2.2981E-04
Finished density kernel iterations (   5)

Writing density kernel to file "Cr2I6_bilayer_HT_AFM_FM_SP.dkn" ... done


>>> Density kernel optimised for the current NGWF basis:
     ~~~~~~~~~~~~~~~~~~~~~~~~~~~~~~~~~~~~~~~~~~~~~~~~~~~~~~~~~~~
     Total energy                =  -1.76273872550547E+04  Eh
     Estimated bandgap (UP spin) =   3.9390E-02  Eh
     Estimated bandgap (DN spin) =   1.1874E-01  Eh
     RMS occupancy error         =   2.6222E-10
     [H,K] commutator            =   1.1838E-05
     UP spin occupancy bounds    = [ -0.000:  1.000]
     DN spin occupancy bounds    = [ -0.000:  1.000]
     ~~~~~~~~~~~~~~~~~~~~~~~~~~~~~~~~~~~~~~~~~~~~~~~~~~~~~~~~~~~




################################################################################
########################### NGWF CG iteration  006 #############################
################################################################################

>>> Checking for convergence of NGWFs:   NOT CONVERGED
  ========================================================================
         NGWF RMS gradient =  1.3708E-05 >  1.0000E-07  | above tolerance
  Maximum change in energy =  1.0004E-03 >  1.0000E-07  | above tolerance
  ========================================================================

>>> Improving NGWFs using line search:
  ========================================================================
   Predicted total energy    =      -1.76275064679531E+04 Eh
   Predicted gain in energy  =      -1.19212898458500E-01 Eh
  ========================================================================

Writing NGWFs to file "Cr2I6_bilayer_HT_AFM_FM_SP.tightbox_ngwfs".... done

>>> Optimising kernel for current NGWFs:
   iter  |      energy (Eh)       | rms gradient |  commutator  |   dE (Eh)
[...]
   iter  |      energy (Eh)       | rms gradient |  commutator  |   dE (Eh)
    1        -1.762768214342E+04     5.0943E-06     2.6025E-06
    2        -1.762768214342E+04     5.0940E-06     2.6024E-06    -3.1032E-09
    3        -1.762768214343E+04     5.0934E-06     2.6020E-06    -1.1136E-08
    4        -1.762768214346E+04     5.0916E-06     2.6011E-06    -3.2422E-08
    5        -1.762768214355E+04     5.0869E-06     2.5986E-06    -8.3910E-08
    6        -1.762768214376E+04     5.0750E-06     2.5924E-06    -2.1069E-07
    7        -1.762768214426E+04     5.0469E-06     2.5777E-06    -4.9951E-07
    8        -1.762768214442E+04     5.0377E-06     2.5729E-06    -1.6598E-07
    9        -1.762768214508E+04     5.0009E-06     2.5536E-06    -6.5703E-07
   10        -1.762768214696E+04     4.8952E-06     2.4984E-06    -1.8804E-06
   11        -1.762768215135E+04     4.3087E-06     2.1650E-06    -4.3863E-06
   12        -1.762768217839E+04     3.2624E-06     1.6698E-06    -2.7043E-05
   13        -1.762768219401E+04     2.9045E-06     1.5077E-06    -1.5619E-05
   14        -1.762768220056E+04     1.8251E-06     9.1716E-07    -6.5448E-06
   15        -1.762768220673E+04     1.5961E-06     8.1670E-07    -6.1790E-06
Finished density kernel iterations (  15)

Writing density kernel to file "Cr2I6_bilayer_HT_AFM_FM_SP.dkn" ... done


>>> Density kernel optimised for the current NGWF basis:
     ~~~~~~~~~~~~~~~~~~~~~~~~~~~~~~~~~~~~~~~~~~~~~~~~~~~~~~~~~~~
     Total energy                =  -1.76276822067344E+04  Eh
     Estimated bandgap (UP spin) =   3.6348E-02  Eh
     Estimated bandgap (DN spin) =   1.1214E-01  Eh
     RMS occupancy error         =   5.6769E-16
     [H,K] commutator            =   8.1670E-07
     UP spin occupancy bounds    = [  0.000:  1.000]
     DN spin occupancy bounds    = [  0.000:  1.000]
     ~~~~~~~~~~~~~~~~~~~~~~~~~~~~~~~~~~~~~~~~~~~~~~~~~~~~~~~~~~~




################################################################################
########################### NGWF CG iteration  035 #############################
################################################################################

>>> Checking for convergence of NGWFs:   NOT CONVERGED
  ========================================================================
         NGWF RMS gradient =  2.0279E-07 >  1.0000E-07  | above tolerance
  Maximum change in energy =  1.1679E-07 >  1.0000E-07  | above tolerance
  ========================================================================

>>> Improving NGWFs using line search:
WARNING in services_cubic_fit_minimum:
  cubic step (   -2.66354) less than zero - setting to safe value
  ========================================================================
   Predicted total energy    =      -1.76276822123087E+04 Eh
   Predicted gain in energy  =      -5.57430030312389E-06 Eh
  ========================================================================

Writing NGWFs to file "Cr2I6_bilayer_HT_AFM_FM_SP.tightbox_ngwfs".... done

>>> Optimising kernel for current NGWFs:
   iter  |      energy (Eh)       | rms gradient |  commutator  |   dE (Eh)
    1        -1.762768220908E+04     1.7964E-06     9.1204E-07
    2        -1.762768221537E+04     1.3694E-06     6.9155E-07    -6.2894E-06
    3        -1.762768222356E+04     7.1422E-07     3.6496E-07    -8.1944E-06
    4        -1.762768222584E+04     8.6270E-07     4.6297E-07    -2.2838E-06
    5        -1.762768222819E+04     6.7070E-07     3.3385E-07    -2.3415E-06
    6        -1.762768222834E+04     5.3191E-07     2.6515E-07    -1.5419E-07
    7        -1.762768222845E+04     4.1354E-07     2.0607E-07    -1.0794E-07
    8        -1.762768222853E+04     3.4345E-07     1.7114E-07    -8.2418E-08
    9        -1.762768222856E+04     2.8177E-07     1.4032E-07    -3.4343E-08
   10        -1.762768222856E+04     2.3938E-07     1.1915E-07     4.1109E-10
   11        -1.762768222855E+04     2.1233E-07     1.0565E-07     9.3496E-09
   12        -1.762768222855E+04     1.9545E-07     9.7228E-08     9.0622E-09
   13        -1.762768222854E+04     1.8486E-07     9.1936E-08     6.8540E-09
   14        -1.762768222854E+04     1.8345E-07     9.1233E-08     8.4401E-10
   15        -1.762768222854E+04     1.8175E-07     9.0385E-08     9.1313E-10
Finished density kernel iterations (  15)

Writing density kernel to file "Cr2I6_bilayer_HT_AFM_FM_SP.dkn" ... done


>>> Density kernel optimised for the current NGWF basis:
     ~~~~~~~~~~~~~~~~~~~~~~~~~~~~~~~~~~~~~~~~~~~~~~~~~~~~~~~~~~~
     Total energy                =  -1.76276822285366E+04  Eh
     Estimated bandgap (UP spin) =   3.6297E-02  Eh
     Estimated bandgap (DN spin) =   1.1224E-01  Eh
     RMS occupancy error         =   3.5177E-16
     [H,K] commutator            =   9.0385E-08
     UP spin occupancy bounds    = [  0.000:  1.000]
     DN spin occupancy bounds    = [  0.000:  1.000]
     ~~~~~~~~~~~~~~~~~~~~~~~~~~~~~~~~~~~~~~~~~~~~~~~~~~~~~~~~~~~




################################################################################
########################### NGWF CG iteration  036 #############################
################################################################################

>>> Checking for convergence of NGWFs:   NOT CONVERGED
  ========================================================================
         NGWF RMS gradient =  3.0689E-07 >  1.0000E-07  | above tolerance
  Maximum change in energy =  1.1679E-07 >  1.0000E-07  | above tolerance
  ========================================================================

>>> Improving NGWFs using line search:
Resetting NGWF CG
WARNING: Cubic fit was unsuccessful.
  ========================================================================
   Predicted total energy    =       0.00000000000000E+00 Eh
   Predicted gain in energy  =       1.76276822285366E+04 Eh
  ========================================================================

Writing NGWFs to file "Cr2I6_bilayer_HT_AFM_FM_SP.tightbox_ngwfs".... done

>>> Optimising kernel for current NGWFs:
   iter  |      energy (Eh)       | rms gradient |  commutator  |   dE (Eh)
    1        -1.762768223694E+04     2.4111E-07     1.2208E-07
    2        -1.762768223694E+04     2.3984E-07     1.2144E-07     1.0186E-09
    3        -1.762768223694E+04     2.3857E-07     1.2080E-07     9.8953E-10
    4        -1.762768223694E+04     2.3762E-07     1.2032E-07     7.6034E-10
    5        -1.762768223694E+04     2.3699E-07     1.2001E-07     4.9840E-10
    6        -1.762768223694E+04     2.3660E-07     1.1981E-07     3.0923E-10
    7        -1.762768223694E+04     2.3635E-07     1.1968E-07     1.9281E-10
    8        -1.762768223694E+04     2.3633E-07     1.1967E-07    -1.0914E-11
    9        -1.762768223694E+04     2.3631E-07     1.1966E-07     5.8208E-11
   10        -1.762768223694E+04     2.3628E-07     1.1965E-07    -1.0914E-11
   11        -1.762768223694E+04     2.3627E-07     1.1964E-07     5.4570E-11
   12        -1.762768223694E+04     2.3612E-07     1.1957E-07     1.0186E-10
   13        -1.762768223694E+04     2.3609E-07     1.1955E-07     2.9104E-11
   14        -1.762768223694E+04     2.3609E-07     1.1955E-07     0.0000E+00
   15        -1.762768223694E+04     2.3609E-07     1.1955E-07     1.8190E-11
Finished density kernel iterations (  15)

Writing density kernel to file "Cr2I6_bilayer_HT_AFM_FM_SP.dkn" ... done


>>> Density kernel optimised for the current NGWF basis:
     ~~~~~~~~~~~~~~~~~~~~~~~~~~~~~~~~~~~~~~~~~~~~~~~~~~~~~~~~~~~
     Total energy                =  -1.76276822369408E+04  Eh
     Estimated bandgap (UP spin) =   3.6342E-02  Eh
     Estimated bandgap (DN spin) =   1.1218E-01  Eh
     RMS occupancy error         =   2.5589E-16
     [H,K] commutator            =   1.1955E-07
     UP spin occupancy bounds    = [  0.000:  1.000]
     DN spin occupancy bounds    = [  0.000:  1.000]
     ~~~~~~~~~~~~~~~~~~~~~~~~~~~~~~~~~~~~~~~~~~~~~~~~~~~~~~~~~~~




################################################################################
########################### NGWF CG iteration  037 #############################
################################################################################

>>> Checking for convergence of NGWFs:   NOT CONVERGED
  ========================================================================
         NGWF RMS gradient =  2.8399E-07 >  1.0000E-07  | above tolerance
  Maximum change in energy =  3.7851E-08 <  1.0000E-07  | CONVERGED
  ========================================================================

>>> Improving NGWFs using line search:
Resetting NGWF CG
  ========================================================================
   Predicted total energy    =      -1.76276821877880E+04 Eh
   Predicted gain in energy  =       4.91527607664466E-05 Eh
  ========================================================================

Writing NGWFs to file "Cr2I6_bilayer_HT_AFM_FM_SP.tightbox_ngwfs".... done

>>> Optimising kernel for current NGWFs:
   iter  |      energy (Eh)       | rms gradient |  commutator  |   dE (Eh)
    1        -1.762768208316E+04     3.7342E-06     1.8748E-06
    2        -1.762768208317E+04     3.7336E-06     1.8746E-06    -1.0419E-08
    3        -1.762768208320E+04     3.7320E-06     1.8738E-06    -3.1730E-08
    4        -1.762768208329E+04     3.7275E-06     1.8715E-06    -9.1957E-08
    5        -1.762768208357E+04     3.7138E-06     1.8646E-06    -2.7457E-07
    6        -1.762768208432E+04     3.6762E-06     1.8456E-06    -7.5124E-07
    7        -1.762768208624E+04     3.5793E-06     1.7967E-06    -1.9212E-06
    8        -1.762768208696E+04     3.5430E-06     1.7784E-06    -7.2055E-07
    9        -1.762768209005E+04     3.3856E-06     1.6990E-06    -3.0880E-06
   10        -1.762768209859E+04     2.9323E-06     1.4701E-06    -8.5459E-06
   11        -1.762768212006E+04     1.7910E-06     8.9238E-07    -2.1468E-05
   12        -1.762768212512E+04     1.4399E-06     7.2007E-07    -5.0576E-06
   13        -1.762768212631E+04     1.2201E-06     6.1200E-07    -1.1873E-06
   14        -1.762768212662E+04     1.0537E-06     5.2919E-07    -3.1562E-07
   15        -1.762768212665E+04     9.3705E-07     4.7076E-07    -2.9828E-08
Finished density kernel iterations (  15)

Writing density kernel to file "Cr2I6_bilayer_HT_AFM_FM_SP.dkn" ... done


>>> Density kernel optimised for the current NGWF basis:
     ~~~~~~~~~~~~~~~~~~~~~~~~~~~~~~~~~~~~~~~~~~~~~~~~~~~~~~~~~~~
     Total energy                =  -1.76276821266514E+04  Eh
     Estimated bandgap (UP spin) =   3.6247E-02  Eh
     Estimated bandgap (DN spin) =   1.1227E-01  Eh
     RMS occupancy error         =   5.7225E-16
     [H,K] commutator            =   4.7076E-07
     UP spin occupancy bounds    = [  0.000:  1.000]
     DN spin occupancy bounds    = [  0.000:  1.000]
     ~~~~~~~~~~~~~~~~~~~~~~~~~~~~~~~~~~~~~~~~~~~~~~~~~~~~~~~~~~~




################################################################################
########################### NGWF CG iteration  038 #############################
################################################################################

>>> Checking for convergence of NGWFs:   NOT CONVERGED
  ========================================================================
         NGWF RMS gradient =  3.5686E-07 >  1.0000E-07  | above tolerance
  Maximum change in energy =  1.9147E-07 >  1.0000E-07  | above tolerance
  ========================================================================

>>> Improving NGWFs using line search:
WARNING: Cubic fit was unsuccessful.
  ========================================================================
   Predicted total energy    =       0.00000000000000E+00 Eh
   Predicted gain in energy  =       1.76276821266514E+04 Eh
  ========================================================================

Writing NGWFs to file "Cr2I6_bilayer_HT_AFM_FM_SP.tightbox_ngwfs".... done

>>> Optimising kernel for current NGWFs:
   iter  |      energy (Eh)       | rms gradient |  commutator  |   dE (Eh)
    1        -1.762768215250E+04     1.1749E-06     5.9506E-07
    2        -1.762768215254E+04     1.1116E-06     5.6306E-07    -4.0036E-08
    3        -1.762768215258E+04     1.0294E-06     5.2149E-07    -3.3760E-08
    4        -1.762768215259E+04     9.5469E-07     4.8373E-07    -1.2707E-08
    5        -1.762768215259E+04     8.9549E-07     4.5377E-07     1.9281E-09
    6        -1.762768215258E+04     8.5118E-07     4.3136E-07     8.2982E-09
    7        -1.762768215257E+04     8.1889E-07     4.1501E-07     9.6588E-09
    8        -1.762768215257E+04     8.1481E-07     4.1295E-07     1.0259E-09
    9        -1.762768215257E+04     8.0935E-07     4.1018E-07     1.3970E-09
   10        -1.762768215257E+04     8.0392E-07     4.0743E-07     1.5134E-09
   11        -1.762768215257E+04     7.9911E-07     4.0500E-07     1.3824E-09
   12        -1.762768215256E+04     7.9514E-07     4.0299E-07     1.1823E-09
   13        -1.762768215256E+04     7.9198E-07     4.0139E-07     1.0477E-09
   14        -1.762768215256E+04     7.9162E-07     4.0121E-07     1.0186E-10
   15        -1.762768215256E+04     7.9114E-07     4.0096E-07     1.3097E-10
Finished density kernel iterations (  15)

Writing density kernel to file "Cr2I6_bilayer_HT_AFM_FM_SP.dkn" ... done


>>> Density kernel optimised for the current NGWF basis:
     ~~~~~~~~~~~~~~~~~~~~~~~~~~~~~~~~~~~~~~~~~~~~~~~~~~~~~~~~~~~
     Total energy                =  -1.76276821525636E+04  Eh
     Estimated bandgap (UP spin) =   3.6305E-02  Eh
     Estimated bandgap (DN spin) =   1.1227E-01  Eh
     RMS occupancy error         =   2.7581E-16
     [H,K] commutator            =   4.0096E-07
     UP spin occupancy bounds    = [  0.000:  1.000]
     DN spin occupancy bounds    = [  0.000:  1.000]
     ~~~~~~~~~~~~~~~~~~~~~~~~~~~~~~~~~~~~~~~~~~~~~~~~~~~~~~~~~~~




################################################################################
########################### NGWF CG iteration  039 #############################
################################################################################

>>> Checking for convergence of NGWFs:   NOT CONVERGED
  ========================================================================
         NGWF RMS gradient =  2.9983E-07 >  1.0000E-07  | above tolerance
  Maximum change in energy =  1.9147E-07 >  1.0000E-07  | above tolerance
  ========================================================================

>>> Improving NGWFs using line search:
Resetting NGWF CG
  ========================================================================
   Predicted total energy    =      -1.76276820662592E+04 Eh
   Predicted gain in energy  =       8.63044078869279E-05 Eh
  ========================================================================

Writing NGWFs to file "Cr2I6_bilayer_HT_AFM_FM_SP.tightbox_ngwfs".... done

>>> Optimising kernel for current NGWFs:
   iter  |      energy (Eh)       | rms gradient |  commutator  |   dE (Eh)
    1        -1.762768181705E+04     5.4957E-06     2.7541E-06
    2        -1.762768181939E+04     5.4231E-06     2.7177E-06    -2.3376E-06
    3        -1.762768184271E+04     4.6817E-06     2.3448E-06    -2.3322E-05
    4        -1.762768188875E+04     3.2080E-06     1.5990E-06    -4.6036E-05
    5        -1.762768190804E+04     2.3497E-06     1.1716E-06    -1.9292E-05
    6        -1.762768191528E+04     1.7603E-06     8.8037E-07    -7.2438E-06
    7        -1.762768191769E+04     1.4232E-06     7.1238E-07    -2.4092E-06
    8        -1.762768191791E+04     1.3255E-06     6.6349E-07    -2.1975E-07
    9        -1.762768191814E+04     1.2064E-06     6.0381E-07    -2.2155E-07
   10        -1.762768191828E+04     1.1057E-06     5.5323E-07    -1.4385E-07
   11        -1.762768191836E+04     1.0283E-06     5.1437E-07    -8.2175E-08
   12        -1.762768191841E+04     9.6978E-07     4.8499E-07    -4.7057E-08
   13        -1.762768191844E+04     9.2519E-07     4.6264E-07    -2.8813E-08
   14        -1.762768191845E+04     9.1745E-07     4.5879E-07    -1.7342E-08
   15        -1.762768191848E+04     9.0521E-07     4.5268E-07    -2.6517E-08
Finished density kernel iterations (  15)

Writing density kernel to file "Cr2I6_bilayer_HT_AFM_FM_SP.dkn" ... done


>>> Density kernel optimised for the current NGWF basis:
     ~~~~~~~~~~~~~~~~~~~~~~~~~~~~~~~~~~~~~~~~~~~~~~~~~~~~~~~~~~~
     Total energy                =  -1.76276819184812E+04  Eh
     Estimated bandgap (UP spin) =   3.6227E-02  Eh
     Estimated bandgap (DN spin) =   1.1256E-01  Eh
     RMS occupancy error         =   4.4937E-16
     [H,K] commutator            =   4.5268E-07
     UP spin occupancy bounds    = [  0.000:  1.000]
     DN spin occupancy bounds    = [  0.000:  1.000]
     ~~~~~~~~~~~~~~~~~~~~~~~~~~~~~~~~~~~~~~~~~~~~~~~~~~~~~~~~~~~




################################################################################
########################### NGWF CG iteration  040 #############################
################################################################################

>>> Checking for convergence of NGWFs:   NOT CONVERGED
  ========================================================================
         NGWF RMS gradient =  5.6655E-07 >  1.0000E-07  | above tolerance
  Maximum change in energy =  4.0639E-07 >  1.0000E-07  | above tolerance
  ========================================================================

>>> Improving NGWFs using line search:
  ========================================================================
   Predicted total energy    =      -1.76276821111151E+04 Eh
   Predicted gain in energy  =      -1.92633888218552E-04 Eh
  ========================================================================

Writing NGWFs to file "Cr2I6_bilayer_HT_AFM_FM_SP.tightbox_ngwfs".... done

>>> Optimising kernel for current NGWFs:
   iter  |      energy (Eh)       | rms gradient |  commutator  |   dE (Eh)
    1        -1.762768199760E+04     4.1469E-06     2.1537E-06
    2        -1.762768200009E+04     3.9331E-06     2.0398E-06    -2.4881E-06
    3        -1.762768200574E+04     3.0262E-06     1.5314E-06    -5.6476E-06
    4        -1.762768202146E+04     3.6799E-06     1.9355E-06    -1.5727E-05
    5        -1.762768186415E+04     1.8344E-05     9.8598E-06     1.5731E-04
    6        -1.762768204211E+04     2.4740E-06     1.2739E-06    -1.7796E-04
    7        -1.762768204398E+04     1.2824E-06     6.5157E-07    -1.8719E-06
    8        -1.762768204390E+04     8.9819E-07     4.5331E-07     8.4103E-08
    9        -1.762768204373E+04     7.3522E-07     3.7071E-07     1.6546E-07
   10        -1.762768204362E+04     6.5019E-07     3.2793E-07     1.1427E-07
   11        -1.762768204355E+04     6.0219E-07     3.0382E-07     7.0366E-08
   12        -1.762768204354E+04     5.9411E-07     2.9975E-07     9.2587E-09
   13        -1.762768204353E+04     5.8544E-07     2.9538E-07     1.0132E-08
   14        -1.762768204352E+04     5.7851E-07     2.9189E-07     8.3164E-09
   15        -1.762768204352E+04     5.7358E-07     2.8941E-07     6.0063E-09
Finished density kernel iterations (  15)

Writing density kernel to file "Cr2I6_bilayer_HT_AFM_FM_SP.dkn" ... done


>>> Density kernel optimised for the current NGWF basis:
     ~~~~~~~~~~~~~~~~~~~~~~~~~~~~~~~~~~~~~~~~~~~~~~~~~~~~~~~~~~~
     Total energy                =  -1.76276820435153E+04  Eh
     Estimated bandgap (UP spin) =   3.6222E-02  Eh
     Estimated bandgap (DN spin) =   1.1227E-01  Eh
     RMS occupancy error         =   3.7027E-16
     [H,K] commutator            =   2.8941E-07
     UP spin occupancy bounds    = [  0.000:  1.000]
     DN spin occupancy bounds    = [  0.000:  1.000]
     ~~~~~~~~~~~~~~~~~~~~~~~~~~~~~~~~~~~~~~~~~~~~~~~~~~~~~~~~~~~




################################################################################
########################### NGWF CG iteration  041 #############################
################################################################################


