==================================================================================
It's Sat 31 May 2025 09:37:00 AM BST.
*** Starting onetep_launcher (node nid001609, PIDs 89898 89899 89900 89901 89902 89903)...
    - ONETEP arguments: Cr2I6_bilayer_HT_AFM_AFM_nSP.dat
    - Current directory: /mnt/lustre/a2fs-work3/work/e89/e89/phsmea/CrI3_onetep_U/U_2.97/HT_AFM/HT_AFM_AFM/nsp-ngwfs
    - Launcher executable directory: /mnt/lustre/a2fs-work3/work/e89/e89/phsmea/CrI3_onetep_U/U_2.97/HT_AFM/HT_AFM_AFM/nsp-ngwfs
    - (-e) ONETEP executable specified through command-line: /work/e89/e89/phsmea/onetep.archer2_2024_cray
      ... trying /work/e89/e89/phsmea/onetep.archer2_2024_cray
          -> looks OK
*** Setting up environment...
    - (-s) Process stack size: unlimited
    - (-t) OMP_NUM_THREADS: 17
    - (-o) OMP_STACKSIZE: 64M
    - (-c) Maximum core file size: 2048000
    - (-d) decfort_dump_flag: n
    - (-m) I_MPI_OFA_TRANSLATION_CACHE: 0
    - (-m) I_MPI_DAPL_TRANSLATION_CACHE: 0
    - (-m) I_MPI_DAPL_UD_TRANSLATION_CACHE: 0
*** Starting ONETEP...
    - /work/e89/e89/phsmea/onetep.archer2_2024_cray Cr2I6_bilayer_HT_AFM_AFM_nSP.dat
=================================================================================
_________________________________________________________________________________
 +---------------------------------------------------------------+
 |                                                               |
 |        ####### #     # ####### ####### ####### ######         |
 |        #     # ##    # #          #    #       #     #        |
 |        #     # # #   # #          #    #       #     #        |
 |        #     # #  #  # #####      #    #####   ######         |
 |        #     # #   # # #          #    #       #              |
 |        #     # #    ## #          #    #       #              |
 |        ####### #     # #######    #    ####### #              |
 |                                                               |
 |        Linear-Scaling Ab Initio Total Energy Program          |
 |                                                               |
 |          Release for academic collaborators of ODG            |
 |                                             Version 7.3.0     |
 | Remote: git@github.com:Miesaz/onetep_mea.git                  |
 | Local branch: master                                          |
 | Commit ID: 4af45e89288c8df5499704252eec3e032ee3d0c8           |
 | Date: Tue Aug 6 11:28:44 2024 +0100                           |
 | Working tree clean                                            |
 |                                                               |
 +---------------------------------------------------------------+
 |                                                               |
 |  Authors:                                                     |
 |  Jacek Dziedzic, Peter D. Haynes, Nicholas D. M. Hine,        |
 |  Arash A. Mostofi, Mike C. Payne and Chris-Kriton Skylaris    |
 |                                                               |
 |  Contributors:                                                |
 |  J. Aarons, L. Andrinopoulos, P. W. Avraam, R. A. Bell,       |
 |  A. Bhandari, G. A. Bramley, R. J. Charlton, S. J. Clark,     |
 |  R. J. Clements, G. C. Constantinescu, F. Corsetti,           |
 |  N. Corsini, O. Dieguez, S. M. M. Dubois, K. K. B. Duff,      |
 |  J. M. Escartin, M. Escobar Azor, A. Greco,                   |
 |  H. Helal, Q. O. Hill, L. P. Lee, J.-H. Li,                   |
 |  T. Li, E. B. Linscott, G. Moynihan, D. D. O`Regan,           |
 |  O. K. Okan, E. Parkinson, M. J. S. Phipps,                   |
 |  C. J. Pickard, J. C. A. Prentice, M. I. J. Probert,          |
 |  L. E. Ratcliff, M. Robinson, A. Ruiz Serrano,                |
 |  M. dos Santos Dias, J. S. Spencer, E. W. Tait,               |
 |  G. Teobaldi, D. Turban, V. Vitale, K. A. Wilkinson,          |
 |  C. Weber, J. C. Womack, Chengcheng Xiao, N. Yeung,           |
 |  and T. J. Zuehlsdorff.                                       |
 |                                                               |
 |                                   Copyright (c) 2004-2024     |
 |                                                               |
 |  Please cite:                                                 |
 |  "The ONETEP linear-scaling density functional theory program"|
 |   J. Chem. Phys. 152(17) 174111 (2020)                        |
 |                                                               |
 |          in all publications arising from your use of ONETEP. |
 |                                                               |
 +---------------------------------------------------------------+
 |                                                               |
 |   ONETEP is based on developments described in the following  |
 |   publications:                                               |
 |                                                               |
 |  "Nonorthogonal generalized Wannier function pseudopotential  |
 |   plane-wave method".                                         |
 |   C.-K. Skylaris, A. A. Mostofi, P. D. Haynes, O. Dieguez,    |
 |   M. C. Payne.                                                |
 |   Phys. Rev. B 66 035119 (2002).                              |
 |                                                               |
 |  "Preconditioned iterative minimization for linear-scaling    |
 |   electronic structure calculations".                         |
 |   A. A. Mostofi, P. D. Haynes, C.-K. Skylaris, M. C. Payne.   |
 |   J. Chem. Phys. 119(17), pp.8842-8848 (2003).                |
 |                                                               |
 |  "Total-energy calculations on a real space grid with         |
 |   localized functions and a plane-wave basis".                |
 |   A. A. Mostofi, C.-K. Skylaris, P. D. Haynes, M. C. Payne.   |
 |   Comput. Phys. Commun. 147, pp.788-802 (2002).               |
 |                                                               |
 |  "Accurate kinetic energy evaluation in electronic structure  |
 |   calculations with localized functions on real space grids"  |
 |   C.-K. Skylaris, A. A. Mostofi, P. D. Haynes, C. J. Pickard, |
 |   M. C. Payne.                                                |
 |   Comput. Phys. Commun. 140, pp.315-322 (2001).               |
 |                                                               |
 |  "Accurate ionic forces and geometry optimization in linear-  |
 |   scaling density-functional theory with local orbitals"      |
 |   N. D. M. Hine, M. Robinson, P. D. Haynes, C.-K. Skylaris,   |
 |   M. C. Payne, and A. A. Mostofi.                             |
 |   Phys. Rev. B 83 195102 (2011).                              |
 |                                                               |
 +---------------------------------------------------------------+

Job started: 31-05-2025 09:37 (+0100)
 
Reading parameters from file "Cr2I6_bilayer_HT_AFM_AFM_nSP.dat" ...... done

If your calculation crashes here, before "Checking processes and threads..."
is displayed, then your stack size is insufficient.
If so, use "ulimit -s unlimited" at runtime.
You can disable this check with "check_stack_size F".

Checking processes and threads...
      Default threads: 17
   Running with 180 MPI processes.
   There are 6 MPI processes running on the same node as the root process.
   Each MPI process is using: 
               1 threads for simulation cell FFTs.
               1 threads for threaded FFT box operations.
              17 threads for loops over batched FFT box operations.
              17 threads in other parallel regions.
   MPI Interface: S1 (use mpi_f08) (-DMPI -DUSE_MPI_F08).
   MPI_ASYNC_PROTECTS_NONBLOCKING: Yes. MPI_SUBARRAYS_SUPPORTED: Yes.
   FFTW Interface: OMP-capable and MODERN. (-DUSE_MODERN_FFTW specified).
   GPU Interface: None.
   GPU FFT Backend: None.
... done

Basic input checks...
WARNING: The number of FFT boxes in a batch is not a multiple of the number of
OpenMP threads. Consider changing fftbox_batch_size.
... done

Reading geometry and species blocks from file "Cr2I6_bilayer_HT_AFM_AFM_nSP.dat" ...... done


--------------------------------------------------------------------------------
---------------------------------- INPUT FILE ----------------------------------
--------------------------------------------------------------------------------

charge : 0                                                                      
cutoff_energy : 1000 eV                                                         
delta_e_conv : F                                                                
do_properties : T                                                               
edft : F                                                                        
edft_init_maxit : 15                                                            
elec_energy_tol : 1e-07 Ha                                                      
fine_grid_scale : 4                                                             
forces_output_detail : VERBOSE                                                  
maxit_ngwf_cg : 100                                                             
MAXIT_LNV     : 15                                                              
MINIT_LNV     : 5                                                               
ngwf_threshold_orig : 1e-06                                                     
ngwfs_spin_polarized : F                                                        
output_detail : NORMAL                                                          
paw : T                                                                         
read_denskern : F                                                               
read_hamiltonian : F                                                            
read_tightbox_ngwfs : F                                                         
spin : 0                                                                        
spin_polarized : T                                                              
task : SinglePoint                                                              
write_denskern : T                                                              
write_forces : T                                                                
write_hamiltonian : T                                                           
write_tightbox_ngwfs : T                                                        
xc_functional : PBE                                                             
%BLOCK LATTICE_CART                                                             
ang                                                                             
41.261892132       0.000000000000000        0.000000000000000                   
-20.630946066       35.733846792             0.000000000000000                  
0.000000000000000   0.0000000000000000       27.507928088                       
%ENDBLOCK LATTICE_CART                                                          
%BLOCK POSITIONS_ABS                                                            
ang                                                                             
Cr       5.73012301       1.98615267      15.61475195                           
Cr       2.29163200       3.96948846      15.61475241                           
I        6.71804295      -0.00001318      14.06395847                           
I        3.51661508       2.12334657      14.07089707                           
I        0.07814689       3.83230774      14.07089707                           
I        4.74445508      -0.00001140      17.15723785                           
I        4.50489604       3.83201918      17.15707434                           
I        1.06642478       2.12363336      17.15707434                           
Cr1      3.43917878       1.98613277       9.03123330                           
Cr1      0.00068777       3.96950836       9.03123376                           
I        4.42486276      -0.00001318       7.48874545                           
I        1.22590088       2.12363241       7.48890841                           
I       -2.21256731       3.83202190       7.48890841                           
I        2.45126709      -0.00001140      10.58202506                           
I        2.21418512       3.83230199      10.57507890                           
I       -1.22428614       2.12335055      10.57507890                           
Cr       2.29163200       7.94179381      15.61475195                           
Cr      -1.14685901       9.92512959      15.61475241                           
I        3.27955194       5.95562795      14.06395847                           
I        0.07812407       8.07898770      14.07089707                           
I       -3.36034412       9.78794887      14.07089707                           
I        1.30596407       5.95562973      17.15723785                           
I        1.06640503       9.78766031      17.15707434                           
I       -2.37206623       8.07927449      17.15707434                           
Cr1      0.00068777       7.94177390       9.03123330                           
Cr1     -3.43780324       9.92514949       9.03123376                           
I        0.98637175       5.95562795       7.48874545                           
I       -2.21259013       8.07927354       7.48890841                           
I       -5.65105832       9.78766304       7.48890841                           
I       -0.98722392       5.95562973      10.58202506                           
I       -1.22430589       9.78794313      10.57507890                           
I       -4.66277715       8.07899168      10.57507890                           
Cr      -1.14685901      13.89743494      15.61475195                           
Cr      -4.58535002      15.88077072      15.61475241                           
I       -0.15893907      11.91126908      14.06395847                           
I       -3.36036694      14.03462883      14.07089707                           
I       -6.79883513      15.74359001      14.07089707                           
I       -2.13252694      11.91127086      17.15723785                           
I       -2.37208598      15.74330145      17.15707434                           
I       -5.81055724      14.03491562      17.15707434                           
Cr1     -3.43780324      13.89741504       9.03123330                           
Cr1     -6.87629425      15.88079062       9.03123376                           
I       -2.45211926      11.91126908       7.48874545                           
I       -5.65108114      14.03491467       7.48890841                           
I       -9.08954933      15.74330417       7.48890841                           
I       -4.42571493      11.91127086      10.58202506                           
I       -4.66279691      15.74358426      10.57507890                           
I       -8.10126817      14.03463281      10.57507890                           
Cr      -4.58535002      19.85307607      15.61475195                           
Cr      -8.02384103      21.83641185      15.61475241                           
I       -3.59743008      17.86691022      14.06395847                           
I       -6.79885795      19.99026996      14.07089707                           
I      -10.23732614      21.69923114      14.07089707                           
I       -5.57101795      17.86691200      17.15723785                           
I       -5.81057699      21.69894258      17.15707434                           
I       -9.24904825      19.99055675      17.15707434                           
Cr1     -6.87629425      19.85305617       9.03123330                           
Cr1    -10.31478526      21.83643175       9.03123376                           
I       -5.89061027      17.86691022       7.48874545                           
I       -9.08957216      19.99055580       7.48890841                           
I      -12.52804035      21.69894530       7.48890841                           
I       -7.86420594      17.86691200      10.58202506                           
I       -8.10128792      21.69922539      10.57507890                           
I      -11.53975918      19.99027394      10.57507890                           
Cr      -8.02384103      25.80871720      15.61475195                           
Cr     -11.46233204      27.79205298      15.61475241                           
I       -7.03592109      23.82255135      14.06395847                           
I      -10.23734897      25.94591110      14.07089707                           
I      -13.67581716      27.65487227      14.07089707                           
I       -9.00950896      23.82255313      17.15723785                           
I       -9.24906800      27.65458371      17.15707434                           
I      -12.68753926      25.94619789      17.15707434                           
Cr1    -10.31478526      25.80869730       9.03123330                           
Cr1    -13.75327627      27.79207289       9.03123376                           
I       -9.32910128      23.82255135       7.48874545                           
I      -12.52806317      25.94619693       7.48890841                           
I      -15.96653136      27.65458643       7.48890841                           
I      -11.30269695      23.82255313      10.58202506                           
I      -11.53977893      27.65486652      10.57507890                           
I      -14.97825019      25.94591507      10.57507890                           
Cr     -11.46233205      31.76435833      15.61475195                           
Cr     -14.90082306      33.74769412      15.61475241                           
I      -10.47441210      29.77819248      14.06395847                           
I      -13.67583998      31.90155223      14.07089707                           
I      -17.11430817      33.61051340      14.07089707                           
I      -12.44799997      29.77819426      17.15723785                           
I      -12.68755901      33.61022484      17.15707434                           
I      -16.12603027      31.90183902      17.15707434                           
Cr1    -13.75327627      31.76433843       9.03123330                           
Cr1    -17.19176728      33.74771402       9.03123376                           
I      -12.76759229      29.77819248       7.48874545                           
I      -15.96655418      31.90183807       7.48890841                           
I      -19.40502237      33.61022756       7.48890841                           
I      -14.74118796      29.77819426      10.58202506                           
I      -14.97826994      33.61050765      10.57507890                           
I      -18.41674120      31.90155621      10.57507890                           
Cr      12.60710503       1.98615267      15.61475195                           
Cr       9.16861402       3.96948846      15.61475241                           
I       13.59502497      -0.00001318      14.06395847                           
I       10.39359710       2.12334657      14.07089707                           
I        6.95512891       3.83230774      14.07089707                           
I       11.62143710      -0.00001140      17.15723785                           
I       11.38187806       3.83201918      17.15707434                           
I        7.94340680       2.12363336      17.15707434                           
Cr1     10.31616080       1.98613277       9.03123330                           
Cr1      6.87766979       3.96950836       9.03123376                           
I       11.30184479      -0.00001318       7.48874545                           
I        8.10288290       2.12363241       7.48890841                           
I        4.66441471       3.83202190       7.48890841                           
I        9.32824912      -0.00001140      10.58202506                           
I        9.09116714       3.83230199      10.57507890                           
I        5.65269588       2.12335055      10.57507890                           
Cr       9.16861402       7.94179381      15.61475195                           
Cr       5.73012301       9.92512959      15.61475241                           
I       10.15653396       5.95562795      14.06395847                           
I        6.95510609       8.07898770      14.07089707                           
I        3.51663790       9.78794887      14.07089707                           
I        8.18294609       5.95562973      17.15723785                           
I        7.94338705       9.78766031      17.15707434                           
I        4.50491579       8.07927449      17.15707434                           
Cr1      6.87766979       7.94177390       9.03123330                           
Cr1      3.43917878       9.92514949       9.03123376                           
I        7.86335378       5.95562795       7.48874545                           
I        4.66439189       8.07927354       7.48890841                           
I        1.22592370       9.78766304       7.48890841                           
I        5.88975810       5.95562973      10.58202506                           
I        5.65267613       9.78794313      10.57507890                           
I        2.21420487       8.07899168      10.57507890                           
Cr       5.73012301      13.89743494      15.61475195                           
Cr       2.29163200      15.88077072      15.61475241                           
I        6.71804295      11.91126908      14.06395847                           
I        3.51661508      14.03462883      14.07089707                           
I        0.07814689      15.74359001      14.07089707                           
I        4.74445508      11.91127086      17.15723785                           
I        4.50489604      15.74330145      17.15707434                           
I        1.06642478      14.03491562      17.15707434                           
Cr1      3.43917878      13.89741504       9.03123330                           
Cr1      0.00068777      15.88079062       9.03123376                           
I        4.42486276      11.91126908       7.48874545                           
I        1.22590088      14.03491467       7.48890841                           
I       -2.21256731      15.74330417       7.48890841                           
I        2.45126709      11.91127086      10.58202506                           
I        2.21418512      15.74358426      10.57507890                           
I       -1.22428614      14.03463281      10.57507890                           
Cr       2.29163200      19.85307607      15.61475195                           
Cr      -1.14685901      21.83641185      15.61475241                           
I        3.27955194      17.86691022      14.06395847                           
I        0.07812407      19.99026996      14.07089707                           
I       -3.36034412      21.69923114      14.07089707                           
I        1.30596407      17.86691200      17.15723785                           
I        1.06640503      21.69894258      17.15707434                           
I       -2.37206623      19.99055675      17.15707434                           
Cr1      0.00068777      19.85305617       9.03123330                           
Cr1     -3.43780324      21.83643175       9.03123376                           
I        0.98637175      17.86691022       7.48874545                           
I       -2.21259013      19.99055580       7.48890841                           
I       -5.65105832      21.69894530       7.48890841                           
I       -0.98722392      17.86691200      10.58202506                           
I       -1.22430589      21.69922539      10.57507890                           
I       -4.66277715      19.99027394      10.57507890                           
Cr      -1.14685901      25.80871720      15.61475195                           
Cr      -4.58535002      27.79205298      15.61475241                           
I       -0.15893907      23.82255135      14.06395847                           
I       -3.36036694      25.94591110      14.07089707                           
I       -6.79883513      27.65487227      14.07089707                           
I       -2.13252694      23.82255313      17.15723785                           
I       -2.37208598      27.65458371      17.15707434                           
I       -5.81055724      25.94619789      17.15707434                           
Cr1     -3.43780324      25.80869730       9.03123330                           
Cr1     -6.87629425      27.79207289       9.03123376                           
I       -2.45211926      23.82255135       7.48874545                           
I       -5.65108114      25.94619693       7.48890841                           
I       -9.08954933      27.65458643       7.48890841                           
I       -4.42571493      23.82255313      10.58202506                           
I       -4.66279691      27.65486652      10.57507890                           
I       -8.10126817      25.94591507      10.57507890                           
Cr      -4.58535002      31.76435833      15.61475195                           
Cr      -8.02384103      33.74769412      15.61475241                           
I       -3.59743008      29.77819248      14.06395847                           
I       -6.79885795      31.90155223      14.07089707                           
I      -10.23732614      33.61051340      14.07089707                           
I       -5.57101795      29.77819426      17.15723785                           
I       -5.81057699      33.61022484      17.15707434                           
I       -9.24904825      31.90183902      17.15707434                           
Cr1     -6.87629425      31.76433843       9.03123330                           
Cr1    -10.31478526      33.74771402       9.03123376                           
I       -5.89061027      29.77819248       7.48874545                           
I       -9.08957216      31.90183807       7.48890841                           
I      -12.52804035      33.61022756       7.48890841                           
I       -7.86420594      29.77819426      10.58202506                           
I       -8.10128792      33.61050765      10.57507890                           
I      -11.53975918      31.90155621      10.57507890                           
Cr      19.48408705       1.98615267      15.61475195                           
Cr      16.04559604       3.96948846      15.61475241                           
I       20.47200700      -0.00001318      14.06395847                           
I       17.27057912       2.12334657      14.07089707                           
I       13.83211093       3.83230774      14.07089707                           
I       18.49841912      -0.00001140      17.15723785                           
I       18.25886009       3.83201918      17.15707434                           
I       14.82038883       2.12363336      17.15707434                           
Cr1     17.19314283       1.98613277       9.03123330                           
Cr1     13.75465182       3.96950836       9.03123376                           
I       18.17882681      -0.00001318       7.48874545                           
I       14.97986492       2.12363241       7.48890841                           
I       11.54139673       3.83202190       7.48890841                           
I       16.20523114      -0.00001140      10.58202506                           
I       15.96814916       3.83230199      10.57507890                           
I       12.52967790       2.12335055      10.57507890                           
Cr      16.04559604       7.94179381      15.61475195                           
Cr      12.60710503       9.92512959      15.61475241                           
I       17.03351599       5.95562795      14.06395847                           
I       13.83208811       8.07898770      14.07089707                           
I       10.39361992       9.78794887      14.07089707                           
I       15.05992811       5.95562973      17.15723785                           
I       14.82036907       9.78766031      17.15707434                           
I       11.38189781       8.07927449      17.15707434                           
Cr1     13.75465181       7.94177390       9.03123330                           
Cr1     10.31616080       9.92514949       9.03123376                           
I       14.74033580       5.95562795       7.48874545                           
I       11.54137391       8.07927354       7.48890841                           
I        8.10290572       9.78766304       7.48890841                           
I       12.76674013       5.95562973      10.58202506                           
I       12.52965815       9.78794313      10.57507890                           
I        9.09118689       8.07899168      10.57507890                           
Cr      12.60710503      13.89743494      15.61475195                           
Cr       9.16861402      15.88077072      15.61475241                           
I       13.59502497      11.91126908      14.06395847                           
I       10.39359710      14.03462883      14.07089707                           
I        6.95512891      15.74359001      14.07089707                           
I       11.62143710      11.91127086      17.15723785                           
I       11.38187806      15.74330145      17.15707434                           
I        7.94340680      14.03491562      17.15707434                           
Cr1     10.31616080      13.89741504       9.03123330                           
Cr1      6.87766979      15.88079062       9.03123376                           
I       11.30184479      11.91126908       7.48874545                           
I        8.10288290      14.03491467       7.48890841                           
I        4.66441471      15.74330417       7.48890841                           
I        9.32824912      11.91127086      10.58202506                           
I        9.09116714      15.74358426      10.57507890                           
I        5.65269588      14.03463281      10.57507890                           
Cr       9.16861402      19.85307607      15.61475195                           
Cr       5.73012301      21.83641185      15.61475241                           
I       10.15653396      17.86691022      14.06395847                           
I        6.95510609      19.99026996      14.07089707                           
I        3.51663790      21.69923114      14.07089707                           
I        8.18294609      17.86691200      17.15723785                           
I        7.94338705      21.69894258      17.15707434                           
I        4.50491579      19.99055675      17.15707434                           
Cr1      6.87766979      19.85305617       9.03123330                           
Cr1      3.43917878      21.83643175       9.03123376                           
I        7.86335378      17.86691022       7.48874545                           
I        4.66439189      19.99055580       7.48890841                           
I        1.22592370      21.69894530       7.48890841                           
I        5.88975810      17.86691200      10.58202506                           
I        5.65267613      21.69922539      10.57507890                           
I        2.21420487      19.99027394      10.57507890                           
Cr       5.73012301      25.80871720      15.61475195                           
Cr       2.29163200      27.79205298      15.61475241                           
I        6.71804295      23.82255135      14.06395847                           
I        3.51661508      25.94591110      14.07089707                           
I        0.07814689      27.65487227      14.07089707                           
I        4.74445508      23.82255313      17.15723785                           
I        4.50489604      27.65458371      17.15707434                           
I        1.06642478      25.94619789      17.15707434                           
Cr1      3.43917878      25.80869730       9.03123330                           
Cr1      0.00068777      27.79207289       9.03123376                           
I        4.42486276      23.82255135       7.48874545                           
I        1.22590088      25.94619693       7.48890841                           
I       -2.21256731      27.65458643       7.48890841                           
I        2.45126709      23.82255313      10.58202506                           
I        2.21418512      27.65486652      10.57507890                           
I       -1.22428614      25.94591507      10.57507890                           
Cr       2.29163200      31.76435833      15.61475195                           
Cr      -1.14685901      33.74769412      15.61475241                           
I        3.27955194      29.77819248      14.06395847                           
I        0.07812407      31.90155223      14.07089707                           
I       -3.36034412      33.61051340      14.07089707                           
I        1.30596407      29.77819426      17.15723785                           
I        1.06640503      33.61022484      17.15707434                           
I       -2.37206623      31.90183902      17.15707434                           
Cr1      0.00068777      31.76433843       9.03123330                           
Cr1     -3.43780324      33.74771402       9.03123376                           
I        0.98637175      29.77819248       7.48874545                           
I       -2.21259013      31.90183807       7.48890841                           
I       -5.65105832      33.61022756       7.48890841                           
I       -0.98722392      29.77819426      10.58202506                           
I       -1.22430589      33.61050765      10.57507890                           
I       -4.66277715      31.90155621      10.57507890                           
Cr      26.36106908       1.98615267      15.61475195                           
Cr      22.92257807       3.96948846      15.61475241                           
I       27.34898902      -0.00001318      14.06395847                           
I       24.14756114       2.12334657      14.07089707                           
I       20.70909295       3.83230774      14.07089707                           
I       25.37540115      -0.00001140      17.15723785                           
I       25.13584211       3.83201918      17.15707434                           
I       21.69737085       2.12363336      17.15707434                           
Cr1     24.07012485       1.98613277       9.03123330                           
Cr1     20.63163384       3.96950836       9.03123376                           
I       25.05580883      -0.00001318       7.48874545                           
I       21.85684694       2.12363241       7.48890841                           
I       18.41837875       3.83202190       7.48890841                           
I       23.08221316      -0.00001140      10.58202506                           
I       22.84513118       3.83230199      10.57507890                           
I       19.40665992       2.12335055      10.57507890                           
Cr      22.92257806       7.94179381      15.61475195                           
Cr      19.48408705       9.92512959      15.61475241                           
I       23.91049801       5.95562795      14.06395847                           
I       20.70907013       8.07898770      14.07089707                           
I       17.27060194       9.78794887      14.07089707                           
I       21.93691014       5.95562973      17.15723785                           
I       21.69735110       9.78766031      17.15707434                           
I       18.25887984       8.07927449      17.15707434                           
Cr1     20.63163384       7.94177390       9.03123330                           
Cr1     17.19314283       9.92514949       9.03123376                           
I       21.61731782       5.95562795       7.48874545                           
I       18.41835593       8.07927354       7.48890841                           
I       14.97988774       9.78766304       7.48890841                           
I       19.64372215       5.95562973      10.58202506                           
I       19.40664017       9.78794313      10.57507890                           
I       15.96816891       8.07899168      10.57507890                           
Cr      19.48408705      13.89743494      15.61475195                           
Cr      16.04559604      15.88077072      15.61475241                           
I       20.47200700      11.91126908      14.06395847                           
I       17.27057912      14.03462883      14.07089707                           
I       13.83211093      15.74359001      14.07089707                           
I       18.49841912      11.91127086      17.15723785                           
I       18.25886009      15.74330145      17.15707434                           
I       14.82038883      14.03491562      17.15707434                           
Cr1     17.19314283      13.89741504       9.03123330                           
Cr1     13.75465182      15.88079062       9.03123376                           
I       18.17882681      11.91126908       7.48874545                           
I       14.97986492      14.03491467       7.48890841                           
I       11.54139673      15.74330417       7.48890841                           
I       16.20523114      11.91127086      10.58202506                           
I       15.96814916      15.74358426      10.57507890                           
I       12.52967790      14.03463281      10.57507890                           
Cr      16.04559604      19.85307607      15.61475195                           
Cr      12.60710503      21.83641185      15.61475241                           
I       17.03351599      17.86691022      14.06395847                           
I       13.83208811      19.99026996      14.07089707                           
I       10.39361992      21.69923114      14.07089707                           
I       15.05992811      17.86691200      17.15723785                           
I       14.82036907      21.69894258      17.15707434                           
I       11.38189781      19.99055675      17.15707434                           
Cr1     13.75465181      19.85305617       9.03123330                           
Cr1     10.31616080      21.83643175       9.03123376                           
I       14.74033580      17.86691022       7.48874545                           
I       11.54137391      19.99055580       7.48890841                           
I        8.10290572      21.69894530       7.48890841                           
I       12.76674013      17.86691200      10.58202506                           
I       12.52965815      21.69922539      10.57507890                           
I        9.09118689      19.99027394      10.57507890                           
Cr      12.60710503      25.80871720      15.61475195                           
Cr       9.16861402      27.79205298      15.61475241                           
I       13.59502497      23.82255135      14.06395847                           
I       10.39359710      25.94591110      14.07089707                           
I        6.95512891      27.65487227      14.07089707                           
I       11.62143710      23.82255313      17.15723785                           
I       11.38187806      27.65458371      17.15707434                           
I        7.94340680      25.94619789      17.15707434                           
Cr1     10.31616080      25.80869730       9.03123330                           
Cr1      6.87766979      27.79207289       9.03123376                           
I       11.30184479      23.82255135       7.48874545                           
I        8.10288290      25.94619693       7.48890841                           
I        4.66441471      27.65458643       7.48890841                           
I        9.32824912      23.82255313      10.58202506                           
I        9.09116714      27.65486652      10.57507890                           
I        5.65269588      25.94591507      10.57507890                           
Cr       9.16861402      31.76435833      15.61475195                           
Cr       5.73012301      33.74769412      15.61475241                           
I       10.15653396      29.77819248      14.06395847                           
I        6.95510609      31.90155223      14.07089707                           
I        3.51663790      33.61051340      14.07089707                           
I        8.18294609      29.77819426      17.15723785                           
I        7.94338705      33.61022484      17.15707434                           
I        4.50491579      31.90183902      17.15707434                           
Cr1      6.87766979      31.76433843       9.03123330                           
Cr1      3.43917878      33.74771402       9.03123376                           
I        7.86335378      29.77819248       7.48874545                           
I        4.66439189      31.90183807       7.48890841                           
I        1.22592370      33.61022756       7.48890841                           
I        5.88975810      29.77819426      10.58202506                           
I        5.65267613      33.61050765      10.57507890                           
I        2.21420487      31.90155621      10.57507890                           
Cr      33.23805110       1.98615267      15.61475195                           
Cr      29.79956009       3.96948846      15.61475241                           
I       34.22597104      -0.00001318      14.06395847                           
I       31.02454317       2.12334657      14.07089707                           
I       27.58607498       3.83230774      14.07089707                           
I       32.25238317      -0.00001140      17.15723785                           
I       32.01282413       3.83201918      17.15707434                           
I       28.57435287       2.12363336      17.15707434                           
Cr1     30.94710687       1.98613277       9.03123330                           
Cr1     27.50861586       3.96950836       9.03123376                           
I       31.93279085      -0.00001318       7.48874545                           
I       28.73382897       2.12363241       7.48890841                           
I       25.29536078       3.83202190       7.48890841                           
I       29.95919518      -0.00001140      10.58202506                           
I       29.72211320       3.83230199      10.57507890                           
I       26.28364194       2.12335055      10.57507890                           
Cr      29.79956009       7.94179381      15.61475195                           
Cr      26.36106908       9.92512959      15.61475241                           
I       30.78748003       5.95562795      14.06395847                           
I       27.58605216       8.07898770      14.07089707                           
I       24.14758397       9.78794887      14.07089707                           
I       28.81389216       5.95562973      17.15723785                           
I       28.57433312       9.78766031      17.15707434                           
I       25.13586186       8.07927449      17.15707434                           
Cr1     27.50861586       7.94177390       9.03123330                           
Cr1     24.07012485       9.92514949       9.03123376                           
I       28.49429984       5.95562795       7.48874545                           
I       25.29533795       8.07927354       7.48890841                           
I       21.85686976       9.78766304       7.48890841                           
I       26.52070417       5.95562973      10.58202506                           
I       26.28362219       9.78794313      10.57507890                           
I       22.84515093       8.07899168      10.57507890                           
Cr      26.36106908      13.89743494      15.61475195                           
Cr      22.92257807      15.88077072      15.61475241                           
I       27.34898902      11.91126908      14.06395847                           
I       24.14756114      14.03462883      14.07089707                           
I       20.70909295      15.74359001      14.07089707                           
I       25.37540115      11.91127086      17.15723785                           
I       25.13584211      15.74330145      17.15707434                           
I       21.69737085      14.03491562      17.15707434                           
Cr1     24.07012485      13.89741504       9.03123330                           
Cr1     20.63163384      15.88079062       9.03123376                           
I       25.05580883      11.91126908       7.48874545                           
I       21.85684694      14.03491467       7.48890841                           
I       18.41837875      15.74330417       7.48890841                           
I       23.08221316      11.91127086      10.58202506                           
I       22.84513118      15.74358426      10.57507890                           
I       19.40665992      14.03463281      10.57507890                           
Cr      22.92257806      19.85307607      15.61475195                           
Cr      19.48408705      21.83641185      15.61475241                           
I       23.91049801      17.86691022      14.06395847                           
I       20.70907013      19.99026996      14.07089707                           
I       17.27060194      21.69923114      14.07089707                           
I       21.93691014      17.86691200      17.15723785                           
I       21.69735110      21.69894258      17.15707434                           
I       18.25887984      19.99055675      17.15707434                           
Cr1     20.63163384      19.85305617       9.03123330                           
Cr1     17.19314283      21.83643175       9.03123376                           
I       21.61731782      17.86691022       7.48874545                           
I       18.41835593      19.99055580       7.48890841                           
I       14.97988774      21.69894530       7.48890841                           
I       19.64372215      17.86691200      10.58202506                           
I       19.40664017      21.69922539      10.57507890                           
I       15.96816891      19.99027394      10.57507890                           
Cr      19.48408705      25.80871720      15.61475195                           
Cr      16.04559604      27.79205298      15.61475241                           
I       20.47200700      23.82255135      14.06395847                           
I       17.27057912      25.94591110      14.07089707                           
I       13.83211093      27.65487227      14.07089707                           
I       18.49841912      23.82255313      17.15723785                           
I       18.25886009      27.65458371      17.15707434                           
I       14.82038883      25.94619789      17.15707434                           
Cr1     17.19314283      25.80869730       9.03123330                           
Cr1     13.75465182      27.79207289       9.03123376                           
I       18.17882681      23.82255135       7.48874545                           
I       14.97986492      25.94619693       7.48890841                           
I       11.54139673      27.65458643       7.48890841                           
I       16.20523114      23.82255313      10.58202506                           
I       15.96814916      27.65486652      10.57507890                           
I       12.52967790      25.94591507      10.57507890                           
Cr      16.04559604      31.76435833      15.61475195                           
Cr      12.60710503      33.74769412      15.61475241                           
I       17.03351599      29.77819248      14.06395847                           
I       13.83208811      31.90155223      14.07089707                           
I       10.39361992      33.61051340      14.07089707                           
I       15.05992811      29.77819426      17.15723785                           
I       14.82036907      33.61022484      17.15707434                           
I       11.38189781      31.90183902      17.15707434                           
Cr1     13.75465181      31.76433843       9.03123330                           
Cr1     10.31616080      33.74771402       9.03123376                           
I       14.74033580      29.77819248       7.48874545                           
I       11.54137391      31.90183807       7.48890841                           
I        8.10290572      33.61022756       7.48890841                           
I       12.76674013      29.77819426      10.58202506                           
I       12.52965815      33.61050765      10.57507890                           
I        9.09118689      31.90155621      10.57507890                           
Cr      40.11503312       1.98615267      15.61475195                           
Cr      36.67654211       3.96948846      15.61475241                           
I       41.10295306      -0.00001318      14.06395847                           
I       37.90152519       2.12334657      14.07089707                           
I       34.46305700       3.83230774      14.07089707                           
I       39.12936519      -0.00001140      17.15723785                           
I       38.88980615       3.83201918      17.15707434                           
I       35.45133489       2.12363336      17.15707434                           
Cr1     37.82408889       1.98613277       9.03123330                           
Cr1     34.38559788       3.96950836       9.03123376                           
I       38.80977287      -0.00001318       7.48874545                           
I       35.61081099       2.12363241       7.48890841                           
I       32.17234280       3.83202190       7.48890841                           
I       36.83617720      -0.00001140      10.58202506                           
I       36.59909523       3.83230199      10.57507890                           
I       33.16062397       2.12335055      10.57507890                           
Cr      36.67654211       7.94179381      15.61475195                           
Cr      33.23805110       9.92512959      15.61475241                           
I       37.66446205       5.95562795      14.06395847                           
I       34.46303418       8.07898770      14.07089707                           
I       31.02456599       9.78794887      14.07089707                           
I       35.69087418       5.95562973      17.15723785                           
I       35.45131514       9.78766031      17.15707434                           
I       32.01284388       8.07927449      17.15707434                           
Cr1     34.38559788       7.94177390       9.03123330                           
Cr1     30.94710687       9.92514949       9.03123376                           
I       35.37128186       5.95562795       7.48874545                           
I       32.17231998       8.07927354       7.48890841                           
I       28.73385179       9.78766304       7.48890841                           
I       33.39768619       5.95562973      10.58202506                           
I       33.16060422       9.78794313      10.57507890                           
I       29.72213296       8.07899168      10.57507890                           
Cr      33.23805110      13.89743494      15.61475195                           
Cr      29.79956009      15.88077072      15.61475241                           
I       34.22597104      11.91126908      14.06395847                           
I       31.02454317      14.03462883      14.07089707                           
I       27.58607498      15.74359001      14.07089707                           
I       32.25238317      11.91127086      17.15723785                           
I       32.01282413      15.74330145      17.15707434                           
I       28.57435287      14.03491562      17.15707434                           
Cr1     30.94710687      13.89741504       9.03123330                           
Cr1     27.50861586      15.88079062       9.03123376                           
I       31.93279085      11.91126908       7.48874545                           
I       28.73382897      14.03491467       7.48890841                           
I       25.29536078      15.74330417       7.48890841                           
I       29.95919518      11.91127086      10.58202506                           
I       29.72211320      15.74358426      10.57507890                           
I       26.28364194      14.03463281      10.57507890                           
Cr      29.79956009      19.85307607      15.61475195                           
Cr      26.36106908      21.83641185      15.61475241                           
I       30.78748003      17.86691022      14.06395847                           
I       27.58605216      19.99026996      14.07089707                           
I       24.14758397      21.69923114      14.07089707                           
I       28.81389216      17.86691200      17.15723785                           
I       28.57433312      21.69894258      17.15707434                           
I       25.13586186      19.99055675      17.15707434                           
Cr1     27.50861586      19.85305617       9.03123330                           
Cr1     24.07012485      21.83643175       9.03123376                           
I       28.49429984      17.86691022       7.48874545                           
I       25.29533795      19.99055580       7.48890841                           
I       21.85686976      21.69894530       7.48890841                           
I       26.52070417      17.86691200      10.58202506                           
I       26.28362219      21.69922539      10.57507890                           
I       22.84515093      19.99027394      10.57507890                           
Cr      26.36106908      25.80871720      15.61475195                           
Cr      22.92257807      27.79205298      15.61475241                           
I       27.34898902      23.82255135      14.06395847                           
I       24.14756114      25.94591110      14.07089707                           
I       20.70909295      27.65487227      14.07089707                           
I       25.37540115      23.82255313      17.15723785                           
I       25.13584211      27.65458371      17.15707434                           
I       21.69737085      25.94619789      17.15707434                           
Cr1     24.07012485      25.80869730       9.03123330                           
Cr1     20.63163384      27.79207289       9.03123376                           
I       25.05580883      23.82255135       7.48874545                           
I       21.85684694      25.94619693       7.48890841                           
I       18.41837875      27.65458643       7.48890841                           
I       23.08221316      23.82255313      10.58202506                           
I       22.84513118      27.65486652      10.57507890                           
I       19.40665992      25.94591507      10.57507890                           
Cr      22.92257806      31.76435833      15.61475195                           
Cr      19.48408705      33.74769412      15.61475241                           
I       23.91049801      29.77819248      14.06395847                           
I       20.70907013      31.90155223      14.07089707                           
I       17.27060194      33.61051340      14.07089707                           
I       21.93691014      29.77819426      17.15723785                           
I       21.69735110      33.61022484      17.15707434                           
I       18.25887984      31.90183902      17.15707434                           
Cr1     20.63163384      31.76433843       9.03123330                           
Cr1     17.19314283      33.74771402       9.03123376                           
I       21.61731782      29.77819248       7.48874545                           
I       18.41835593      31.90183807       7.48890841                           
I       14.97988774      33.61022756       7.48890841                           
I       19.64372215      29.77819426      10.58202506                           
I       19.40664017      33.61050765      10.57507890                           
I       15.96816891      31.90155621      10.57507890                           
%ENDBLOCK POSITIONS_ABS                                                         
%BLOCK SPECIES                                                                  
Cr Cr 24 -1 15                                                                  
I   I  53 -1 15                                                                 
Cr1 Cr 24 -1 15                                                                 
%ENDBLOCK SPECIES                                                               
%BLOCK SPECIES_ATOMIC_SET                                                       
Cr "SOLVE INIT SPIN=3"                                                          
I   "SOLVE"                                                                     
Cr1 "SOLVE INIT SPIN=-3"                                                        
%ENDBLOCK SPECIES_ATOMIC_SET                                                    
%BLOCK HUBBARD                                                                  
Cr  2 2.97 0.0 -10.0 0.00 0.0                                                   
Cr1 2 2.97 0.0 -10.0 0.00 0.0                                                   
%ENDBLOCK HUBBARD                                                               
%BLOCK SPECIES_LDOS_GROUPS                                                      
Cr                                                                              
I                                                                               
Cr1                                                                             
%ENDBLOCK SPECIES_LDOS_GROUPS                                                   
%BLOCK SPECIES_POT                                                              
Cr  "../../../../Cr.PBE-paw.abinit"                                             
I   "../../../../I.PBE-paw.abinit"                                              
Cr1 "../../../../Cr.PBE-paw.abinit"                                             
%ENDBLOCK SPECIES_POT                                                           

--------------------------------------------------------------------------------
-------------------------------- END INPUT FILE --------------------------------
--------------------------------------------------------------------------------


 
 ESDF WARNING(1): "charge" (esdf_physical) has no units. Assume "e".
<<<<<<<<<<<<<<<<<<<<<<<<<<<<<<<<< Full system >>>>>>>>>>>>>>>>>>>>>>>>>>>>>>>>>>
<<<<<<<<<<<<<<<<<<<<<<<<<<< PAW Dataset information >>>>>>>>>>>>>>>>>>>>>>>>>>>
File: ../../../../Cr.PBE-paw.abinit; rc = 2.11 bohr; shape type =  2; rshape = 1.80 bohr;
  Atomic number: 24;  ionic charge: 14.000000
    Partial Wave 1: l = 0
    Partial Wave 2: l = 0
    Partial Wave 3: l = 1
    Partial Wave 4: l = 1
    Partial Wave 5: l = 2
    Partial Wave 6: l = 2
  Core charge supplied for Nonlinear Core Corrections
File: ../../../../I.PBE-paw.abinit; rc = 2.30 bohr; shape type =  2; rshape = 2.11 bohr;
  Atomic number: 53;  ionic charge:  7.000000
    Partial Wave 1: l = 0
    Partial Wave 2: l = 0
    Partial Wave 3: l = 1
    Partial Wave 4: l = 1
  Core charge supplied for Nonlinear Core Corrections
<<<<<<<<<<<<<<<<<<<<<<<<<<<<<<<<<<<<<<< >>>>>>>>>>>>>>>>>>>>>>>>>>>>>>>>>>>>>>>

-------------------------- Atom counting information ---------------------------
Symbol    Natoms    Nngwfs    Nprojs
  Cr       144      1872      2592
  I        432      1728      3456
.......   ......    ......    ......
Totals:    576      3600      6048
--------------------------------------------------------------------------------

=============================== PSINC grid sizes ===============================
                      Simulation cell:  175 x 175 x 117
                              FFT-box:  175 x 175 x 117
                                  PPD:    5 x   5 x   1
Grid space d1=  0.445563862424a0 (KE cutoff=  38.26345Eh =1041.20135eV)
Grid space d2=  0.445563862400a0 (KE cutoff=  38.26345Eh =1041.20135eV)
Grid space d3=  0.444294449711a0 (KE cutoff=  38.48241Eh =1047.15957eV)
================================================================================

********************* Fourier parallelisation information **********************
       Coarse grid (whole simulation cell) dimensions:    175   175   117
          Real-space ('12') slabs/proc (min max mean):      0     1     0
         Recip-space ('23') slabs/proc (min max mean):      0     1     0
********************************************************************************

********************* Fourier parallelisation information **********************
       Double grid (whole simulation cell) dimensions:    350   350   234
          Real-space ('12') slabs/proc (min max mean):      1     2     1
         Recip-space ('23') slabs/proc (min max mean):      0     1     0
********************************************************************************

********************* Fourier parallelisation information **********************
         Fine grid (whole simulation cell) dimensions:    700   700   468
          Real-space ('12') slabs/proc (min max mean):      2     3     2
         Recip-space ('23') slabs/proc (min max mean):      1     2     1
********************************************************************************
energy_and_force_init_cell: WARNING in internal_setup_spin:
        even number of electrons in cell and zero spin
        but continuing with spin-polarised calculation

Atom SCF Calculation for Cr : Z (AE atom) =  24 : Z (PS atom) =  14
Config String: 3s2.0 3p6.0 3d5.0 4s1.0 4p0.0 INIT SPIN=3
Orbitals (num,occ):  5     2.00 6.00 5.00 1.00 0.00
Orbitals   (num,l):  5        0    1    2    0    1
Atom SCF converged after  64 iterations to a total energy of    -87.07044631
Adjusting orbital occupancies:
Orbitals (num,spin,occ):  5  1     1.00 3.00 3.50 1.00 0.00
Orbitals   (num,spin,l):  5  1        0    1    2    0    1
Orbitals (num,spin,occ):  5  2     1.00 3.00 1.00 0.50 0.00
Orbitals   (num,spin,l):  5  2        0    1    2    0    1

Atom SCF Calculation for I  : Z (AE atom) =  53 : Z (PS atom) =   7
Config String: 5s2.0 5p5.0
Orbitals (num,occ):  2     2.00 5.00
Orbitals   (num,l):  2        0    1
Atom SCF converged after  28 iterations to a total energy of    -11.61352964

Atom SCF Calculation for Cr : Z (AE atom) =  24 : Z (PS atom) =  14
Config String: 3s2.0 3p6.0 3d5.0 4s1.0 4p0.0 INIT SPIN=-3
Orbitals (num,occ):  5     2.00 6.00 5.00 1.00 0.00
Orbitals   (num,l):  5        0    1    2    0    1
Atom SCF converged after  64 iterations to a total energy of    -87.07044631
Adjusting orbital occupancies:
Orbitals (num,spin,occ):  5  1     1.00 3.00 1.00 0.50 0.00
Orbitals   (num,spin,l):  5  1        0    1    2    0    1
Orbitals (num,spin,occ):  5  2     1.00 3.00 3.50 1.00 0.00
Orbitals   (num,spin,l):  5  2        0    1    2    0    1

Atom SCF Calculation for Cr : Z (AE atom) =  24 : Z (PS atom) =  14
Config String: 3s2.0 3p6.0 3d5.0 4s1.0 4p0.0 INIT SPIN=3
Orbitals (num,occ):  5     2.00 6.00 5.00 1.00 0.00
Orbitals   (num,l):  5        0    1    2    0    1
Atom SCF converged after  64 iterations to a total energy of    -87.07044631

Atom SCF Calculation for I  : Z (AE atom) =  53 : Z (PS atom) =   7
Config String: 5s2.0 5p5.0
Orbitals (num,occ):  2     2.00 5.00
Orbitals   (num,l):  2        0    1
Atom SCF converged after  28 iterations to a total energy of    -11.61352964

Atom SCF Calculation for Cr : Z (AE atom) =  24 : Z (PS atom) =  14
Config String: 3s2.0 3p6.0 3d5.0 4s1.0 4p0.0 INIT SPIN=-3
Orbitals (num,occ):  5     2.00 6.00 5.00 1.00 0.00
Orbitals   (num,l):  5        0    1    2    0    1
Atom SCF converged after  64 iterations to a total energy of    -87.07044631

WARNING: The number of FFT boxes in a batch is not a multiple of the number of
OpenMP threads. Consider changing fftbox_batch_size.

Determining parallel strategy ...... done
Calculating Ewald energy ...            31475.177180 Hartree
Basis initialisation ...
... done

============================= Charge Augmentation ==============================
                           Aug box size:   49 x  49 x  45
================================================================================
Sparse matrix initialisation ...
 done
NGWF initialisation ... done
 done

================================= Core Density =================================
               Core den box size:  125 x 125 x 105
================================================================================
Density kernel initialisation

--------------------------- Ensemble-DFT optimisation --------------------------
Running ScaLAPACK on  180 processor(s).
With smearing scheme: FERMIDIRAC                                                                      

--------------------------------------------------------------------------------
  Iter                              Commutator    Free_energy(A=E-TS)     DeltaA
#    0                          0.006174090132  -17457.29175650929760  -1.75E+04
#    1                          0.001669826200  -17597.85991230661600  -1.41E+02
#    2                          0.000293466375  -17613.09438631597000  -1.52E+01
#    3                          0.000155773423  -17613.61986514314050  -5.25E-01
#    4                          0.000182470551  -17613.95722156548440  -3.37E-01
#    5                          0.000082746078  -17614.16092049532740  -2.04E-01
#    6                          0.000096321565  -17614.27446743937620  -1.14E-01
#    7                          0.000048160409  -17614.33712972396100  -6.27E-02
#    8                          0.000058680806  -17614.37398888864850  -3.69E-02
#    9                          0.000030266545  -17614.39855057360180  -2.46E-02
#   10                          0.000036192324  -17614.41316642542730  -1.46E-02
#   11                          0.000020663446  -17614.42345563805070  -1.03E-02
#   12                          0.000023497790  -17614.42964818693140  -6.19E-03
#   13                          0.000015512603  -17614.43447467704750  -4.83E-03
#   14                          0.000015347197  -17614.43734973125900  -2.88E-03
#   15                          0.000012541001  -17614.43982334394240  -2.47E-03
Finished EDFT density kernel iterations (  15)


Writing density kernel to file "Cr2I6_bilayer_HT_AFM_AFM_nSP.dkn" ... done

Writing Hamiltonian to file "Cr2I6_bilayer_HT_AFM_AFM_nSP.ham" ... done

Writing density kernel to file "Cr2I6_bilayer_HT_AFM_AFM_nSP.dkn" ... done

>>> Optimising kernel for current NGWFs:
   iter  |      energy (Eh)       | rms gradient |  commutator  |   dE (Eh)
    1        -1.761443920436E+04     2.3945E-05     1.2094E-05
    2        -1.761444023436E+04     2.5873E-05     1.3068E-05    -1.0300E-03
    3        -1.761444109754E+04     5.2169E-05     2.6350E-05    -8.6317E-04
    4        -1.761444144761E+04     5.4373E-05     2.7462E-05    -3.5007E-04
    5        -1.761444366884E+04     5.5934E-05     2.8251E-05    -2.2212E-03
Finished density kernel iterations (   5)

Writing density kernel to file "Cr2I6_bilayer_HT_AFM_AFM_nSP.dkn" ... done


>>> Density kernel optimised for the current NGWF basis:
     ~~~~~~~~~~~~~~~~~~~~~~~~~~~~~~~~~~~~~~~~~~~~~~~~~~~~~~~~~~~
     Total energy                =  -1.76144436688424E+04  Eh
     Estimated bandgap (UP spin) =   4.1085E-02  Eh
     Estimated bandgap (DN spin) =   4.1025E-02  Eh
     RMS occupancy error         =   2.8403E-09
     [H,K] commutator            =   2.8251E-05
     UP spin occupancy bounds    = [ -0.000:  1.000]
     DN spin occupancy bounds    = [ -0.000:  1.000]
     ~~~~~~~~~~~~~~~~~~~~~~~~~~~~~~~~~~~~~~~~~~~~~~~~~~~~~~~~~~~




################################################################################
########################### NGWF CG iteration  001 #############################
################################################################################

>>> Checking for convergence of NGWFs:   NOT CONVERGED
  ========================================================================
         NGWF RMS gradient =  9.8599E-05 >  1.0000E-06  | above tolerance
  ========================================================================

>>> Improving NGWFs using line search:
  ========================================================================
   Predicted total energy    =      -1.76222758974378E+04 Eh
   Predicted gain in energy  =      -7.83222859538728E+00 Eh
  ========================================================================

Writing NGWFs to file "Cr2I6_bilayer_HT_AFM_AFM_nSP.tightbox_ngwfs".... done

>>> Optimising kernel for current NGWFs:
   iter  |      energy (Eh)       | rms gradient |  commutator  |   dE (Eh)
    1        -1.762225899499E+04     4.9376E-04     2.4939E-04
    2        -1.762258992106E+04     1.9465E-04     9.8315E-05    -3.3093E-01
    3        -1.762262415411E+04     9.0916E-05     4.5919E-05    -3.4233E-02
    4        -1.762263558466E+04     6.4260E-05     3.2456E-05    -1.1431E-02
    5        -1.762264157693E+04     2.8832E-05     1.4563E-05    -5.9923E-03
Finished density kernel iterations (   5)

Writing density kernel to file "Cr2I6_bilayer_HT_AFM_AFM_nSP.dkn" ... done


>>> Density kernel optimised for the current NGWF basis:
     ~~~~~~~~~~~~~~~~~~~~~~~~~~~~~~~~~~~~~~~~~~~~~~~~~~~~~~~~~~~
     Total energy                =  -1.76226415769295E+04  Eh
     Estimated bandgap (UP spin) =   4.7327E-02  Eh
     Estimated bandgap (DN spin) =   4.7384E-02  Eh
     RMS occupancy error         =   6.3815E-10
     [H,K] commutator            =   1.4563E-05
     UP spin occupancy bounds    = [ -0.000:  1.000]
     DN spin occupancy bounds    = [ -0.000:  1.000]
     ~~~~~~~~~~~~~~~~~~~~~~~~~~~~~~~~~~~~~~~~~~~~~~~~~~~~~~~~~~~




################################################################################
########################### NGWF CG iteration  002 #############################
################################################################################

>>> Checking for convergence of NGWFs:   NOT CONVERGED
  ========================================================================
         NGWF RMS gradient =  6.6554E-05 >  1.0000E-06  | above tolerance
  Maximum change in energy =  1.4232E-02 >  1.0000E-07  | above tolerance
  ========================================================================

>>> Improving NGWFs using line search:
  ========================================================================
   Predicted total energy    =      -1.76251021003633E+04 Eh
   Predicted gain in energy  =      -2.46052343383417E+00 Eh
  ========================================================================

Writing NGWFs to file "Cr2I6_bilayer_HT_AFM_AFM_nSP.tightbox_ngwfs".... done

>>> Optimising kernel for current NGWFs:
   iter  |      energy (Eh)       | rms gradient |  commutator  |   dE (Eh)
    1        -1.762509188812E+04     1.7508E-04     8.8427E-05
    2        -1.762513917544E+04     4.5737E-05     2.3101E-05    -4.7287E-02
    3        -1.762514313335E+04     5.2584E-05     2.6559E-05    -3.9579E-03
    4        -1.762514707490E+04     2.4639E-05     1.2445E-05    -3.9415E-03
    5        -1.762514829447E+04     2.1524E-05     1.0871E-05    -1.2196E-03
Finished density kernel iterations (   5)

Writing density kernel to file "Cr2I6_bilayer_HT_AFM_AFM_nSP.dkn" ... done


>>> Density kernel optimised for the current NGWF basis:
     ~~~~~~~~~~~~~~~~~~~~~~~~~~~~~~~~~~~~~~~~~~~~~~~~~~~~~~~~~~~
     Total energy                =  -1.76251482944679E+04  Eh
     Estimated bandgap (UP spin) =   4.6464E-02  Eh
     Estimated bandgap (DN spin) =   4.6482E-02  Eh
     RMS occupancy error         =   1.6090E-10
     [H,K] commutator            =   1.0871E-05
     UP spin occupancy bounds    = [  0.000:  1.000]
     DN spin occupancy bounds    = [  0.000:  1.000]
     ~~~~~~~~~~~~~~~~~~~~~~~~~~~~~~~~~~~~~~~~~~~~~~~~~~~~~~~~~~~




################################################################################
########################### NGWF CG iteration  003 #############################
################################################################################

>>> Checking for convergence of NGWFs:   NOT CONVERGED
  ========================================================================
         NGWF RMS gradient =  4.1230E-05 >  1.0000E-06  | above tolerance
  Maximum change in energy =  1.4232E-02 >  1.0000E-07  | above tolerance
  ========================================================================

>>> Improving NGWFs using line search:
  ========================================================================
   Predicted total energy    =      -1.76262073914390E+04 Eh
   Predicted gain in energy  =      -1.05909697109382E+00 Eh
  ========================================================================

Writing NGWFs to file "Cr2I6_bilayer_HT_AFM_AFM_nSP.tightbox_ngwfs".... done

>>> Optimising kernel for current NGWFs:
   iter  |      energy (Eh)       | rms gradient |  commutator  |   dE (Eh)
    1        -1.762619700568E+04     1.7720E-04     8.9498E-05
    2        -1.762623090545E+04     8.6626E-05     4.3753E-05    -3.3900E-02
    3        -1.762623718711E+04     3.1259E-05     1.5788E-05    -6.2817E-03
    4        -1.762623866601E+04     2.2844E-05     1.1538E-05    -1.4789E-03
    5        -1.762623975210E+04     9.7546E-06     4.9268E-06    -1.0861E-03
Finished density kernel iterations (   5)

Writing density kernel to file "Cr2I6_bilayer_HT_AFM_AFM_nSP.dkn" ... done


>>> Density kernel optimised for the current NGWF basis:
     ~~~~~~~~~~~~~~~~~~~~~~~~~~~~~~~~~~~~~~~~~~~~~~~~~~~~~~~~~~~
     Total energy                =  -1.76262397521039E+04  Eh
     Estimated bandgap (UP spin) =   4.5953E-02  Eh
     Estimated bandgap (DN spin) =   4.6123E-02  Eh
     RMS occupancy error         =   4.6203E-11
     [H,K] commutator            =   4.9268E-06
     UP spin occupancy bounds    = [  0.000:  1.000]
     DN spin occupancy bounds    = [  0.000:  1.000]
     ~~~~~~~~~~~~~~~~~~~~~~~~~~~~~~~~~~~~~~~~~~~~~~~~~~~~~~~~~~~




################################################################################
########################### NGWF CG iteration  004 #############################
################################################################################

>>> Checking for convergence of NGWFs:   NOT CONVERGED
  ========================================================================
         NGWF RMS gradient =  2.9775E-05 >  1.0000E-06  | above tolerance
  Maximum change in energy =  4.3519E-03 >  1.0000E-07  | above tolerance
  ========================================================================

>>> Improving NGWFs using line search:
  ========================================================================
   Predicted total energy    =      -1.76268188672484E+04 Eh
   Predicted gain in energy  =      -5.79115144537354E-01 Eh
  ========================================================================

Writing NGWFs to file "Cr2I6_bilayer_HT_AFM_AFM_nSP.tightbox_ngwfs".... done

>>> Optimising kernel for current NGWFs:
   iter  |      energy (Eh)       | rms gradient |  commutator  |   dE (Eh)
    1        -1.762680807919E+04     5.8491E-05     2.9543E-05
    2        -1.762681407970E+04     3.1490E-05     1.5905E-05    -6.0005E-03
    3        -1.762681545304E+04     2.5726E-05     1.2994E-05    -1.3733E-03
    4        -1.762681657390E+04     1.7187E-05     8.6806E-06    -1.1209E-03
    5        -1.762681691648E+04     1.1781E-05     5.9504E-06    -3.4257E-04
Finished density kernel iterations (   5)

Writing density kernel to file "Cr2I6_bilayer_HT_AFM_AFM_nSP.dkn" ... done


>>> Density kernel optimised for the current NGWF basis:
     ~~~~~~~~~~~~~~~~~~~~~~~~~~~~~~~~~~~~~~~~~~~~~~~~~~~~~~~~~~~
     Total energy                =  -1.76268169164757E+04  Eh
     Estimated bandgap (UP spin) =   4.4460E-02  Eh
     Estimated bandgap (DN spin) =   4.4571E-02  Eh
     RMS occupancy error         =   2.4709E-11
     [H,K] commutator            =   5.9504E-06
     UP spin occupancy bounds    = [  0.000:  1.000]
     DN spin occupancy bounds    = [  0.000:  1.000]
     ~~~~~~~~~~~~~~~~~~~~~~~~~~~~~~~~~~~~~~~~~~~~~~~~~~~~~~~~~~~




################################################################################
########################### NGWF CG iteration  005 #############################
################################################################################

>>> Checking for convergence of NGWFs:   NOT CONVERGED
  ========================================================================
         NGWF RMS gradient =  2.0781E-05 >  1.0000E-06  | above tolerance
  Maximum change in energy =  1.8949E-03 >  1.0000E-07  | above tolerance
  ========================================================================

>>> Improving NGWFs using line search:
  ========================================================================
   Predicted total energy    =      -1.76269834865097E+04 Eh
   Predicted gain in energy  =      -1.66570033998141E-01 Eh
  ========================================================================

Writing NGWFs to file "Cr2I6_bilayer_HT_AFM_AFM_nSP.tightbox_ngwfs".... done

>>> Optimising kernel for current NGWFs:
   iter  |      energy (Eh)       | rms gradient |  commutator  |   dE (Eh)
    1        -1.762698280890E+04     8.8129E-06     4.4512E-06
    2        -1.762698287129E+04     2.7323E-05     1.3800E-05    -6.2389E-05
    3        -1.762698335353E+04     7.7574E-06     3.9181E-06    -4.8224E-04
    4        -1.762698345055E+04     1.2130E-05     6.1267E-06    -9.7011E-05
    5        -1.762698339630E+04     2.0981E-05     1.0597E-05     5.4245E-05
Finished density kernel iterations (   5)

Writing density kernel to file "Cr2I6_bilayer_HT_AFM_AFM_nSP.dkn" ... done


>>> Density kernel optimised for the current NGWF basis:
     ~~~~~~~~~~~~~~~~~~~~~~~~~~~~~~~~~~~~~~~~~~~~~~~~~~~~~~~~~~~
     Total energy                =  -1.76269833962999E+04  Eh
[...]
*    I     438     -0.00502467   0.00000230   0.00888055 *
*    I     439      0.00247723   0.00441207   0.00889701 *
*    I     440      0.00248362  -0.00442835   0.00889488 *
*    Cr    441      0.00001610  -0.00021486  -0.00003296 *
*    Cr    442     -0.00000116   0.00019008  -0.00003176 *
*    I     443      0.00502078   0.00000194  -0.00888049 *
*    I     444     -0.00247895  -0.00441088  -0.00889837 *
*    I     445     -0.00248829   0.00442342  -0.00889141 *
*    I     446     -0.00490490  -0.00000800   0.00707068 *
*    I     447      0.00267272   0.00445006   0.00627179 *
*    I     448      0.00267611  -0.00447324   0.00626673 *
*    Cr    449      0.00006830  -0.00015973   0.00004049 *
*    Cr    450     -0.00002526   0.00019573   0.00003475 *
*    I     451      0.00490153   0.00000339  -0.00707181 *
*    I     452     -0.00267748  -0.00444667  -0.00627457 *
*    I     453     -0.00268374   0.00446858  -0.00626548 *
*    I     454     -0.00502549  -0.00000470   0.00888187 *
*    I     455      0.00247500   0.00441586   0.00890110 *
*    I     456      0.00248190  -0.00442734   0.00889193 *
*    Cr    457      0.00001239  -0.00019632  -0.00003530 *
*    Cr    458      0.00000685   0.00019419  -0.00003886 *
*    I     459      0.00502021   0.00000678  -0.00887984 *
*    I     460     -0.00247791  -0.00441080  -0.00889665 *
*    I     461     -0.00248658   0.00442677  -0.00889251 *
*    I     462     -0.00490402  -0.00000551   0.00706924 *
*    I     463      0.00267285   0.00444715   0.00627046 *
*    I     464      0.00267808  -0.00446979   0.00626520 *
*    Cr    465      0.00006651  -0.00015912   0.00004072 *
*    Cr    466      0.00006397   0.00014553   0.00003660 *
*    I     467      0.00490026   0.00001026  -0.00706750 *
*    I     468     -0.00266953  -0.00445022  -0.00627349 *
*    I     469     -0.00268411   0.00447107  -0.00626825 *
*    I     470     -0.00502450  -0.00000348   0.00887862 *
*    I     471      0.00248129   0.00441128   0.00890054 *
*    I     472      0.00247959  -0.00443305   0.00889673 *
*    Cr    473      0.00001758  -0.00019945  -0.00003324 *
*    Cr    474     -0.00000002   0.00020306  -0.00003457 *
*    I     475      0.00502248   0.00000744  -0.00887995 *
*    I     476     -0.00247896  -0.00440964  -0.00889686 *
*    I     477     -0.00248489   0.00442848  -0.00889159 *
*    I     478     -0.00490237  -0.00000381   0.00706791 *
*    I     479      0.00267164   0.00444678   0.00627033 *
*    I     480      0.00267969  -0.00446700   0.00626387 *
*    Cr    481     -0.00001790  -0.00020160   0.00003170 *
*    Cr    482      0.00006871   0.00014221   0.00003744 *
*    I     483      0.00490221   0.00000988  -0.00706942 *
*    I     484     -0.00267075  -0.00445036  -0.00627677 *
*    I     485     -0.00268584   0.00447231  -0.00627221 *
*    I     486     -0.00502486   0.00000009   0.00887777 *
*    I     487      0.00248120   0.00440899   0.00890073 *
*    I     488      0.00248331  -0.00443097   0.00890023 *
*    Cr    489      0.00001512  -0.00019361  -0.00003145 *
*    Cr    490      0.00000424   0.00020674  -0.00003232 *
*    I     491      0.00502043   0.00000003  -0.00887979 *
*    I     492     -0.00248038  -0.00440917  -0.00889788 *
*    I     493     -0.00248790   0.00442477  -0.00889200 *
*    I     494     -0.00490209  -0.00000755   0.00706883 *
*    I     495      0.00267083   0.00444816   0.00627173 *
*    I     496      0.00267804  -0.00447041   0.00626494 *
*    Cr    497     -0.00000933  -0.00020210   0.00003553 *
*    Cr    498     -0.00001940   0.00019765   0.00003574 *
*    I     499      0.00490263   0.00001105  -0.00707272 *
*    I     500     -0.00267274  -0.00444901  -0.00627200 *
*    I     501     -0.00268428   0.00447170  -0.00626916 *
*    I     502     -0.00502588   0.00000309   0.00888223 *
*    I     503      0.00247716   0.00440917   0.00889732 *
*    I     504      0.00248221  -0.00442813   0.00889258 *
*    Cr    505      0.00001530  -0.00018272  -0.00003900 *
*    Cr    506     -0.00000134   0.00020673  -0.00003238 *
*    I     507      0.00502038   0.00000131  -0.00887890 *
*    I     508     -0.00247728  -0.00441025  -0.00889724 *
*    I     509     -0.00248874   0.00442564  -0.00889396 *
*    I     510     -0.00490321  -0.00000637   0.00706762 *
*    I     511      0.00267310   0.00444547   0.00627104 *
*    I     512      0.00268051  -0.00447090   0.00626694 *
*    Cr    513     -0.00000575  -0.00020917   0.00003712 *
*    Cr    514     -0.00002237   0.00020900   0.00003493 *
*    I     515      0.00489851   0.00000736  -0.00706632 *
*    I     516     -0.00267191  -0.00445037  -0.00627370 *
*    I     517     -0.00268787   0.00446951  -0.00627096 *
*    I     518     -0.00502577  -0.00000148   0.00887996 *
*    I     519      0.00247930   0.00441095   0.00889919 *
*    I     520      0.00248047  -0.00443202   0.00889823 *
*    Cr    521      0.00000212  -0.00018257  -0.00003173 *
*    Cr    522      0.00002464   0.00020123  -0.00003742 *
*    I     523      0.00502107   0.00000191  -0.00888112 *
*    I     524     -0.00247983  -0.00441210  -0.00890182 *
*    I     525     -0.00249160   0.00442571  -0.00889364 *
*    I     526     -0.00490603  -0.00000936   0.00707166 *
*    I     527      0.00267296   0.00444857   0.00627528 *
*    I     528      0.00267617  -0.00447472   0.00626778 *
*    Cr    529     -0.00001066  -0.00022808   0.00003631 *
*    Cr    530     -0.00002867   0.00018930   0.00003172 *
*    I     531      0.00489916   0.00000746  -0.00707264 *
*    I     532     -0.00267517  -0.00444793  -0.00627434 *
*    I     533     -0.00268544   0.00446770  -0.00626699 *
*    I     534     -0.00502674  -0.00000115   0.00888500 *
*    I     535      0.00247642   0.00441206   0.00890045 *
*    I     536      0.00247862  -0.00442910   0.00889257 *
*    Cr    537      0.00001915  -0.00021165  -0.00003232 *
*    Cr    538      0.00000933   0.00019447  -0.00003726 *
*    I     539      0.00502472   0.00000506  -0.00888458 *
*    I     540     -0.00247944  -0.00441095  -0.00889899 *
*    I     541     -0.00248646   0.00443052  -0.00889492 *
*    I     542     -0.00490671  -0.00000702   0.00707393 *
*    I     543      0.00267131   0.00444835   0.00627177 *
*    I     544      0.00267848  -0.00447158   0.00626678 *
*    Cr    545     -0.00001071  -0.00021337   0.00003408 *
*    Cr    546     -0.00002701   0.00019019   0.00003111 *
*    I     547      0.00489941   0.00001142  -0.00706963 *
*    I     548     -0.00267433  -0.00444677  -0.00627183 *
*    I     549     -0.00268132   0.00447276  -0.00627019 *
*    I     550     -0.00502625  -0.00000376   0.00888085 *
*    I     551      0.00247824   0.00441094   0.00889781 *
*    I     552      0.00248218  -0.00443108   0.00889759 *
*    Cr    553      0.00002319  -0.00019823  -0.00003465 *
*    Cr    554      0.00000264   0.00019369  -0.00003052 *
*    I     555      0.00502193   0.00000798  -0.00887974 *
*    I     556     -0.00247888  -0.00440962  -0.00889697 *
*    I     557     -0.00248563   0.00442896  -0.00889209 *
*    I     558     -0.00490212  -0.00000212   0.00706725 *
*    I     559      0.00267099   0.00444669   0.00627040 *
*    I     560      0.00267808  -0.00446846   0.00626312 *
*    Cr    561     -0.00001480  -0.00020414   0.00002883 *
*    Cr    562     -0.00003046   0.00019148   0.00003225 *
*    I     563      0.00490036   0.00001075  -0.00706880 *
*    I     564     -0.00267332  -0.00444710  -0.00627207 *
*    I     565     -0.00268366   0.00447170  -0.00626806 *
*    I     566     -0.00502440  -0.00000246   0.00887892 *
*    I     567      0.00247752   0.00441016   0.00889764 *
*    I     568      0.00248018  -0.00442730   0.00889164 *
*    Cr    569      0.00001954  -0.00019633  -0.00003049 *
*    Cr    570      0.00000243   0.00020235  -0.00003142 *
*    I     571      0.00501996   0.00000265  -0.00888044 *
*    I     572     -0.00248066  -0.00440843  -0.00889807 *
*    I     573     -0.00248576   0.00442521  -0.00889116 *
*    I     574     -0.00490332  -0.00000622   0.00707028 *
*    I     575      0.00267060   0.00444970   0.00627101 *
*    I     576      0.00267972  -0.00446818   0.00626485 *
*                                                        *
**********************************************************
* TOTAL:           -0.00000000  -0.00000000   0.00000000 *
**********************************************************
 
 
***********************************************************
********** Summary of Forces (values in Eh/a) *************
*                                                         *
* ---------------------- Minimum ------------------------ *
* Atom:       354, |F|min =    0.00015865                 *
* Components:     Fx|min       Fy|min       Fz|min        *
*               0.00005770   0.00014378   0.00003418      *
*                                                         *
* ---------------------- Maximum ------------------------ *
* Atom:       488, |F|max =    0.01024765                 *
* Components:     Fx|max       Fy|max       Fz|max        *
*               0.00248331  -0.00443097   0.00890023      *
*                                                         *
* ---------------- Root Mean Square Force --------------- *
*                  |F|rms =    0.00806629                 *
* Components:     Fx|rms       Fy|rms       Fz|rms        *
*               0.00308028   0.00314051   0.00676122      *
***********************************************************
 

------------------------------ TIMING INFORMATION ------------------------------
AVERAGE TIME:   46150.245s on    180 proc(s)                                    
TOTAL TIME:     46150.246s on    180 proc(s)                                    
==================== AVERAGE TIMINGS FROM ALL PROCS (CUMULATIVE) =====================
|| TAG                                         #calls     cpu time   %total  Gflops ||
|| linalg_dsyev_lt                            :     1        0.00s   0.000%  ------ || (1 procs only)
|| hubbard_species_proj                       :     1        0.00s   0.000%  ------ ||
|| sw_bessel_init_cpu                         :     1        0.01s   0.000%  ------ || (1 procs only)
|| hubbard_projector_character                :     1        0.00s   0.000%  ------ ||
|| hubbard_ngwf_select                        :     1        0.00s   0.000%  ------ ||
|| hubbard_ngwf_on_grid                       :     1        0.00s   0.000%  ------ ||
|| density_fftbox_interp_mult_imbal           : 21462        0.00s   0.000%  ------ ||
|| hash_table_free                            :    61        0.00s   0.000%  ------ ||
|| ewald_calculate_forces_realspace           :     1        0.00s   0.000%  ------ ||
|| linalg_invert_sym_matrix                   :     2        0.01s   0.000%  ------ || (144 procs only)
|| hubbard_tensorial_correction               :     2        0.01s   0.000%  ------ ||
|| linalg_dgemv                               :    27        0.02s   0.000%  ------ ||
|| onetep.F90 final imbalance                 :     1        0.03s   0.000%  ------ ||
|| ewald_calculate_energy                     :     1        0.04s   0.000%  ------ ||
|| onetep.F90 main loop imbalance             :     1        0.05s   0.000%  ------ ||
|| sparse_set_to_garbage                      :   907        0.06s   0.000%  ------ ||
|| ewald_calculate_forces_recipspace          :     1        0.06s   0.000%  ------ ||
|| sparse_spam3toblacs_real_fast_imbal        :   214        0.08s   0.000%  ------ ||
|| sw_init                                    :  1021        0.09s   0.000%  ------ ||
|| sparse_blacstospam3_real_fast_imbal        :   228        0.11s   0.000%  ------ ||
|| ewald_calculate_forces                     :     1        0.11s   0.000%  ------ ||
|| paw_dij_hartree                            :   554        0.13s   0.000%  ------ ||
|| pseudo_make_structure_factor               :     1        0.14s   0.000%  ------ ||
|| augmentation_density_forces                :     1        0.21s   0.000%  ------ ||
|| basis_extract_function_from_box            :  2320        0.37s   0.001%  ------ ||
|| sparse_spam3toblacs_real_fast_B2           : 38520        0.45s   0.001%  ------ ||
|| paw_tcore_hartree_calc_forces              :     1        0.58s   0.001%  ------ ||
|| paw_tcore_hartree_on_grid                  :     1        0.62s   0.001%  ------ ||
|| restart_hamiltonian_write                  :     2        0.64s   0.001%  ------ ||
|| ngwfs_initialise_from_radial               :     2        1.21s   0.003%  ------ ||
|| hubbard_projection_mtx                     :    63        1.31s   0.003%  ------ ||
|| paw_tcore_density                          :     1        1.49s   0.003%  ------ ||
|| paw_nlcc_calculate_forces                  :     1        1.49s   0.003%  ------ ||
|| paw_sphere_density_on_grid                 :     1        1.64s   0.004%  ------ ||
|| paw_dataset_init                           :     2        1.69s   0.004%  ------ ||
|| sparse_init                                :     1        2.01s   0.004%  ------ ||
|| nonsc_forces_ngwfs_calc                    :     1        2.25s   0.005%  ------ ||
|| paw_species_calc_proj_prec_mat             :     1        6.09s   0.013%  ------ ||
|| hubbard_ham_matrix                         :   238        8.44s   0.018%  ------ ||
|| restart_kernel_write                       :    31        8.53s   0.018%  ------ ||
|| hubbard_projector_ham                      :   237        8.76s   0.019%  ------ ||
|| sparse_embed_array_hotelling_invert        :    61        9.58s   0.021%  ------ ||
|| hubbard_calculate_forces                   :     1       11.58s   0.025%  ------ ||
|| integrals_grad_spam3                       :     2       13.75s   0.030%  ------ ||
|| energy_and_force_init_cell                 :     1       15.72s   0.034%  ------ ||
|| hubbard_projector_update                   :     1       16.34s   0.035%  ------ ||
|| projectors_func_grad_ovlp_box_spam3        :     3       17.21s   0.037%  ------ ||
|| aug_nl_calculate_forces                    :     1       18.65s   0.040%  ------ ||
|| sparse_spam3toblacs_real_fast_B1           : 38520       20.27s   0.044%  ------ ||
|| fourier_filter_cell                        :   534       20.83s   0.045% 454.601 ||
|| sparse_spam3toblacs_real_fast              :   214       21.77s   0.047%  ------ ||
|| hubbard_energy_total                       :   523       23.76s   0.051%  ------ ||
|| fourier_apply_box_pair                     :  2967       31.24s   0.068%  6.669k ||
|| hartree_on_grid_single                     :   510       32.24s   0.070%  ------ ||
|| ngwf_gradient_coeffs                       :    29       33.96s   0.074%  ------ ||
|| sparse_blacstospam3_real_fast              :   228       34.09s   0.074%  ------ ||
|| basis_copy_function_to_box                 : 32244       35.62s   0.077%  ------ ||
|| hamiltonian_energy_components              :     1       39.32s   0.085%  ------ ||
|| sparse_trace                               : 16034       42.26s   0.092%  ------ ||
|| fourier_interpolate_cell                   :  1022       46.08s   0.100% 393.280 ||
|| eigenstates_calculate                      :     1       47.98s   0.104%  ------ ||
|| dense_eigensolve                           :   104       63.91s   0.138%  ------ ||
|| density_init_guess_real                    :     2       73.01s   0.158%  ------ ||
|| kernel_purify                              :   703       82.30s   0.178%  ------ ||
|| edft_diag_ngwf_ham                         :   102       83.39s   0.181%  ------ ||
|| kernel_fix                                 :   220       87.12s   0.189%  ------ ||
|| augmentation_screen_dij_spam3              :   509       96.01s   0.208%  ------ ||
|| lnv_gradient_norm                          :   220       98.25s   0.213%  ------ ||
|| forces_calculate                           :     1      109.72s   0.238%  ------ ||
|| edft_apply_smearing_operator               :    51      130.21s   0.282%  ------ ||
|| fourier_apply_cell_backward                :  4591      151.34s   0.328% 483.903 ||
|| paw_dij_xc                                 :   554      158.55s   0.344%  ------ ||
|| projectors_init_fftbox_recip               :   477      169.44s   0.367%  ------ ||
|| aug_nonlocal_mat_spam3_embed_array         :   524      169.74s   0.368%  ------ ||
|| fourier_filter                             :  6110      208.79s   0.452%  ------ ||
|| fourier_apply_cell_forward                 :  4591      242.21s   0.525% 302.369 ||
|| cell_grid_deposit_box_real                 : 27111      271.12s   0.587%  ------ ||
|| function_ops_brappd_ketppd_spam3           :   124      274.92s   0.596%  ------ ||
|| cell_grid_extract_box_real                 : 16831      285.31s   0.618%  ------ ||
|| restart_ngwfs_tightbox_output              :    28      335.05s   0.726%  ------ ||
|| fourier_interpolate                        :  6110      345.58s   0.749%  ------ ||
|| aug_density_on_grid_spam3                  :   511      357.27s   0.774%  ------ ||
|| xc_energy_potential                        :   510      403.41s   0.874%  ------ ||
|| projectors_func_ovlp_box_spam3             :   125      438.89s   0.951%  ------ ||
|| sparse_product                             : 29641      519.03s   1.125%  ------ ||
|| properties_calculate                       :     1      543.16s   1.177%  ------ ||
|| integrals_kinetic_spam3                    :    61      665.43s   1.442%  ------ ||
|| basis_dot_function_with_box                : 18.43M    1279.26s   2.772%  ------ ||
|| density_fftbox_deposit_to_cell             : 21462     1884.34s   4.083%  ------ ||
|| projectors_gradient_batch                  :   232     1957.33s   4.241%  ------ ||
|| edft_calculate                             :     1     2648.35s   5.739%  ------ ||
|| potential_apply_to_ngwf_batch              :   952     2705.71s   5.863%  ------ ||
|| fourier_apply_box                          : 94787     3057.45s   6.625%  7.887k ||
|| basis_add_function_to_box                  : 43.83M    3448.03s   7.471%  ------ ||
|| fourier_interpolate_product                : 20440     3450.93s   7.478%  ------ ||
|| density_fftbox_interpolate_multiply        : 21462     3580.82s   7.759%  ------ ||
|| integrals_locpot_mat_els_batch             :   952     5197.36s  11.262%  ------ ||
|| projectors_grad_precond_batch              :   116     5456.75s  11.824%  ------ ||
|| density_batch_interp_deposit               :  2044     7861.20s  17.034%  ------ ||
|| integrals_locpot_dbl_grid                  :   476     7933.02s  17.190%  ------ ||
|| ngwf_gradient_build_batch                  :   116     8727.42s  18.911%  ------ ||
|| density_batch_row_sums                     :  2044    10071.61s  21.824%  ------ ||
|| ngwf_gradient_batch                        :   116    13649.26s  29.576%  ------ ||
|| ngwf_gradient_lnv                          :    29    14902.02s  32.290%  ------ ||
|| density_on_dbl_grid                        :  1022    18458.74s  39.997%  ------ ||
|| hamiltonian_lhxc_calculate                 :   507    19487.22s  42.226%  ------ ||
|| lnv_denskernel_optimise_cg                 :    29    24170.15s  52.373%  ------ ||
|| ngwf_cg_optimise                           :     1    42652.60s  92.421%  ------ ||
|| energy_and_forces                          :     1    46133.16s  99.963%  ------ ||
|| total_time                                 :     1    46150.25s 100.000%  ------ ||
======================================================================================
Overhead of generating timer report: 
- 0 ms averaging over threads,
- 13 ms ensuring consistency across MPI ranks,
- 2 ms printing in order.

Job completed: 31-05-2025 22:26 (+0100)

onetep_launcher: ONETEP seems to have finished correctly (zero exit code).
                 Brought to you by PID 89898 on nid001609.
