==================================================================================
It's Sat 31 May 2025 10:09:28 AM BST.
*** Starting onetep_launcher (node nid001476, PIDs 44197 44198 44199 44200 44201 44202)...
    - ONETEP arguments: Cr2I6_bilayer_HT_AFM_FM_nSP.dat
    - Current directory: /mnt/lustre/a2fs-work3/work/e89/e89/phsmea/CrI3_onetep_U/U_2.97/HT_AFM/HT_AFM_FM/nsp-ngwfs
    - Launcher executable directory: /mnt/lustre/a2fs-work3/work/e89/e89/phsmea/CrI3_onetep_U/U_2.97/HT_AFM/HT_AFM_FM/nsp-ngwfs
    - (-e) ONETEP executable specified through command-line: /work/e89/e89/phsmea/onetep.archer2_2024_cray
      ... trying /work/e89/e89/phsmea/onetep.archer2_2024_cray
          -> looks OK
*** Setting up environment...
    - (-s) Process stack size: unlimited
    - (-t) OMP_NUM_THREADS: 17
    - (-o) OMP_STACKSIZE: 64M
    - (-c) Maximum core file size: 2048000
    - (-d) decfort_dump_flag: n
    - (-m) I_MPI_OFA_TRANSLATION_CACHE: 0
    - (-m) I_MPI_DAPL_TRANSLATION_CACHE: 0
    - (-m) I_MPI_DAPL_UD_TRANSLATION_CACHE: 0
*** Starting ONETEP...
    - /work/e89/e89/phsmea/onetep.archer2_2024_cray Cr2I6_bilayer_HT_AFM_FM_nSP.dat
=================================================================================
_________________________________________________________________________________
 +---------------------------------------------------------------+
 |                                                               |
 |        ####### #     # ####### ####### ####### ######         |
 |        #     # ##    # #          #    #       #     #        |
 |        #     # # #   # #          #    #       #     #        |
 |        #     # #  #  # #####      #    #####   ######         |
 |        #     # #   # # #          #    #       #              |
 |        #     # #    ## #          #    #       #              |
 |        ####### #     # #######    #    ####### #              |
 |                                                               |
 |        Linear-Scaling Ab Initio Total Energy Program          |
 |                                                               |
 |          Release for academic collaborators of ODG            |
 |                                             Version 7.3.0     |
 | Remote: git@github.com:Miesaz/onetep_mea.git                  |
 | Local branch: master                                          |
 | Commit ID: 4af45e89288c8df5499704252eec3e032ee3d0c8           |
 | Date: Tue Aug 6 11:28:44 2024 +0100                           |
 | Working tree clean                                            |
 |                                                               |
 +---------------------------------------------------------------+
 |                                                               |
 |  Authors:                                                     |
 |  Jacek Dziedzic, Peter D. Haynes, Nicholas D. M. Hine,        |
 |  Arash A. Mostofi, Mike C. Payne and Chris-Kriton Skylaris    |
 |                                                               |
 |  Contributors:                                                |
 |  J. Aarons, L. Andrinopoulos, P. W. Avraam, R. A. Bell,       |
 |  A. Bhandari, G. A. Bramley, R. J. Charlton, S. J. Clark,     |
 |  R. J. Clements, G. C. Constantinescu, F. Corsetti,           |
 |  N. Corsini, O. Dieguez, S. M. M. Dubois, K. K. B. Duff,      |
 |  J. M. Escartin, M. Escobar Azor, A. Greco,                   |
 |  H. Helal, Q. O. Hill, L. P. Lee, J.-H. Li,                   |
 |  T. Li, E. B. Linscott, G. Moynihan, D. D. O`Regan,           |
 |  O. K. Okan, E. Parkinson, M. J. S. Phipps,                   |
 |  C. J. Pickard, J. C. A. Prentice, M. I. J. Probert,          |
 |  L. E. Ratcliff, M. Robinson, A. Ruiz Serrano,                |
 |  M. dos Santos Dias, J. S. Spencer, E. W. Tait,               |
 |  G. Teobaldi, D. Turban, V. Vitale, K. A. Wilkinson,          |
 |  C. Weber, J. C. Womack, Chengcheng Xiao, N. Yeung,           |
 |  and T. J. Zuehlsdorff.                                       |
 |                                                               |
 |                                   Copyright (c) 2004-2024     |
 |                                                               |
 |  Please cite:                                                 |
 |  "The ONETEP linear-scaling density functional theory program"|
 |   J. Chem. Phys. 152(17) 174111 (2020)                        |
 |                                                               |
 |          in all publications arising from your use of ONETEP. |
 |                                                               |
 +---------------------------------------------------------------+
 |                                                               |
 |   ONETEP is based on developments described in the following  |
 |   publications:                                               |
 |                                                               |
 |  "Nonorthogonal generalized Wannier function pseudopotential  |
 |   plane-wave method".                                         |
 |   C.-K. Skylaris, A. A. Mostofi, P. D. Haynes, O. Dieguez,    |
 |   M. C. Payne.                                                |
 |   Phys. Rev. B 66 035119 (2002).                              |
 |                                                               |
 |  "Preconditioned iterative minimization for linear-scaling    |
 |   electronic structure calculations".                         |
 |   A. A. Mostofi, P. D. Haynes, C.-K. Skylaris, M. C. Payne.   |
 |   J. Chem. Phys. 119(17), pp.8842-8848 (2003).                |
 |                                                               |
 |  "Total-energy calculations on a real space grid with         |
 |   localized functions and a plane-wave basis".                |
 |   A. A. Mostofi, C.-K. Skylaris, P. D. Haynes, M. C. Payne.   |
 |   Comput. Phys. Commun. 147, pp.788-802 (2002).               |
 |                                                               |
 |  "Accurate kinetic energy evaluation in electronic structure  |
 |   calculations with localized functions on real space grids"  |
 |   C.-K. Skylaris, A. A. Mostofi, P. D. Haynes, C. J. Pickard, |
 |   M. C. Payne.                                                |
 |   Comput. Phys. Commun. 140, pp.315-322 (2001).               |
 |                                                               |
 |  "Accurate ionic forces and geometry optimization in linear-  |
 |   scaling density-functional theory with local orbitals"      |
 |   N. D. M. Hine, M. Robinson, P. D. Haynes, C.-K. Skylaris,   |
 |   M. C. Payne, and A. A. Mostofi.                             |
 |   Phys. Rev. B 83 195102 (2011).                              |
 |                                                               |
 +---------------------------------------------------------------+

Job started: 31-05-2025 10:09 (+0100)
 
Reading parameters from file "Cr2I6_bilayer_HT_AFM_FM_nSP.dat" ...... done

If your calculation crashes here, before "Checking processes and threads..."
is displayed, then your stack size is insufficient.
If so, use "ulimit -s unlimited" at runtime.
You can disable this check with "check_stack_size F".

Checking processes and threads...
      Default threads: 17
   Running with 180 MPI processes.
   There are 6 MPI processes running on the same node as the root process.
   Each MPI process is using: 
               1 threads for simulation cell FFTs.
               1 threads for threaded FFT box operations.
              17 threads for loops over batched FFT box operations.
              17 threads in other parallel regions.
   MPI Interface: S1 (use mpi_f08) (-DMPI -DUSE_MPI_F08).
   MPI_ASYNC_PROTECTS_NONBLOCKING: Yes. MPI_SUBARRAYS_SUPPORTED: Yes.
   FFTW Interface: OMP-capable and MODERN. (-DUSE_MODERN_FFTW specified).
   GPU Interface: None.
   GPU FFT Backend: None.
... done

Basic input checks...
WARNING: The number of FFT boxes in a batch is not a multiple of the number of
OpenMP threads. Consider changing fftbox_batch_size.
... done

Reading geometry and species blocks from file "Cr2I6_bilayer_HT_AFM_FM_nSP.dat" ...... done


--------------------------------------------------------------------------------
---------------------------------- INPUT FILE ----------------------------------
--------------------------------------------------------------------------------

charge : 0                                                                      
cutoff_energy : 1000 eV                                                         
delta_e_conv : F                                                                
do_properties : T                                                               
edft : F                                                                        
edft_init_maxit : 15                                                            
elec_energy_tol : 1e-07 Ha                                                      
fine_grid_scale : 4                                                             
forces_output_detail : VERBOSE                                                  
maxit_ngwf_cg : 100                                                             
MAXIT_LNV     : 15                                                              
MINIT_LNV     : 5                                                               
ngwf_threshold_orig : 1e-06                                                     
ngwfs_spin_polarized : F                                                        
output_detail : NORMAL                                                          
paw : T                                                                         
read_denskern : F                                                               
read_hamiltonian : F                                                            
read_tightbox_ngwfs : F                                                         
spin : 432                                                                      
spin_polarized : T                                                              
task : SinglePoint                                                              
write_denskern : T                                                              
write_forces : T                                                                
write_hamiltonian : T                                                           
write_tightbox_ngwfs : T                                                        
xc_functional : PBE                                                             
%BLOCK LATTICE_CART                                                             
ang                                                                             
41.261892132       0.000000000000000        0.000000000000000                   
-20.630946066       35.733846792             0.000000000000000                  
0.000000000000000   0.0000000000000000       27.507928088                       
%ENDBLOCK LATTICE_CART                                                          
%BLOCK POSITIONS_ABS                                                            
ang                                                                             
Cr       5.73012301       1.98615267      15.61475195                           
Cr       2.29163200       3.96948846      15.61475241                           
I        6.71804295      -0.00001318      14.06395847                           
I        3.51661508       2.12334657      14.07089707                           
I        0.07814689       3.83230774      14.07089707                           
I        4.74445508      -0.00001140      17.15723785                           
I        4.50489604       3.83201918      17.15707434                           
I        1.06642478       2.12363336      17.15707434                           
Cr       3.43917878       1.98613277       9.03123330                           
Cr       0.00068777       3.96950836       9.03123376                           
I        4.42486276      -0.00001318       7.48874545                           
I        1.22590088       2.12363241       7.48890841                           
I       -2.21256731       3.83202190       7.48890841                           
I        2.45126709      -0.00001140      10.58202506                           
I        2.21418512       3.83230199      10.57507890                           
I       -1.22428614       2.12335055      10.57507890                           
Cr       2.29163200       7.94179381      15.61475195                           
Cr      -1.14685901       9.92512959      15.61475241                           
I        3.27955194       5.95562795      14.06395847                           
I        0.07812407       8.07898770      14.07089707                           
I       -3.36034412       9.78794887      14.07089707                           
I        1.30596407       5.95562973      17.15723785                           
I        1.06640503       9.78766031      17.15707434                           
I       -2.37206623       8.07927449      17.15707434                           
Cr       0.00068777       7.94177390       9.03123330                           
Cr      -3.43780324       9.92514949       9.03123376                           
I        0.98637175       5.95562795       7.48874545                           
I       -2.21259013       8.07927354       7.48890841                           
I       -5.65105832       9.78766304       7.48890841                           
I       -0.98722392       5.95562973      10.58202506                           
I       -1.22430589       9.78794313      10.57507890                           
I       -4.66277715       8.07899168      10.57507890                           
Cr      -1.14685901      13.89743494      15.61475195                           
Cr      -4.58535002      15.88077072      15.61475241                           
I       -0.15893907      11.91126908      14.06395847                           
I       -3.36036694      14.03462883      14.07089707                           
I       -6.79883513      15.74359001      14.07089707                           
I       -2.13252694      11.91127086      17.15723785                           
I       -2.37208598      15.74330145      17.15707434                           
I       -5.81055724      14.03491562      17.15707434                           
Cr      -3.43780324      13.89741504       9.03123330                           
Cr      -6.87629425      15.88079062       9.03123376                           
I       -2.45211926      11.91126908       7.48874545                           
I       -5.65108114      14.03491467       7.48890841                           
I       -9.08954933      15.74330417       7.48890841                           
I       -4.42571493      11.91127086      10.58202506                           
I       -4.66279691      15.74358426      10.57507890                           
I       -8.10126817      14.03463281      10.57507890                           
Cr      -4.58535002      19.85307607      15.61475195                           
Cr      -8.02384103      21.83641185      15.61475241                           
I       -3.59743008      17.86691022      14.06395847                           
I       -6.79885795      19.99026996      14.07089707                           
I      -10.23732614      21.69923114      14.07089707                           
I       -5.57101795      17.86691200      17.15723785                           
I       -5.81057699      21.69894258      17.15707434                           
I       -9.24904825      19.99055675      17.15707434                           
Cr      -6.87629425      19.85305617       9.03123330                           
Cr     -10.31478526      21.83643175       9.03123376                           
I       -5.89061027      17.86691022       7.48874545                           
I       -9.08957216      19.99055580       7.48890841                           
I      -12.52804035      21.69894530       7.48890841                           
I       -7.86420594      17.86691200      10.58202506                           
I       -8.10128792      21.69922539      10.57507890                           
I      -11.53975918      19.99027394      10.57507890                           
Cr      -8.02384103      25.80871720      15.61475195                           
Cr     -11.46233204      27.79205298      15.61475241                           
I       -7.03592109      23.82255135      14.06395847                           
I      -10.23734897      25.94591110      14.07089707                           
I      -13.67581716      27.65487227      14.07089707                           
I       -9.00950896      23.82255313      17.15723785                           
I       -9.24906800      27.65458371      17.15707434                           
I      -12.68753926      25.94619789      17.15707434                           
Cr     -10.31478526      25.80869730       9.03123330                           
Cr     -13.75327627      27.79207289       9.03123376                           
I       -9.32910128      23.82255135       7.48874545                           
I      -12.52806317      25.94619693       7.48890841                           
I      -15.96653136      27.65458643       7.48890841                           
I      -11.30269695      23.82255313      10.58202506                           
I      -11.53977893      27.65486652      10.57507890                           
I      -14.97825019      25.94591507      10.57507890                           
Cr     -11.46233205      31.76435833      15.61475195                           
Cr     -14.90082306      33.74769412      15.61475241                           
I      -10.47441210      29.77819248      14.06395847                           
I      -13.67583998      31.90155223      14.07089707                           
I      -17.11430817      33.61051340      14.07089707                           
I      -12.44799997      29.77819426      17.15723785                           
I      -12.68755901      33.61022484      17.15707434                           
I      -16.12603027      31.90183902      17.15707434                           
Cr     -13.75327627      31.76433843       9.03123330                           
Cr     -17.19176728      33.74771402       9.03123376                           
I      -12.76759229      29.77819248       7.48874545                           
I      -15.96655418      31.90183807       7.48890841                           
I      -19.40502237      33.61022756       7.48890841                           
I      -14.74118796      29.77819426      10.58202506                           
I      -14.97826994      33.61050765      10.57507890                           
I      -18.41674120      31.90155621      10.57507890                           
Cr      12.60710503       1.98615267      15.61475195                           
Cr       9.16861402       3.96948846      15.61475241                           
I       13.59502497      -0.00001318      14.06395847                           
I       10.39359710       2.12334657      14.07089707                           
I        6.95512891       3.83230774      14.07089707                           
I       11.62143710      -0.00001140      17.15723785                           
I       11.38187806       3.83201918      17.15707434                           
I        7.94340680       2.12363336      17.15707434                           
Cr      10.31616080       1.98613277       9.03123330                           
Cr       6.87766979       3.96950836       9.03123376                           
I       11.30184479      -0.00001318       7.48874545                           
I        8.10288290       2.12363241       7.48890841                           
I        4.66441471       3.83202190       7.48890841                           
I        9.32824912      -0.00001140      10.58202506                           
I        9.09116714       3.83230199      10.57507890                           
I        5.65269588       2.12335055      10.57507890                           
Cr       9.16861402       7.94179381      15.61475195                           
Cr       5.73012301       9.92512959      15.61475241                           
I       10.15653396       5.95562795      14.06395847                           
I        6.95510609       8.07898770      14.07089707                           
I        3.51663790       9.78794887      14.07089707                           
I        8.18294609       5.95562973      17.15723785                           
I        7.94338705       9.78766031      17.15707434                           
I        4.50491579       8.07927449      17.15707434                           
Cr       6.87766979       7.94177390       9.03123330                           
Cr       3.43917878       9.92514949       9.03123376                           
I        7.86335378       5.95562795       7.48874545                           
I        4.66439189       8.07927354       7.48890841                           
I        1.22592370       9.78766304       7.48890841                           
I        5.88975810       5.95562973      10.58202506                           
I        5.65267613       9.78794313      10.57507890                           
I        2.21420487       8.07899168      10.57507890                           
Cr       5.73012301      13.89743494      15.61475195                           
Cr       2.29163200      15.88077072      15.61475241                           
I        6.71804295      11.91126908      14.06395847                           
I        3.51661508      14.03462883      14.07089707                           
I        0.07814689      15.74359001      14.07089707                           
I        4.74445508      11.91127086      17.15723785                           
I        4.50489604      15.74330145      17.15707434                           
I        1.06642478      14.03491562      17.15707434                           
Cr       3.43917878      13.89741504       9.03123330                           
Cr       0.00068777      15.88079062       9.03123376                           
I        4.42486276      11.91126908       7.48874545                           
I        1.22590088      14.03491467       7.48890841                           
I       -2.21256731      15.74330417       7.48890841                           
I        2.45126709      11.91127086      10.58202506                           
I        2.21418512      15.74358426      10.57507890                           
I       -1.22428614      14.03463281      10.57507890                           
Cr       2.29163200      19.85307607      15.61475195                           
Cr      -1.14685901      21.83641185      15.61475241                           
I        3.27955194      17.86691022      14.06395847                           
I        0.07812407      19.99026996      14.07089707                           
I       -3.36034412      21.69923114      14.07089707                           
I        1.30596407      17.86691200      17.15723785                           
I        1.06640503      21.69894258      17.15707434                           
I       -2.37206623      19.99055675      17.15707434                           
Cr       0.00068777      19.85305617       9.03123330                           
Cr      -3.43780324      21.83643175       9.03123376                           
I        0.98637175      17.86691022       7.48874545                           
I       -2.21259013      19.99055580       7.48890841                           
I       -5.65105832      21.69894530       7.48890841                           
I       -0.98722392      17.86691200      10.58202506                           
I       -1.22430589      21.69922539      10.57507890                           
I       -4.66277715      19.99027394      10.57507890                           
Cr      -1.14685901      25.80871720      15.61475195                           
Cr      -4.58535002      27.79205298      15.61475241                           
I       -0.15893907      23.82255135      14.06395847                           
I       -3.36036694      25.94591110      14.07089707                           
I       -6.79883513      27.65487227      14.07089707                           
I       -2.13252694      23.82255313      17.15723785                           
I       -2.37208598      27.65458371      17.15707434                           
I       -5.81055724      25.94619789      17.15707434                           
Cr      -3.43780324      25.80869730       9.03123330                           
Cr      -6.87629425      27.79207289       9.03123376                           
I       -2.45211926      23.82255135       7.48874545                           
I       -5.65108114      25.94619693       7.48890841                           
I       -9.08954933      27.65458643       7.48890841                           
I       -4.42571493      23.82255313      10.58202506                           
I       -4.66279691      27.65486652      10.57507890                           
I       -8.10126817      25.94591507      10.57507890                           
Cr      -4.58535002      31.76435833      15.61475195                           
Cr      -8.02384103      33.74769412      15.61475241                           
I       -3.59743008      29.77819248      14.06395847                           
I       -6.79885795      31.90155223      14.07089707                           
I      -10.23732614      33.61051340      14.07089707                           
I       -5.57101795      29.77819426      17.15723785                           
I       -5.81057699      33.61022484      17.15707434                           
I       -9.24904825      31.90183902      17.15707434                           
Cr      -6.87629425      31.76433843       9.03123330                           
Cr     -10.31478526      33.74771402       9.03123376                           
I       -5.89061027      29.77819248       7.48874545                           
I       -9.08957216      31.90183807       7.48890841                           
I      -12.52804035      33.61022756       7.48890841                           
I       -7.86420594      29.77819426      10.58202506                           
I       -8.10128792      33.61050765      10.57507890                           
I      -11.53975918      31.90155621      10.57507890                           
Cr      19.48408705       1.98615267      15.61475195                           
Cr      16.04559604       3.96948846      15.61475241                           
I       20.47200700      -0.00001318      14.06395847                           
I       17.27057912       2.12334657      14.07089707                           
I       13.83211093       3.83230774      14.07089707                           
I       18.49841912      -0.00001140      17.15723785                           
I       18.25886009       3.83201918      17.15707434                           
I       14.82038883       2.12363336      17.15707434                           
Cr      17.19314283       1.98613277       9.03123330                           
Cr      13.75465182       3.96950836       9.03123376                           
I       18.17882681      -0.00001318       7.48874545                           
I       14.97986492       2.12363241       7.48890841                           
I       11.54139673       3.83202190       7.48890841                           
I       16.20523114      -0.00001140      10.58202506                           
I       15.96814916       3.83230199      10.57507890                           
I       12.52967790       2.12335055      10.57507890                           
Cr      16.04559604       7.94179381      15.61475195                           
Cr      12.60710503       9.92512959      15.61475241                           
I       17.03351599       5.95562795      14.06395847                           
I       13.83208811       8.07898770      14.07089707                           
I       10.39361992       9.78794887      14.07089707                           
I       15.05992811       5.95562973      17.15723785                           
I       14.82036907       9.78766031      17.15707434                           
I       11.38189781       8.07927449      17.15707434                           
Cr      13.75465181       7.94177390       9.03123330                           
Cr      10.31616080       9.92514949       9.03123376                           
I       14.74033580       5.95562795       7.48874545                           
I       11.54137391       8.07927354       7.48890841                           
I        8.10290572       9.78766304       7.48890841                           
I       12.76674013       5.95562973      10.58202506                           
I       12.52965815       9.78794313      10.57507890                           
I        9.09118689       8.07899168      10.57507890                           
Cr      12.60710503      13.89743494      15.61475195                           
Cr       9.16861402      15.88077072      15.61475241                           
I       13.59502497      11.91126908      14.06395847                           
I       10.39359710      14.03462883      14.07089707                           
I        6.95512891      15.74359001      14.07089707                           
I       11.62143710      11.91127086      17.15723785                           
I       11.38187806      15.74330145      17.15707434                           
I        7.94340680      14.03491562      17.15707434                           
Cr      10.31616080      13.89741504       9.03123330                           
Cr       6.87766979      15.88079062       9.03123376                           
I       11.30184479      11.91126908       7.48874545                           
I        8.10288290      14.03491467       7.48890841                           
I        4.66441471      15.74330417       7.48890841                           
I        9.32824912      11.91127086      10.58202506                           
I        9.09116714      15.74358426      10.57507890                           
I        5.65269588      14.03463281      10.57507890                           
Cr       9.16861402      19.85307607      15.61475195                           
Cr       5.73012301      21.83641185      15.61475241                           
I       10.15653396      17.86691022      14.06395847                           
I        6.95510609      19.99026996      14.07089707                           
I        3.51663790      21.69923114      14.07089707                           
I        8.18294609      17.86691200      17.15723785                           
I        7.94338705      21.69894258      17.15707434                           
I        4.50491579      19.99055675      17.15707434                           
Cr       6.87766979      19.85305617       9.03123330                           
Cr       3.43917878      21.83643175       9.03123376                           
I        7.86335378      17.86691022       7.48874545                           
I        4.66439189      19.99055580       7.48890841                           
I        1.22592370      21.69894530       7.48890841                           
I        5.88975810      17.86691200      10.58202506                           
I        5.65267613      21.69922539      10.57507890                           
I        2.21420487      19.99027394      10.57507890                           
Cr       5.73012301      25.80871720      15.61475195                           
Cr       2.29163200      27.79205298      15.61475241                           
I        6.71804295      23.82255135      14.06395847                           
I        3.51661508      25.94591110      14.07089707                           
I        0.07814689      27.65487227      14.07089707                           
I        4.74445508      23.82255313      17.15723785                           
I        4.50489604      27.65458371      17.15707434                           
I        1.06642478      25.94619789      17.15707434                           
Cr       3.43917878      25.80869730       9.03123330                           
Cr       0.00068777      27.79207289       9.03123376                           
I        4.42486276      23.82255135       7.48874545                           
I        1.22590088      25.94619693       7.48890841                           
I       -2.21256731      27.65458643       7.48890841                           
I        2.45126709      23.82255313      10.58202506                           
I        2.21418512      27.65486652      10.57507890                           
I       -1.22428614      25.94591507      10.57507890                           
Cr       2.29163200      31.76435833      15.61475195                           
Cr      -1.14685901      33.74769412      15.61475241                           
I        3.27955194      29.77819248      14.06395847                           
I        0.07812407      31.90155223      14.07089707                           
I       -3.36034412      33.61051340      14.07089707                           
I        1.30596407      29.77819426      17.15723785                           
I        1.06640503      33.61022484      17.15707434                           
I       -2.37206623      31.90183902      17.15707434                           
Cr       0.00068777      31.76433843       9.03123330                           
Cr      -3.43780324      33.74771402       9.03123376                           
I        0.98637175      29.77819248       7.48874545                           
I       -2.21259013      31.90183807       7.48890841                           
I       -5.65105832      33.61022756       7.48890841                           
I       -0.98722392      29.77819426      10.58202506                           
I       -1.22430589      33.61050765      10.57507890                           
I       -4.66277715      31.90155621      10.57507890                           
Cr      26.36106908       1.98615267      15.61475195                           
Cr      22.92257807       3.96948846      15.61475241                           
I       27.34898902      -0.00001318      14.06395847                           
I       24.14756114       2.12334657      14.07089707                           
I       20.70909295       3.83230774      14.07089707                           
I       25.37540115      -0.00001140      17.15723785                           
I       25.13584211       3.83201918      17.15707434                           
I       21.69737085       2.12363336      17.15707434                           
Cr      24.07012485       1.98613277       9.03123330                           
Cr      20.63163384       3.96950836       9.03123376                           
I       25.05580883      -0.00001318       7.48874545                           
I       21.85684694       2.12363241       7.48890841                           
I       18.41837875       3.83202190       7.48890841                           
I       23.08221316      -0.00001140      10.58202506                           
I       22.84513118       3.83230199      10.57507890                           
I       19.40665992       2.12335055      10.57507890                           
Cr      22.92257806       7.94179381      15.61475195                           
Cr      19.48408705       9.92512959      15.61475241                           
I       23.91049801       5.95562795      14.06395847                           
I       20.70907013       8.07898770      14.07089707                           
I       17.27060194       9.78794887      14.07089707                           
I       21.93691014       5.95562973      17.15723785                           
I       21.69735110       9.78766031      17.15707434                           
I       18.25887984       8.07927449      17.15707434                           
Cr      20.63163384       7.94177390       9.03123330                           
Cr      17.19314283       9.92514949       9.03123376                           
I       21.61731782       5.95562795       7.48874545                           
I       18.41835593       8.07927354       7.48890841                           
I       14.97988774       9.78766304       7.48890841                           
I       19.64372215       5.95562973      10.58202506                           
I       19.40664017       9.78794313      10.57507890                           
I       15.96816891       8.07899168      10.57507890                           
Cr      19.48408705      13.89743494      15.61475195                           
Cr      16.04559604      15.88077072      15.61475241                           
I       20.47200700      11.91126908      14.06395847                           
I       17.27057912      14.03462883      14.07089707                           
I       13.83211093      15.74359001      14.07089707                           
I       18.49841912      11.91127086      17.15723785                           
I       18.25886009      15.74330145      17.15707434                           
I       14.82038883      14.03491562      17.15707434                           
Cr      17.19314283      13.89741504       9.03123330                           
Cr      13.75465182      15.88079062       9.03123376                           
I       18.17882681      11.91126908       7.48874545                           
I       14.97986492      14.03491467       7.48890841                           
I       11.54139673      15.74330417       7.48890841                           
I       16.20523114      11.91127086      10.58202506                           
I       15.96814916      15.74358426      10.57507890                           
I       12.52967790      14.03463281      10.57507890                           
Cr      16.04559604      19.85307607      15.61475195                           
Cr      12.60710503      21.83641185      15.61475241                           
I       17.03351599      17.86691022      14.06395847                           
I       13.83208811      19.99026996      14.07089707                           
I       10.39361992      21.69923114      14.07089707                           
I       15.05992811      17.86691200      17.15723785                           
I       14.82036907      21.69894258      17.15707434                           
I       11.38189781      19.99055675      17.15707434                           
Cr      13.75465181      19.85305617       9.03123330                           
Cr      10.31616080      21.83643175       9.03123376                           
I       14.74033580      17.86691022       7.48874545                           
I       11.54137391      19.99055580       7.48890841                           
I        8.10290572      21.69894530       7.48890841                           
I       12.76674013      17.86691200      10.58202506                           
I       12.52965815      21.69922539      10.57507890                           
I        9.09118689      19.99027394      10.57507890                           
Cr      12.60710503      25.80871720      15.61475195                           
Cr       9.16861402      27.79205298      15.61475241                           
I       13.59502497      23.82255135      14.06395847                           
I       10.39359710      25.94591110      14.07089707                           
I        6.95512891      27.65487227      14.07089707                           
I       11.62143710      23.82255313      17.15723785                           
I       11.38187806      27.65458371      17.15707434                           
I        7.94340680      25.94619789      17.15707434                           
Cr      10.31616080      25.80869730       9.03123330                           
Cr       6.87766979      27.79207289       9.03123376                           
I       11.30184479      23.82255135       7.48874545                           
I        8.10288290      25.94619693       7.48890841                           
I        4.66441471      27.65458643       7.48890841                           
I        9.32824912      23.82255313      10.58202506                           
I        9.09116714      27.65486652      10.57507890                           
I        5.65269588      25.94591507      10.57507890                           
Cr       9.16861402      31.76435833      15.61475195                           
Cr       5.73012301      33.74769412      15.61475241                           
I       10.15653396      29.77819248      14.06395847                           
I        6.95510609      31.90155223      14.07089707                           
I        3.51663790      33.61051340      14.07089707                           
I        8.18294609      29.77819426      17.15723785                           
I        7.94338705      33.61022484      17.15707434                           
I        4.50491579      31.90183902      17.15707434                           
Cr       6.87766979      31.76433843       9.03123330                           
Cr       3.43917878      33.74771402       9.03123376                           
I        7.86335378      29.77819248       7.48874545                           
I        4.66439189      31.90183807       7.48890841                           
I        1.22592370      33.61022756       7.48890841                           
I        5.88975810      29.77819426      10.58202506                           
I        5.65267613      33.61050765      10.57507890                           
I        2.21420487      31.90155621      10.57507890                           
Cr      33.23805110       1.98615267      15.61475195                           
Cr      29.79956009       3.96948846      15.61475241                           
I       34.22597104      -0.00001318      14.06395847                           
I       31.02454317       2.12334657      14.07089707                           
I       27.58607498       3.83230774      14.07089707                           
I       32.25238317      -0.00001140      17.15723785                           
I       32.01282413       3.83201918      17.15707434                           
I       28.57435287       2.12363336      17.15707434                           
Cr      30.94710687       1.98613277       9.03123330                           
Cr      27.50861586       3.96950836       9.03123376                           
I       31.93279085      -0.00001318       7.48874545                           
I       28.73382897       2.12363241       7.48890841                           
I       25.29536078       3.83202190       7.48890841                           
I       29.95919518      -0.00001140      10.58202506                           
I       29.72211320       3.83230199      10.57507890                           
I       26.28364194       2.12335055      10.57507890                           
Cr      29.79956009       7.94179381      15.61475195                           
Cr      26.36106908       9.92512959      15.61475241                           
I       30.78748003       5.95562795      14.06395847                           
I       27.58605216       8.07898770      14.07089707                           
I       24.14758397       9.78794887      14.07089707                           
I       28.81389216       5.95562973      17.15723785                           
I       28.57433312       9.78766031      17.15707434                           
I       25.13586186       8.07927449      17.15707434                           
Cr      27.50861586       7.94177390       9.03123330                           
Cr      24.07012485       9.92514949       9.03123376                           
I       28.49429984       5.95562795       7.48874545                           
I       25.29533795       8.07927354       7.48890841                           
I       21.85686976       9.78766304       7.48890841                           
I       26.52070417       5.95562973      10.58202506                           
I       26.28362219       9.78794313      10.57507890                           
I       22.84515093       8.07899168      10.57507890                           
Cr      26.36106908      13.89743494      15.61475195                           
Cr      22.92257807      15.88077072      15.61475241                           
I       27.34898902      11.91126908      14.06395847                           
I       24.14756114      14.03462883      14.07089707                           
I       20.70909295      15.74359001      14.07089707                           
I       25.37540115      11.91127086      17.15723785                           
I       25.13584211      15.74330145      17.15707434                           
I       21.69737085      14.03491562      17.15707434                           
Cr      24.07012485      13.89741504       9.03123330                           
Cr      20.63163384      15.88079062       9.03123376                           
I       25.05580883      11.91126908       7.48874545                           
I       21.85684694      14.03491467       7.48890841                           
I       18.41837875      15.74330417       7.48890841                           
I       23.08221316      11.91127086      10.58202506                           
I       22.84513118      15.74358426      10.57507890                           
I       19.40665992      14.03463281      10.57507890                           
Cr      22.92257806      19.85307607      15.61475195                           
Cr      19.48408705      21.83641185      15.61475241                           
I       23.91049801      17.86691022      14.06395847                           
I       20.70907013      19.99026996      14.07089707                           
I       17.27060194      21.69923114      14.07089707                           
I       21.93691014      17.86691200      17.15723785                           
I       21.69735110      21.69894258      17.15707434                           
I       18.25887984      19.99055675      17.15707434                           
Cr      20.63163384      19.85305617       9.03123330                           
Cr      17.19314283      21.83643175       9.03123376                           
I       21.61731782      17.86691022       7.48874545                           
I       18.41835593      19.99055580       7.48890841                           
I       14.97988774      21.69894530       7.48890841                           
I       19.64372215      17.86691200      10.58202506                           
I       19.40664017      21.69922539      10.57507890                           
I       15.96816891      19.99027394      10.57507890                           
Cr      19.48408705      25.80871720      15.61475195                           
Cr      16.04559604      27.79205298      15.61475241                           
I       20.47200700      23.82255135      14.06395847                           
I       17.27057912      25.94591110      14.07089707                           
I       13.83211093      27.65487227      14.07089707                           
I       18.49841912      23.82255313      17.15723785                           
I       18.25886009      27.65458371      17.15707434                           
I       14.82038883      25.94619789      17.15707434                           
Cr      17.19314283      25.80869730       9.03123330                           
Cr      13.75465182      27.79207289       9.03123376                           
I       18.17882681      23.82255135       7.48874545                           
I       14.97986492      25.94619693       7.48890841                           
I       11.54139673      27.65458643       7.48890841                           
I       16.20523114      23.82255313      10.58202506                           
I       15.96814916      27.65486652      10.57507890                           
I       12.52967790      25.94591507      10.57507890                           
Cr      16.04559604      31.76435833      15.61475195                           
Cr      12.60710503      33.74769412      15.61475241                           
I       17.03351599      29.77819248      14.06395847                           
I       13.83208811      31.90155223      14.07089707                           
I       10.39361992      33.61051340      14.07089707                           
I       15.05992811      29.77819426      17.15723785                           
I       14.82036907      33.61022484      17.15707434                           
I       11.38189781      31.90183902      17.15707434                           
Cr      13.75465181      31.76433843       9.03123330                           
Cr      10.31616080      33.74771402       9.03123376                           
I       14.74033580      29.77819248       7.48874545                           
I       11.54137391      31.90183807       7.48890841                           
I        8.10290572      33.61022756       7.48890841                           
I       12.76674013      29.77819426      10.58202506                           
I       12.52965815      33.61050765      10.57507890                           
I        9.09118689      31.90155621      10.57507890                           
Cr      40.11503312       1.98615267      15.61475195                           
Cr      36.67654211       3.96948846      15.61475241                           
I       41.10295306      -0.00001318      14.06395847                           
I       37.90152519       2.12334657      14.07089707                           
I       34.46305700       3.83230774      14.07089707                           
I       39.12936519      -0.00001140      17.15723785                           
I       38.88980615       3.83201918      17.15707434                           
I       35.45133489       2.12363336      17.15707434                           
Cr      37.82408889       1.98613277       9.03123330                           
Cr      34.38559788       3.96950836       9.03123376                           
I       38.80977287      -0.00001318       7.48874545                           
I       35.61081099       2.12363241       7.48890841                           
I       32.17234280       3.83202190       7.48890841                           
I       36.83617720      -0.00001140      10.58202506                           
I       36.59909523       3.83230199      10.57507890                           
I       33.16062397       2.12335055      10.57507890                           
Cr      36.67654211       7.94179381      15.61475195                           
Cr      33.23805110       9.92512959      15.61475241                           
I       37.66446205       5.95562795      14.06395847                           
I       34.46303418       8.07898770      14.07089707                           
I       31.02456599       9.78794887      14.07089707                           
I       35.69087418       5.95562973      17.15723785                           
I       35.45131514       9.78766031      17.15707434                           
I       32.01284388       8.07927449      17.15707434                           
Cr      34.38559788       7.94177390       9.03123330                           
Cr      30.94710687       9.92514949       9.03123376                           
I       35.37128186       5.95562795       7.48874545                           
I       32.17231998       8.07927354       7.48890841                           
I       28.73385179       9.78766304       7.48890841                           
I       33.39768619       5.95562973      10.58202506                           
I       33.16060422       9.78794313      10.57507890                           
I       29.72213296       8.07899168      10.57507890                           
Cr      33.23805110      13.89743494      15.61475195                           
Cr      29.79956009      15.88077072      15.61475241                           
I       34.22597104      11.91126908      14.06395847                           
I       31.02454317      14.03462883      14.07089707                           
I       27.58607498      15.74359001      14.07089707                           
I       32.25238317      11.91127086      17.15723785                           
I       32.01282413      15.74330145      17.15707434                           
I       28.57435287      14.03491562      17.15707434                           
Cr      30.94710687      13.89741504       9.03123330                           
Cr      27.50861586      15.88079062       9.03123376                           
I       31.93279085      11.91126908       7.48874545                           
I       28.73382897      14.03491467       7.48890841                           
I       25.29536078      15.74330417       7.48890841                           
I       29.95919518      11.91127086      10.58202506                           
I       29.72211320      15.74358426      10.57507890                           
I       26.28364194      14.03463281      10.57507890                           
Cr      29.79956009      19.85307607      15.61475195                           
Cr      26.36106908      21.83641185      15.61475241                           
I       30.78748003      17.86691022      14.06395847                           
I       27.58605216      19.99026996      14.07089707                           
I       24.14758397      21.69923114      14.07089707                           
I       28.81389216      17.86691200      17.15723785                           
I       28.57433312      21.69894258      17.15707434                           
I       25.13586186      19.99055675      17.15707434                           
Cr      27.50861586      19.85305617       9.03123330                           
Cr      24.07012485      21.83643175       9.03123376                           
I       28.49429984      17.86691022       7.48874545                           
I       25.29533795      19.99055580       7.48890841                           
I       21.85686976      21.69894530       7.48890841                           
I       26.52070417      17.86691200      10.58202506                           
I       26.28362219      21.69922539      10.57507890                           
I       22.84515093      19.99027394      10.57507890                           
Cr      26.36106908      25.80871720      15.61475195                           
Cr      22.92257807      27.79205298      15.61475241                           
I       27.34898902      23.82255135      14.06395847                           
I       24.14756114      25.94591110      14.07089707                           
I       20.70909295      27.65487227      14.07089707                           
I       25.37540115      23.82255313      17.15723785                           
I       25.13584211      27.65458371      17.15707434                           
I       21.69737085      25.94619789      17.15707434                           
Cr      24.07012485      25.80869730       9.03123330                           
Cr      20.63163384      27.79207289       9.03123376                           
I       25.05580883      23.82255135       7.48874545                           
I       21.85684694      25.94619693       7.48890841                           
I       18.41837875      27.65458643       7.48890841                           
I       23.08221316      23.82255313      10.58202506                           
I       22.84513118      27.65486652      10.57507890                           
I       19.40665992      25.94591507      10.57507890                           
Cr      22.92257806      31.76435833      15.61475195                           
Cr      19.48408705      33.74769412      15.61475241                           
I       23.91049801      29.77819248      14.06395847                           
I       20.70907013      31.90155223      14.07089707                           
I       17.27060194      33.61051340      14.07089707                           
I       21.93691014      29.77819426      17.15723785                           
I       21.69735110      33.61022484      17.15707434                           
I       18.25887984      31.90183902      17.15707434                           
Cr      20.63163384      31.76433843       9.03123330                           
Cr      17.19314283      33.74771402       9.03123376                           
I       21.61731782      29.77819248       7.48874545                           
I       18.41835593      31.90183807       7.48890841                           
I       14.97988774      33.61022756       7.48890841                           
I       19.64372215      29.77819426      10.58202506                           
I       19.40664017      33.61050765      10.57507890                           
I       15.96816891      31.90155621      10.57507890                           
%ENDBLOCK POSITIONS_ABS                                                         
%BLOCK SPECIES                                                                  
Cr Cr 24 -1 15                                                                  
I   I  53 -1 15                                                                 
%ENDBLOCK SPECIES                                                               
%BLOCK SPECIES_ATOMIC_SET                                                       
Cr "SOLVE INIT SPIN=3"                                                          
I   "SOLVE"                                                                     
%ENDBLOCK SPECIES_ATOMIC_SET                                                    
%BLOCK HUBBARD                                                                  
Cr  2 2.97 0.0 -10.0 0.00 0.0                                                   
%ENDBLOCK HUBBARD                                                               
%BLOCK SPECIES_LDOS_GROUPS                                                      
Cr                                                                              
I                                                                               
%ENDBLOCK SPECIES_LDOS_GROUPS                                                   
%BLOCK SPECIES_POT                                                              
Cr  "../../../../Cr.PBE-paw.abinit"                                             
I   "../../../../I.PBE-paw.abinit"                                              
%ENDBLOCK SPECIES_POT                                                           

--------------------------------------------------------------------------------
-------------------------------- END INPUT FILE --------------------------------
--------------------------------------------------------------------------------


 
 ESDF WARNING(1): "charge" (esdf_physical) has no units. Assume "e".
<<<<<<<<<<<<<<<<<<<<<<<<<<<<<<<<< Full system >>>>>>>>>>>>>>>>>>>>>>>>>>>>>>>>>>
<<<<<<<<<<<<<<<<<<<<<<<<<<< PAW Dataset information >>>>>>>>>>>>>>>>>>>>>>>>>>>
File: ../../../../Cr.PBE-paw.abinit; rc = 2.11 bohr; shape type =  2; rshape = 1.80 bohr;
  Atomic number: 24;  ionic charge: 14.000000
    Partial Wave 1: l = 0
    Partial Wave 2: l = 0
    Partial Wave 3: l = 1
    Partial Wave 4: l = 1
    Partial Wave 5: l = 2
    Partial Wave 6: l = 2
  Core charge supplied for Nonlinear Core Corrections
File: ../../../../I.PBE-paw.abinit; rc = 2.30 bohr; shape type =  2; rshape = 2.11 bohr;
  Atomic number: 53;  ionic charge:  7.000000
    Partial Wave 1: l = 0
    Partial Wave 2: l = 0
    Partial Wave 3: l = 1
    Partial Wave 4: l = 1
  Core charge supplied for Nonlinear Core Corrections
<<<<<<<<<<<<<<<<<<<<<<<<<<<<<<<<<<<<<<< >>>>>>>>>>>>>>>>>>>>>>>>>>>>>>>>>>>>>>>

-------------------------- Atom counting information ---------------------------
Symbol    Natoms    Nngwfs    Nprojs
  Cr       144      1872      2592
  I        432      1728      3456
.......   ......    ......    ......
Totals:    576      3600      6048
--------------------------------------------------------------------------------

=============================== PSINC grid sizes ===============================
                      Simulation cell:  175 x 175 x 117
                              FFT-box:  175 x 175 x 117
                                  PPD:    5 x   5 x   1
Grid space d1=  0.445563862424a0 (KE cutoff=  38.26345Eh =1041.20135eV)
Grid space d2=  0.445563862400a0 (KE cutoff=  38.26345Eh =1041.20135eV)
Grid space d3=  0.444294449711a0 (KE cutoff=  38.48241Eh =1047.15957eV)
================================================================================

********************* Fourier parallelisation information **********************
       Coarse grid (whole simulation cell) dimensions:    175   175   117
          Real-space ('12') slabs/proc (min max mean):      0     1     0
         Recip-space ('23') slabs/proc (min max mean):      0     1     0
********************************************************************************

********************* Fourier parallelisation information **********************
       Double grid (whole simulation cell) dimensions:    350   350   234
          Real-space ('12') slabs/proc (min max mean):      1     2     1
         Recip-space ('23') slabs/proc (min max mean):      0     1     0
********************************************************************************

********************* Fourier parallelisation information **********************
         Fine grid (whole simulation cell) dimensions:    700   700   468
          Real-space ('12') slabs/proc (min max mean):      2     3     2
         Recip-space ('23') slabs/proc (min max mean):      1     2     1
********************************************************************************

Atom SCF Calculation for Cr : Z (AE atom) =  24 : Z (PS atom) =  14
Config String: 3s2.0 3p6.0 3d5.0 4s1.0 4p0.0 INIT SPIN=3
Orbitals (num,occ):  5     2.00 6.00 5.00 1.00 0.00
Orbitals   (num,l):  5        0    1    2    0    1
Atom SCF converged after  64 iterations to a total energy of    -87.07044631
Adjusting orbital occupancies:
Orbitals (num,spin,occ):  5  1     1.00 3.00 3.50 1.00 0.00
Orbitals   (num,spin,l):  5  1        0    1    2    0    1
Orbitals (num,spin,occ):  5  2     1.00 3.00 1.00 0.50 0.00
Orbitals   (num,spin,l):  5  2        0    1    2    0    1

Atom SCF Calculation for I  : Z (AE atom) =  53 : Z (PS atom) =   7
Config String: 5s2.0 5p5.0
Orbitals (num,occ):  2     2.00 5.00
Orbitals   (num,l):  2        0    1
Atom SCF converged after  28 iterations to a total energy of    -11.61352964

Atom SCF Calculation for Cr : Z (AE atom) =  24 : Z (PS atom) =  14
Config String: 3s2.0 3p6.0 3d5.0 4s1.0 4p0.0 INIT SPIN=3
Orbitals (num,occ):  5     2.00 6.00 5.00 1.00 0.00
Orbitals   (num,l):  5        0    1    2    0    1
Atom SCF converged after  64 iterations to a total energy of    -87.07044631

Atom SCF Calculation for I  : Z (AE atom) =  53 : Z (PS atom) =   7
Config String: 5s2.0 5p5.0
Orbitals (num,occ):  2     2.00 5.00
Orbitals   (num,l):  2        0    1
Atom SCF converged after  28 iterations to a total energy of    -11.61352964

WARNING: The number of FFT boxes in a batch is not a multiple of the number of
OpenMP threads. Consider changing fftbox_batch_size.

Determining parallel strategy ...... done
Calculating Ewald energy ...            31475.177180 Hartree
Basis initialisation ...
... done

============================= Charge Augmentation ==============================
                           Aug box size:   49 x  49 x  45
================================================================================
Sparse matrix initialisation ...
 done
NGWF initialisation ... done
 done

================================= Core Density =================================
               Core den box size:  125 x 125 x 105
================================================================================
Density kernel initialisation

--------------------------- Ensemble-DFT optimisation --------------------------
Running ScaLAPACK on  180 processor(s).
With smearing scheme: FERMIDIRAC                                                                      

--------------------------------------------------------------------------------
  Iter                              Commutator    Free_energy(A=E-TS)     DeltaA
#    0                          0.005662785081  -17493.31558956559460  -1.75E+04
#    1                          0.002515441879  -17571.32054886777410  -7.80E+01
#    2                          0.000203340905  -17613.39365014788560  -4.21E+01
#    3                          0.000170712505  -17613.74817631146290  -3.55E-01
#    4                          0.000139453575  -17613.97439494673740  -2.26E-01
#    5                          0.000104217249  -17614.13304730976230  -1.59E-01
#    6                          0.000090633573  -17614.23467028949380  -1.02E-01
#    7                          0.000067369307  -17614.30455817409170  -6.99E-02
#    8                          0.000059082752  -17614.34895917219550  -4.44E-02
#    9                          0.000045428122  -17614.38053948436570  -3.16E-02
#   10                          0.000038792793  -17614.40074657399600  -2.02E-02
#   11                          0.000032344354  -17614.41589098127220  -1.51E-02
#   12                          0.000026589067  -17614.42561986666620  -9.73E-03
#   13                          0.000024082660  -17614.43336277128760  -7.74E-03
#   14                          0.000018082047  -17614.43840404338700  -5.04E-03
#   15                          0.000019078490  -17614.44264265562380  -4.24E-03
Finished EDFT density kernel iterations (  15)


Writing density kernel to file "Cr2I6_bilayer_HT_AFM_FM_nSP.dkn" ... done

Writing Hamiltonian to file "Cr2I6_bilayer_HT_AFM_FM_nSP.ham" ... done

Writing density kernel to file "Cr2I6_bilayer_HT_AFM_FM_nSP.dkn" ... done

>>> Optimising kernel for current NGWFs:
   iter  |      energy (Eh)       | rms gradient |  commutator  |   dE (Eh)
    1        -1.761444176411E+04     3.3437E-05     1.8364E-05
    2        -1.761444387332E+04     3.3975E-05     1.7172E-05    -2.1092E-03
    3        -1.761444594274E+04     5.8799E-05     3.0738E-05    -2.0694E-03
    4        -1.761444866467E+04     5.9085E-05     3.0506E-05    -2.7219E-03
    5        -1.761445135798E+04     3.9567E-05     2.0852E-05    -2.6933E-03
Finished density kernel iterations (   5)

Writing density kernel to file "Cr2I6_bilayer_HT_AFM_FM_nSP.dkn" ... done


>>> Density kernel optimised for the current NGWF basis:
     ~~~~~~~~~~~~~~~~~~~~~~~~~~~~~~~~~~~~~~~~~~~~~~~~~~~~~~~~~~~
     Total energy                =  -1.76144513579820E+04  Eh
     Estimated bandgap (UP spin) =   3.4039E-02  Eh
     Estimated bandgap (DN spin) =   1.0678E-01  Eh
     RMS occupancy error         =   2.0456E-09
     [H,K] commutator            =   2.0852E-05
     UP spin occupancy bounds    = [ -0.000:  1.000]
     DN spin occupancy bounds    = [ -0.000:  1.000]
     ~~~~~~~~~~~~~~~~~~~~~~~~~~~~~~~~~~~~~~~~~~~~~~~~~~~~~~~~~~~




################################################################################
########################### NGWF CG iteration  001 #############################
################################################################################

>>> Checking for convergence of NGWFs:   NOT CONVERGED
  ========================================================================
         NGWF RMS gradient =  9.8573E-05 >  1.0000E-06  | above tolerance
  ========================================================================

>>> Improving NGWFs using line search:
  ========================================================================
   Predicted total energy    =      -1.76222832914304E+04 Eh
   Predicted gain in energy  =      -7.83193344841493E+00 Eh
  ========================================================================

Writing NGWFs to file "Cr2I6_bilayer_HT_AFM_FM_nSP.tightbox_ngwfs".... done

>>> Optimising kernel for current NGWFs:
   iter  |      energy (Eh)       | rms gradient |  commutator  |   dE (Eh)
    1        -1.762226612987E+04     4.9165E-04     2.4905E-04
    2        -1.762259647329E+04     1.8823E-04     9.6179E-05    -3.3034E-01
    3        -1.762262885733E+04     8.9801E-05     4.5776E-05    -3.2384E-02
    4        -1.762263978396E+04     6.3728E-05     3.2729E-05    -1.0927E-02
    5        -1.762264556521E+04     2.8274E-05     1.4415E-05    -5.7813E-03
Finished density kernel iterations (   5)

Writing density kernel to file "Cr2I6_bilayer_HT_AFM_FM_nSP.dkn" ... done


>>> Density kernel optimised for the current NGWF basis:
     ~~~~~~~~~~~~~~~~~~~~~~~~~~~~~~~~~~~~~~~~~~~~~~~~~~~~~~~~~~~
     Total energy                =  -1.76226455652116E+04  Eh
     Estimated bandgap (UP spin) =   4.0281E-02  Eh
     Estimated bandgap (DN spin) =   1.1542E-01  Eh
     RMS occupancy error         =   5.7991E-10
     [H,K] commutator            =   1.4415E-05
     UP spin occupancy bounds    = [ -0.000:  1.000]
     DN spin occupancy bounds    = [ -0.000:  1.000]
     ~~~~~~~~~~~~~~~~~~~~~~~~~~~~~~~~~~~~~~~~~~~~~~~~~~~~~~~~~~~




################################################################################
########################### NGWF CG iteration  002 #############################
################################################################################

>>> Checking for convergence of NGWFs:   NOT CONVERGED
  ========================================================================
         NGWF RMS gradient =  6.6572E-05 >  1.0000E-06  | above tolerance
  Maximum change in energy =  1.4226E-02 >  1.0000E-07  | above tolerance
  ========================================================================

>>> Improving NGWFs using line search:
  ========================================================================
   Predicted total energy    =      -1.76251053712596E+04 Eh
   Predicted gain in energy  =      -2.45980604798024E+00 Eh
  ========================================================================

Writing NGWFs to file "Cr2I6_bilayer_HT_AFM_FM_nSP.tightbox_ngwfs".... done

>>> Optimising kernel for current NGWFs:
   iter  |      energy (Eh)       | rms gradient |  commutator  |   dE (Eh)
    1        -1.762509515848E+04     1.7437E-04     8.8723E-05
    2        -1.762514231908E+04     4.2233E-05     2.1297E-05    -4.7161E-02
    3        -1.762514742813E+04     4.8505E-05     2.4649E-05    -5.1090E-03
    4        -1.762514986927E+04     2.4103E-05     1.2140E-05    -2.4411E-03
    5        -1.762515101082E+04     1.9651E-05     9.8968E-06    -1.1415E-03
Finished density kernel iterations (   5)

Writing density kernel to file "Cr2I6_bilayer_HT_AFM_FM_nSP.dkn" ... done


>>> Density kernel optimised for the current NGWF basis:
     ~~~~~~~~~~~~~~~~~~~~~~~~~~~~~~~~~~~~~~~~~~~~~~~~~~~~~~~~~~~
     Total energy                =  -1.76251510108198E+04  Eh
     Estimated bandgap (UP spin) =   3.9394E-02  Eh
     Estimated bandgap (DN spin) =   1.1439E-01  Eh
     RMS occupancy error         =   1.3911E-10
     [H,K] commutator            =   9.8968E-06
     UP spin occupancy bounds    = [  0.000:  1.000]
     DN spin occupancy bounds    = [  0.000:  1.000]
     ~~~~~~~~~~~~~~~~~~~~~~~~~~~~~~~~~~~~~~~~~~~~~~~~~~~~~~~~~~~




################################################################################
########################### NGWF CG iteration  003 #############################
################################################################################

>>> Checking for convergence of NGWFs:   NOT CONVERGED
  ========================================================================
         NGWF RMS gradient =  4.1229E-05 >  1.0000E-06  | above tolerance
  Maximum change in energy =  1.4226E-02 >  1.0000E-07  | above tolerance
  ========================================================================

>>> Improving NGWFs using line search:
  ========================================================================
   Predicted total energy    =      -1.76262097449607E+04 Eh
   Predicted gain in energy  =      -1.05873414091184E+00 Eh
  ========================================================================

Writing NGWFs to file "Cr2I6_bilayer_HT_AFM_FM_nSP.tightbox_ngwfs".... done

>>> Optimising kernel for current NGWFs:
   iter  |      energy (Eh)       | rms gradient |  commutator  |   dE (Eh)
    1        -1.762619939742E+04     1.7561E-04     8.8947E-05
    2        -1.762623315269E+04     8.4915E-05     4.3292E-05    -3.3755E-02
    3        -1.762623917738E+04     3.1170E-05     1.5726E-05    -6.0247E-03
    4        -1.762624063420E+04     2.2712E-05     1.1373E-05    -1.4568E-03
    5        -1.762624169260E+04     9.8142E-06     4.9914E-06    -1.0584E-03
Finished density kernel iterations (   5)

Writing density kernel to file "Cr2I6_bilayer_HT_AFM_FM_nSP.dkn" ... done


>>> Density kernel optimised for the current NGWF basis:
     ~~~~~~~~~~~~~~~~~~~~~~~~~~~~~~~~~~~~~~~~~~~~~~~~~~~~~~~~~~~
     Total energy                =  -1.76262416925971E+04  Eh
     Estimated bandgap (UP spin) =   3.9093E-02  Eh
     Estimated bandgap (DN spin) =   1.1463E-01  Eh
     RMS occupancy error         =   4.3809E-11
     [H,K] commutator            =   4.9914E-06
     UP spin occupancy bounds    = [  0.000:  1.000]
     DN spin occupancy bounds    = [  0.000:  1.000]
     ~~~~~~~~~~~~~~~~~~~~~~~~~~~~~~~~~~~~~~~~~~~~~~~~~~~~~~~~~~~




################################################################################
########################### NGWF CG iteration  004 #############################
################################################################################

>>> Checking for convergence of NGWFs:   NOT CONVERGED
  ========================================================================
         NGWF RMS gradient =  2.9775E-05 >  1.0000E-06  | above tolerance
  Maximum change in energy =  4.3497E-03 >  1.0000E-07  | above tolerance
  ========================================================================

>>> Improving NGWFs using line search:
  ========================================================================
   Predicted total energy    =      -1.76268205399700E+04 Eh
   Predicted gain in energy  =      -5.78847372849850E-01 Eh
  ========================================================================

Writing NGWFs to file "Cr2I6_bilayer_HT_AFM_FM_nSP.tightbox_ngwfs".... done

>>> Optimising kernel for current NGWFs:
   iter  |      energy (Eh)       | rms gradient |  commutator  |   dE (Eh)
    1        -1.762680982904E+04     5.8300E-05     2.9692E-05
    2        -1.762681588464E+04     3.0214E-05     1.5221E-05    -6.0556E-03
    3        -1.762681728342E+04     2.5929E-05     1.2933E-05    -1.3988E-03
    4        -1.762681830500E+04     1.6699E-05     8.4104E-06    -1.0216E-03
    5        -1.762681863954E+04     1.1378E-05     5.7297E-06    -3.3454E-04
Finished density kernel iterations (   5)

Writing density kernel to file "Cr2I6_bilayer_HT_AFM_FM_nSP.dkn" ... done


>>> Density kernel optimised for the current NGWF basis:
     ~~~~~~~~~~~~~~~~~~~~~~~~~~~~~~~~~~~~~~~~~~~~~~~~~~~~~~~~~~~
     Total energy                =  -1.76268186395408E+04  Eh
     Estimated bandgap (UP spin) =   3.8005E-02  Eh
     Estimated bandgap (DN spin) =   1.1400E-01  Eh
     RMS occupancy error         =   2.3075E-11
     [H,K] commutator            =   5.7297E-06
     UP spin occupancy bounds    = [  0.000:  1.000]
     DN spin occupancy bounds    = [  0.000:  1.000]
     ~~~~~~~~~~~~~~~~~~~~~~~~~~~~~~~~~~~~~~~~~~~~~~~~~~~~~~~~~~~




################################################################################
########################### NGWF CG iteration  005 #############################
################################################################################

>>> Checking for convergence of NGWFs:   NOT CONVERGED
  ========================================================================
         NGWF RMS gradient =  2.0751E-05 >  1.0000E-06  | above tolerance
  Maximum change in energy =  1.8935E-03 >  1.0000E-07  | above tolerance
  ========================================================================

>>> Improving NGWFs using line search:
  ========================================================================
   Predicted total energy    =      -1.76269852988903E+04 Eh
   Predicted gain in energy  =      -1.66659349422844E-01 Eh
  ========================================================================

Writing NGWFs to file "Cr2I6_bilayer_HT_AFM_FM_nSP.tightbox_ngwfs".... done

>>> Optimising kernel for current NGWFs:
   iter  |      energy (Eh)       | rms gradient |  commutator  |   dE (Eh)
    1        -1.762698461999E+04     8.9077E-06     4.4668E-06
    2        -1.762698478268E+04     2.2039E-05     1.0859E-05    -1.6268E-04
    3        -1.762698509844E+04     6.7482E-06     3.3366E-06    -3.1576E-04
    4        -1.762698474063E+04     3.0268E-05     1.5246E-05     3.5781E-04
    5        -1.762698545486E+04     9.8218E-06     4.9019E-06    -7.1423E-04
Finished density kernel iterations (   5)

Writing density kernel to file "Cr2I6_bilayer_HT_AFM_FM_nSP.dkn" ... done


>>> Density kernel optimised for the current NGWF basis:
     ~~~~~~~~~~~~~~~~~~~~~~~~~~~~~~~~~~~~~~~~~~~~~~~~~~~~~~~~~~~
     Total energy                =  -1.76269854548605E+04  Eh
     Estimated bandgap (UP spin) =   3.7773E-02  Eh
     Estimated bandgap (DN spin) =   1.1388E-01  Eh
     RMS occupancy error         =   9.9326E-13
     [H,K] commutator            =   4.9019E-06
     UP spin occupancy bounds    = [  0.000:  1.000]
     DN spin occupancy bounds    = [  0.000:  1.000]
     ~~~~~~~~~~~~~~~~~~~~~~~~~~~~~~~~~~~~~~~~~~~~~~~~~~~~~~~~~~~




################################################################################
########################### NGWF CG iteration  006 #############################
################################################################################

>>> Checking for convergence of NGWFs:   NOT CONVERGED
  ========================================================================
         NGWF RMS gradient =  1.4387E-05 >  1.0000E-06  | above tolerance
  Maximum change in energy =  1.0016E-03 >  1.0000E-07  | above tolerance
  ========================================================================

>>> Improving NGWFs using line search:
  ========================================================================
   Predicted total energy    =      -1.76271204714438E+04 Eh
   Predicted gain in energy  =      -1.35016583262768E-01 Eh
  ========================================================================

Writing NGWFs to file "Cr2I6_bilayer_HT_AFM_FM_nSP.tightbox_ngwfs".... done

>>> Optimising kernel for current NGWFs:
   iter  |      energy (Eh)       | rms gradient |  commutator  |   dE (Eh)
[...]
*    I     436     -0.00275169  -0.00448088  -0.00631579 *
*    I     437     -0.00276265   0.00450421  -0.00631103 *
*    I     438     -0.00509592  -0.00000291   0.00897937 *
*    I     439      0.00253713   0.00442178   0.00897508 *
*    I     440      0.00253977  -0.00444121   0.00897031 *
*    Cr    441      0.00006547  -0.00022623   0.00007994 *
*    Cr    442      0.00004608   0.00020131   0.00008198 *
*    I     443      0.00509056   0.00000556  -0.00897820 *
*    I     444     -0.00253671  -0.00441954  -0.00897276 *
*    I     445     -0.00254783   0.00443482  -0.00896790 *
*    I     446     -0.00493045  -0.00000860   0.00699251 *
*    I     447      0.00275193   0.00448039   0.00631428 *
*    I     448      0.00275312  -0.00450996   0.00631187 *
*    Cr    449      0.00002950  -0.00016694  -0.00007202 *
*    Cr    450     -0.00007474   0.00020543  -0.00007862 *
*    I     451      0.00492588   0.00000925  -0.00699328 *
*    I     452     -0.00275203  -0.00447986  -0.00631676 *
*    I     453     -0.00276275   0.00450464  -0.00631108 *
*    I     454     -0.00509595  -0.00000304   0.00897927 *
*    I     455      0.00253719   0.00442111   0.00897487 *
*    I     456      0.00254016  -0.00444037   0.00896928 *
*    Cr    457      0.00006174  -0.00020900   0.00007818 *
*    Cr    458      0.00005320   0.00020564   0.00007468 *
*    I     459      0.00509164   0.00000856  -0.00897987 *
*    I     460     -0.00253773  -0.00441901  -0.00897315 *
*    I     461     -0.00254629   0.00443894  -0.00896934 *
*    I     462     -0.00493041  -0.00000796   0.00699338 *
*    I     463      0.00275079   0.00447942   0.00631527 *
*    I     464      0.00275569  -0.00450601   0.00631030 *
*    Cr    465      0.00002802  -0.00016704  -0.00007210 *
*    Cr    466      0.00002237   0.00015280  -0.00007644 *
*    I     467      0.00492768   0.00001211  -0.00699363 *
*    I     468     -0.00275067  -0.00448085  -0.00631772 *
*    I     469     -0.00276041   0.00450719  -0.00631141 *
*    I     470     -0.00509782  -0.00000623   0.00898060 *
*    I     471      0.00253819   0.00442089   0.00897614 *
*    I     472      0.00253902  -0.00444364   0.00897141 *
*    Cr    473      0.00006628  -0.00021077   0.00008006 *
*    Cr    474      0.00004559   0.00021506   0.00007898 *
*    I     475      0.00509347   0.00000937  -0.00898009 *
*    I     476     -0.00253810  -0.00441894  -0.00897395 *
*    I     477     -0.00254559   0.00444042  -0.00896934 *
*    I     478     -0.00492888  -0.00000600   0.00699207 *
*    I     479      0.00275105   0.00447911   0.00631579 *
*    I     480      0.00275634  -0.00450435   0.00630947 *
*    Cr    481     -0.00006490  -0.00021314  -0.00008160 *
*    Cr    482      0.00003035   0.00014639  -0.00007513 *
*    I     483      0.00492838   0.00001215  -0.00699347 *
*    I     484     -0.00275075  -0.00447976  -0.00631837 *
*    I     485     -0.00276113   0.00450726  -0.00631268 *
*    I     486     -0.00509644  -0.00000171   0.00897741 *
*    I     487      0.00253735   0.00441767   0.00897384 *
*    I     488      0.00254244  -0.00443990   0.00897166 *
*    Cr    489      0.00006401  -0.00020463   0.00008199 *
*    Cr    490      0.00005126   0.00021937   0.00008128 *
*    I     491      0.00509080   0.00000484  -0.00897886 *
*    I     492     -0.00253770  -0.00441918  -0.00897324 *
*    I     493     -0.00254873   0.00443646  -0.00896974 *
*    I     494     -0.00492823  -0.00000684   0.00699193 *
*    I     495      0.00275155   0.00447897   0.00631554 *
*    I     496      0.00275499  -0.00450782   0.00631105 *
*    Cr    497     -0.00005607  -0.00021431  -0.00007789 *
*    Cr    498     -0.00006892   0.00020990  -0.00007775 *
*    I     499      0.00492704   0.00001063  -0.00699379 *
*    I     500     -0.00275123  -0.00448137  -0.00631643 *
*    I     501     -0.00276283   0.00450673  -0.00631256 *
*    I     502     -0.00509583  -0.00000149   0.00897887 *
*    I     503      0.00253652   0.00441745   0.00897359 *
*    I     504      0.00253987  -0.00443993   0.00896729 *
*    Cr    505      0.00006397  -0.00019378   0.00007455 *
*    Cr    506      0.00004449   0.00022030   0.00008147 *
*    I     507      0.00509187   0.00000432  -0.00897965 *
*    I     508     -0.00253754  -0.00441870  -0.00897364 *
*    I     509     -0.00254932   0.00443600  -0.00896859 *
*    I     510     -0.00493023  -0.00000737   0.00699250 *
*    I     511      0.00275108   0.00447766   0.00631551 *
*    I     512      0.00275592  -0.00450718   0.00631019 *
*    Cr    513     -0.00005261  -0.00022169  -0.00007597 *
*    Cr    514     -0.00007163   0.00022052  -0.00007853 *
*    I     515      0.00492450   0.00000959  -0.00699025 *
*    I     516     -0.00275168  -0.00448112  -0.00631620 *
*    I     517     -0.00276412   0.00450429  -0.00631208 *
*    I     518     -0.00509750  -0.00000345   0.00897974 *
*    I     519      0.00253667   0.00441947   0.00897310 *
*    I     520      0.00253916  -0.00444204   0.00897078 *
*    Cr    521      0.00005197  -0.00019363   0.00008169 *
*    Cr    522      0.00007161   0.00021345   0.00007617 *
*    I     523      0.00509059   0.00000559  -0.00897886 *
*    I     524     -0.00253856  -0.00441882  -0.00897395 *
*    I     525     -0.00254935   0.00443751  -0.00896828 *
*    I     526     -0.00493179  -0.00000981   0.00699355 *
*    I     527      0.00275009   0.00447887   0.00631572 *
*    I     528      0.00275445  -0.00450975   0.00631103 *
*    Cr    529     -0.00005788  -0.00024093  -0.00007710 *
*    Cr    530     -0.00007578   0.00020157  -0.00008173 *
*    I     531      0.00492329   0.00000924  -0.00699232 *
*    I     532     -0.00275185  -0.00448066  -0.00631682 *
*    I     533     -0.00276271   0.00450525  -0.00631323 *
*    I     534     -0.00509632  -0.00000348   0.00898045 *
*    I     535      0.00253702   0.00441874   0.00897482 *
*    I     536      0.00253912  -0.00444104   0.00897034 *
*    Cr    537      0.00006853  -0.00022290   0.00008081 *
*    Cr    538      0.00005759   0.00020534   0.00007621 *
*    I     539      0.00509368   0.00000748  -0.00898030 *
*    I     540     -0.00253730  -0.00441931  -0.00897328 *
*    I     541     -0.00254668   0.00444072  -0.00896970 *
*    I     542     -0.00493149  -0.00000912   0.00699403 *
*    I     543      0.00275039   0.00447856   0.00631426 *
*    I     544      0.00275386  -0.00450798   0.00630985 *
*    Cr    545     -0.00005780  -0.00022603  -0.00007894 *
*    Cr    546     -0.00007679   0.00020130  -0.00008203 *
*    I     547      0.00492556   0.00001344  -0.00699346 *
*    I     548     -0.00275287  -0.00447925  -0.00631645 *
*    I     549     -0.00276140   0.00450618  -0.00631227 *
*    I     550     -0.00509803  -0.00000623   0.00898096 *
*    I     551      0.00253774   0.00441914   0.00897419 *
*    I     552      0.00253757  -0.00444361   0.00897172 *
*    Cr    553      0.00007322  -0.00021059   0.00007891 *
*    Cr    554      0.00004989   0.00020590   0.00008297 *
*    I     555      0.00509287   0.00001003  -0.00897997 *
*    I     556     -0.00253776  -0.00441896  -0.00897411 *
*    I     557     -0.00254645   0.00444088  -0.00896977 *
*    I     558     -0.00492860  -0.00000439   0.00699105 *
*    I     559      0.00275038   0.00447900   0.00631559 *
*    I     560      0.00275474  -0.00450559   0.00630904 *
*    Cr    561     -0.00006237  -0.00021570  -0.00008433 *
*    Cr    562     -0.00007871   0.00020323  -0.00008082 *
*    I     563      0.00492654   0.00001350  -0.00699309 *
*    I     564     -0.00275196  -0.00447914  -0.00631677 *
*    I     565     -0.00276038   0.00450992  -0.00631493 *
*    I     566     -0.00509605  -0.00000405   0.00897894 *
*    I     567      0.00253683   0.00441869   0.00897379 *
*    I     568      0.00254105  -0.00443953   0.00896984 *
*    Cr    569      0.00006935  -0.00020782   0.00008313 *
*    Cr    570      0.00004980   0.00021476   0.00008212 *
*    I     571      0.00509079   0.00000757  -0.00897939 *
*    I     572     -0.00253768  -0.00441805  -0.00897355 *
*    I     573     -0.00254666   0.00443727  -0.00896872 *
*    I     574     -0.00492946  -0.00000512   0.00699324 *
*    I     575      0.00275120   0.00448049   0.00631459 *
*    I     576      0.00275666  -0.00450537   0.00631062 *
*                                                        *
**********************************************************
* TOTAL:            0.00000000  -0.00000000  -0.00000000 *
**********************************************************
 
 
***********************************************************
********** Summary of Forces (values in Eh/a) *************
*                                                         *
* ---------------------- Minimum ------------------------ *
* Atom:       482, |F|min =    0.00016732                 *
* Components:     Fx|min       Fy|min       Fz|min        *
*               0.00003035   0.00014639  -0.00007513      *
*                                                         *
* ---------------------- Maximum ------------------------ *
* Atom:       136, |F|max =    0.01032879                 *
* Components:     Fx|max       Fy|max       Fz|max        *
*               0.00253938  -0.00444501   0.00897092      *
*                                                         *
* ---------------- Root Mean Square Force --------------- *
*                  |F|rms =    0.00812604                 *
* Components:     Fx|rms       Fy|rms       Fz|rms        *
*               0.00312902   0.00315630   0.00680290      *
***********************************************************
 

------------------------------ TIMING INFORMATION ------------------------------
AVERAGE TIME:   46307.432s on    180 proc(s)                                    
TOTAL TIME:     46307.433s on    180 proc(s)                                    
==================== AVERAGE TIMINGS FROM ALL PROCS (CUMULATIVE) =====================
|| TAG                                         #calls     cpu time   %total  Gflops ||
|| hubbard_species_proj                       :     1        0.00s   0.000%  ------ ||
|| sw_bessel_init_cpu                         :     1        0.01s   0.000%  ------ || (1 procs only)
|| hubbard_projector_character                :     1        0.00s   0.000%  ------ ||
|| hubbard_ngwf_select                        :     1        0.00s   0.000%  ------ ||
|| hubbard_ngwf_on_grid                       :     1        0.00s   0.000%  ------ ||
|| ewald_calculate_forces_realspace           :     1        0.00s   0.000%  ------ ||
|| density_fftbox_interp_mult_imbal           : 19782        0.00s   0.000%  ------ ||
|| hash_table_free                            :    57        0.01s   0.000%  ------ ||
|| linalg_invert_sym_matrix                   :     2        0.02s   0.000%  ------ || (144 procs only)
|| hubbard_tensorial_correction               :     2        0.01s   0.000%  ------ ||
|| linalg_dgemv                               :    24        0.03s   0.000%  ------ ||
|| onetep.F90 final imbalance                 :     1        0.04s   0.000%  ------ ||
|| ewald_calculate_energy                     :     1        0.05s   0.000%  ------ ||
|| ewald_calculate_forces_recipspace          :     1        0.07s   0.000%  ------ ||
|| sparse_set_to_garbage                      :   847        0.07s   0.000%  ------ ||
|| onetep.F90 main loop imbalance             :     1        0.08s   0.000%  ------ ||
|| ewald_calculate_forces                     :     1        0.10s   0.000%  ------ ||
|| sw_init                                    :   941        0.12s   0.000%  ------ ||
|| sparse_spam3toblacs_real_fast_imbal        :   198        0.13s   0.000%  ------ ||
|| paw_dij_hartree                            :   512        0.17s   0.000%  ------ ||
|| sparse_blacstospam3_real_fast_imbal        :   212        0.18s   0.000%  ------ ||
|| pseudo_make_structure_factor               :     1        0.19s   0.000%  ------ ||
|| augmentation_density_forces                :     1        0.32s   0.001%  ------ ||
|| basis_extract_function_from_box            :  2160        0.38s   0.001%  ------ ||
|| paw_tcore_hartree_calc_forces              :     1        0.57s   0.001%  ------ ||
|| paw_tcore_hartree_on_grid                  :     1        0.60s   0.001%  ------ ||
|| sparse_spam3toblacs_real_fast_B2           : 35640        0.68s   0.001%  ------ ||
|| restart_hamiltonian_write                  :     2        0.77s   0.002%  ------ ||
|| hubbard_projection_mtx                     :    59        0.88s   0.002%  ------ ||
|| paw_tcore_density                          :     1        1.71s   0.004%  ------ ||
|| paw_nlcc_calculate_forces                  :     1        1.77s   0.004%  ------ ||
|| ngwfs_initialise_from_radial               :     2        1.90s   0.004%  ------ ||
|| paw_sphere_density_on_grid                 :     1        2.00s   0.004%  ------ ||
|| nonsc_forces_ngwfs_calc                    :     1        2.17s   0.005%  ------ ||
|| sparse_init                                :     1        2.24s   0.005%  ------ ||
|| paw_dataset_init                           :     2        2.30s   0.005%  ------ ||
|| hubbard_ham_matrix                         :   218        9.20s   0.020%  ------ ||
|| paw_species_calc_proj_prec_mat             :     1        9.22s   0.020%  ------ ||
|| hubbard_projector_ham                      :   217        9.95s   0.021%  ------ ||
|| restart_kernel_write                       :    29       10.04s   0.022%  ------ ||
|| sparse_embed_array_hotelling_invert        :    57       10.24s   0.022%  ------ ||
|| hubbard_calculate_forces                   :     1       12.56s   0.027%  ------ ||
|| integrals_grad_spam3                       :     2       14.63s   0.032%  ------ ||
|| hubbard_projector_update                   :     1       18.43s   0.040%  ------ ||
|| projectors_func_grad_ovlp_box_spam3        :     3       21.12s   0.046%  ------ ||
|| energy_and_force_init_cell                 :     1       21.74s   0.047%  ------ ||
|| aug_nl_calculate_forces                    :     1       22.84s   0.049%  ------ ||
|| fourier_filter_cell                        :   490       23.88s   0.052% 363.867 ||
|| sparse_spam3toblacs_real_fast_B1           : 35640       24.23s   0.052%  ------ ||
|| sparse_spam3toblacs_real_fast              :   198       26.46s   0.057%  ------ ||
|| hubbard_energy_total                       :   483       27.83s   0.060%  ------ ||
|| fourier_apply_box_pair                     :  2765       31.03s   0.067%  6.258k ||
|| basis_copy_function_to_box                 : 29724       33.40s   0.072%  ------ ||
|| hartree_on_grid_single                     :   470       33.53s   0.072%  ------ ||
|| ngwf_gradient_coeffs                       :    27       36.61s   0.079%  ------ ||
|| sparse_blacstospam3_real_fast              :   212       42.73s   0.092%  ------ ||
|| hamiltonian_energy_components              :     1       43.04s   0.093%  ------ ||
|| sparse_trace                               : 14784       43.05s   0.093%  ------ ||
|| fourier_interpolate_cell                   :   942       52.96s   0.114% 315.422 ||
|| eigenstates_calculate                      :     1       60.83s   0.131%  ------ ||
|| dense_eigensolve                           :    96       66.21s   0.143%  ------ ||
|| density_init_guess_real                    :     2       81.59s   0.176%  ------ ||
|| kernel_purify                              :   645       83.78s   0.181%  ------ ||
|| edft_diag_ngwf_ham                         :    94       89.87s   0.194%  ------ ||
|| kernel_fix                                 :   200       93.36s   0.202%  ------ ||
|| lnv_gradient_norm                          :   200      103.57s   0.224%  ------ ||
|| forces_calculate                           :     1      121.51s   0.262%  ------ ||
|| augmentation_screen_dij_spam3              :   469      137.34s   0.297%  ------ ||
|| edft_apply_smearing_operator               :    47      143.67s   0.310%  ------ ||
|| fourier_apply_cell_backward                :  4231      160.38s   0.346% 420.844 ||
|| paw_dij_xc                                 :   512      161.09s   0.348%  ------ ||
|| aug_nonlocal_mat_spam3_embed_array         :   484      176.19s   0.380%  ------ ||
|| fourier_apply_cell_forward                 :  4231      217.80s   0.470% 309.887 ||
|| fourier_filter                             :  5614      240.70s   0.520%  ------ ||
|| cell_grid_deposit_box_real                 : 25031      251.05s   0.542%  ------ ||
|| projectors_init_fftbox_recip               :   445      251.60s   0.543%  ------ ||
|| function_ops_brappd_ketppd_spam3           :   116      288.33s   0.623%  ------ ||
|| restart_ngwfs_tightbox_output              :    26      309.87s   0.669%  ------ ||
|| aug_density_on_grid_spam3                  :   471      349.92s   0.756%  ------ ||
|| fourier_interpolate                        :  5614      351.20s   0.758%  ------ ||
|| cell_grid_extract_box_real                 : 15467      352.55s   0.761%  ------ ||
|| xc_energy_potential                        :   470      401.66s   0.867%  ------ ||
|| projectors_func_ovlp_box_spam3             :   117      499.05s   1.078%  ------ ||
|| sparse_product                             : 27309      550.38s   1.189%  ------ ||
|| integrals_kinetic_spam3                    :    57      690.38s   1.491%  ------ ||
|| properties_calculate                       :     1      701.45s   1.515%  ------ ||
|| basis_dot_function_with_box                : 16.93M    1625.00s   3.509%  ------ ||
|| density_fftbox_deposit_to_cell             : 19782     1733.07s   3.743%  ------ ||
|| projectors_gradient_batch                  :   216     2220.10s   4.794%  ------ ||
|| potential_apply_to_ngwf_batch              :   872     2700.92s   5.833%  ------ ||
|| edft_calculate                             :     1     2758.68s   5.957%  ------ ||
|| fourier_apply_box                          : 87450     3243.87s   7.005%  6.847k ||
|| fourier_interpolate_product                : 18840     3489.93s   7.536%  ------ ||
|| density_fftbox_interpolate_multiply        : 19782     3605.37s   7.786%  ------ ||
|| basis_add_function_to_box                  : 40.48M    4110.39s   8.876%  ------ ||
|| projectors_grad_precond_batch              :   108     5217.54s  11.267%  ------ ||
|| integrals_locpot_mat_els_batch             :   872     5344.11s  11.540%  ------ ||
|| density_batch_interp_deposit               :  1884     7666.81s  16.556%  ------ ||
|| integrals_locpot_dbl_grid                  :   436     8094.23s  17.479%  ------ ||
|| ngwf_gradient_build_batch                  :   108     8611.71s  18.597%  ------ ||
|| density_batch_row_sums                     :  1884    10416.23s  22.494%  ------ ||
|| ngwf_gradient_batch                        :   108    13455.05s  29.056%  ------ ||
|| ngwf_gradient_lnv                          :    27    14578.07s  31.481%  ------ ||
|| density_on_dbl_grid                        :   942    18516.47s  39.986%  ------ ||
|| hamiltonian_lhxc_calculate                 :   467    19580.49s  42.284%  ------ ||
|| lnv_denskernel_optimise_cg                 :    27    24338.54s  52.559%  ------ ||
|| ngwf_cg_optimise                           :     1    42504.44s  91.788%  ------ ||
|| energy_and_forces                          :     1    46283.61s  99.949%  ------ ||
|| total_time                                 :     1    46307.43s 100.000%  ------ ||
======================================================================================
Overhead of generating timer report: 
- 0 ms averaging over threads,
- 16 ms ensuring consistency across MPI ranks,
- 2 ms printing in order.

Job completed: 31-05-2025 23:01 (+0100)

onetep_launcher: ONETEP seems to have finished correctly (zero exit code).
                 Brought to you by PID 44197 on nid001476.
