==================================================================================
It's Wed 30 Oct 2024 03:50:24 PM GMT.
*** Starting onetep_launcher (node nid001020, PIDs 149848 149849 149850 149851 149852 149853 149854)...
    - ONETEP arguments: Cr2I6_bilayer_HT_AFM_FM_SP.dat
    - Current directory: /mnt/lustre/a2fs-work3/work/e89/e89/phsmea/CrI3_onetep_U/U_2.97/HT_AFM/HT_AFM_FM/sp-ngwfs
    - Launcher executable directory: /mnt/lustre/a2fs-work3/work/e89/e89/phsmea/CrI3_onetep_U/U_2.97/HT_AFM/HT_AFM_FM/sp-ngwfs
    - (-e) ONETEP executable specified through command-line: /work/e89/e89/phsmea/onetep.archer2_2024_cray
      ... trying /work/e89/e89/phsmea/onetep.archer2_2024_cray
          -> looks OK
*** Setting up environment...
    - (-s) Process stack size: unlimited
    - (-t) OMP_NUM_THREADS: 16
    - (-o) OMP_STACKSIZE: 64M
    - (-c) Maximum core file size: 2048000
    - (-d) decfort_dump_flag: n
    - (-m) I_MPI_OFA_TRANSLATION_CACHE: 0
    - (-m) I_MPI_DAPL_TRANSLATION_CACHE: 0
    - (-m) I_MPI_DAPL_UD_TRANSLATION_CACHE: 0
*** Starting ONETEP...
    - /work/e89/e89/phsmea/onetep.archer2_2024_cray Cr2I6_bilayer_HT_AFM_FM_SP.dat
=================================================================================
_________________________________________________________________________________
 +---------------------------------------------------------------+
 |                                                               |
 |        ####### #     # ####### ####### ####### ######         |
 |        #     # ##    # #          #    #       #     #        |
 |        #     # # #   # #          #    #       #     #        |
 |        #     # #  #  # #####      #    #####   ######         |
 |        #     # #   # # #          #    #       #              |
 |        #     # #    ## #          #    #       #              |
 |        ####### #     # #######    #    ####### #              |
 |                                                               |
 |        Linear-Scaling Ab Initio Total Energy Program          |
 |                                                               |
 |          Release for academic collaborators of ODG            |
 |                                             Version 7.3.0     |
 | Remote: git@github.com:Miesaz/onetep_mea.git                  |
 | Local branch: master                                          |
 | Commit ID: 4af45e89288c8df5499704252eec3e032ee3d0c8           |
 | Date: Tue Aug 6 11:28:44 2024 +0100                           |
 | Working tree clean                                            |
 |                                                               |
 +---------------------------------------------------------------+
 |                                                               |
 |  Authors:                                                     |
 |  Jacek Dziedzic, Peter D. Haynes, Nicholas D. M. Hine,        |
 |  Arash A. Mostofi, Mike C. Payne and Chris-Kriton Skylaris    |
 |                                                               |
 |  Contributors:                                                |
 |  J. Aarons, L. Andrinopoulos, P. W. Avraam, R. A. Bell,       |
 |  A. Bhandari, G. A. Bramley, R. J. Charlton, S. J. Clark,     |
 |  R. J. Clements, G. C. Constantinescu, F. Corsetti,           |
 |  N. Corsini, O. Dieguez, S. M. M. Dubois, K. K. B. Duff,      |
 |  J. M. Escartin, M. Escobar Azor, A. Greco,                   |
 |  H. Helal, Q. O. Hill, L. P. Lee, J.-H. Li,                   |
 |  T. Li, E. B. Linscott, G. Moynihan, D. D. O`Regan,           |
 |  O. K. Okan, E. Parkinson, M. J. S. Phipps,                   |
 |  C. J. Pickard, J. C. A. Prentice, M. I. J. Probert,          |
 |  L. E. Ratcliff, M. Robinson, A. Ruiz Serrano,                |
 |  M. dos Santos Dias, J. S. Spencer, E. W. Tait,               |
 |  G. Teobaldi, D. Turban, V. Vitale, K. A. Wilkinson,          |
 |  C. Weber, J. C. Womack, Chengcheng Xiao, N. Yeung,           |
 |  and T. J. Zuehlsdorff.                                       |
 |                                                               |
 |                                   Copyright (c) 2004-2024     |
 |                                                               |
 |  Please cite:                                                 |
 |  "The ONETEP linear-scaling density functional theory program"|
 |   J. Chem. Phys. 152(17) 174111 (2020)                        |
 |                                                               |
 |          in all publications arising from your use of ONETEP. |
 |                                                               |
 +---------------------------------------------------------------+
 |                                                               |
 |   ONETEP is based on developments described in the following  |
 |   publications:                                               |
 |                                                               |
 |  "Nonorthogonal generalized Wannier function pseudopotential  |
 |   plane-wave method".                                         |
 |   C.-K. Skylaris, A. A. Mostofi, P. D. Haynes, O. Dieguez,    |
 |   M. C. Payne.                                                |
 |   Phys. Rev. B 66 035119 (2002).                              |
 |                                                               |
 |  "Preconditioned iterative minimization for linear-scaling    |
 |   electronic structure calculations".                         |
 |   A. A. Mostofi, P. D. Haynes, C.-K. Skylaris, M. C. Payne.   |
 |   J. Chem. Phys. 119(17), pp.8842-8848 (2003).                |
 |                                                               |
 |  "Total-energy calculations on a real space grid with         |
 |   localized functions and a plane-wave basis".                |
 |   A. A. Mostofi, C.-K. Skylaris, P. D. Haynes, M. C. Payne.   |
 |   Comput. Phys. Commun. 147, pp.788-802 (2002).               |
 |                                                               |
 |  "Accurate kinetic energy evaluation in electronic structure  |
 |   calculations with localized functions on real space grids"  |
 |   C.-K. Skylaris, A. A. Mostofi, P. D. Haynes, C. J. Pickard, |
 |   M. C. Payne.                                                |
 |   Comput. Phys. Commun. 140, pp.315-322 (2001).               |
 |                                                               |
 |  "Accurate ionic forces and geometry optimization in linear-  |
 |   scaling density-functional theory with local orbitals"      |
 |   N. D. M. Hine, M. Robinson, P. D. Haynes, C.-K. Skylaris,   |
 |   M. C. Payne, and A. A. Mostofi.                             |
 |   Phys. Rev. B 83 195102 (2011).                              |
 |                                                               |
 +---------------------------------------------------------------+

Job started: 30-10-2024 15:50 (+0000)
 
Reading parameters from file "Cr2I6_bilayer_HT_AFM_FM_SP.dat" ...... done

If your calculation crashes here, before "Checking processes and threads..."
is displayed, then your stack size is insufficient.
If so, use "ulimit -s unlimited" at runtime.
You can disable this check with "check_stack_size F".

Checking processes and threads...
      Default threads: 16
   Running with 175 MPI processes.
   There are 7 MPI processes running on the same node as the root process.
   Each MPI process is using: 
               1 threads for simulation cell FFTs.
               1 threads for threaded FFT box operations.
              16 threads for loops over batched FFT box operations.
              16 threads in other parallel regions.
   MPI Interface: S1 (use mpi_f08) (-DMPI -DUSE_MPI_F08).
   MPI_ASYNC_PROTECTS_NONBLOCKING: Yes. MPI_SUBARRAYS_SUPPORTED: Yes.
   FFTW Interface: OMP-capable and MODERN. (-DUSE_MODERN_FFTW specified).
   GPU Interface: None.
   GPU FFT Backend: None.
... done

Basic input checks...... done

Reading geometry and species blocks from file "Cr2I6_bilayer_HT_AFM_FM_SP.dat" ...... done


--------------------------------------------------------------------------------
---------------------------------- INPUT FILE ----------------------------------
--------------------------------------------------------------------------------

charge : 0                                                                      
cutoff_energy : 1000 eV                                                         
do_properties : T                                                               
edft : F                                                                        
edft_init_maxit : 5                                                             
elec_energy_tol : 7e-05 Ha                                                      
fine_grid_scale : 4                                                             
forces_output_detail : VERBOSE                                                  
maxit_ngwf_cg : 100                                                             
ngwf_threshold_orig : 7e-06                                                     
ngwfs_spin_polarized : T                                                        
output_detail : NORMAL                                                          
paw : T                                                                         
read_denskern : F                                                               
read_hamiltonian : F                                                            
read_tightbox_ngwfs : F                                                         
spin : 432                                                                      
spin_polarized : T                                                              
task : SinglePoint                                                              
write_denskern : T                                                              
write_forces : T                                                                
write_hamiltonian : T                                                           
write_tightbox_ngwfs : T                                                        
xc_functional : PBE                                                             
%BLOCK LATTICE_CART                                                             
ang                                                                             
41.261892132       0.000000000000000        0.000000000000000                   
-20.630946066       35.733846792             0.000000000000000                  
0.000000000000000   0.0000000000000000       27.507928088                       
%ENDBLOCK LATTICE_CART                                                          
%BLOCK POSITIONS_ABS                                                            
ang                                                                             
Cr       5.73012301       1.98615267      15.61475195                           
Cr       2.29163200       3.96948846      15.61475241                           
I        6.71804295      -0.00001318      14.06395847                           
I        3.51661508       2.12334657      14.07089707                           
I        0.07814689       3.83230774      14.07089707                           
I        4.74445508      -0.00001140      17.15723785                           
I        4.50489604       3.83201918      17.15707434                           
I        1.06642478       2.12363336      17.15707434                           
Cr       3.43917878       1.98613277       9.03123330                           
Cr       0.00068777       3.96950836       9.03123376                           
I        4.42486276      -0.00001318       7.48874545                           
I        1.22590088       2.12363241       7.48890841                           
I       -2.21256731       3.83202190       7.48890841                           
I        2.45126709      -0.00001140      10.58202506                           
I        2.21418512       3.83230199      10.57507890                           
I       -1.22428614       2.12335055      10.57507890                           
Cr       2.29163200       7.94179381      15.61475195                           
Cr      -1.14685901       9.92512959      15.61475241                           
I        3.27955194       5.95562795      14.06395847                           
I        0.07812407       8.07898770      14.07089707                           
I       -3.36034412       9.78794887      14.07089707                           
I        1.30596407       5.95562973      17.15723785                           
I        1.06640503       9.78766031      17.15707434                           
I       -2.37206623       8.07927449      17.15707434                           
Cr       0.00068777       7.94177390       9.03123330                           
Cr      -3.43780324       9.92514949       9.03123376                           
I        0.98637175       5.95562795       7.48874545                           
I       -2.21259013       8.07927354       7.48890841                           
I       -5.65105832       9.78766304       7.48890841                           
I       -0.98722392       5.95562973      10.58202506                           
I       -1.22430589       9.78794313      10.57507890                           
I       -4.66277715       8.07899168      10.57507890                           
Cr      -1.14685901      13.89743494      15.61475195                           
Cr      -4.58535002      15.88077072      15.61475241                           
I       -0.15893907      11.91126908      14.06395847                           
I       -3.36036694      14.03462883      14.07089707                           
I       -6.79883513      15.74359001      14.07089707                           
I       -2.13252694      11.91127086      17.15723785                           
I       -2.37208598      15.74330145      17.15707434                           
I       -5.81055724      14.03491562      17.15707434                           
Cr      -3.43780324      13.89741504       9.03123330                           
Cr      -6.87629425      15.88079062       9.03123376                           
I       -2.45211926      11.91126908       7.48874545                           
I       -5.65108114      14.03491467       7.48890841                           
I       -9.08954933      15.74330417       7.48890841                           
I       -4.42571493      11.91127086      10.58202506                           
I       -4.66279691      15.74358426      10.57507890                           
I       -8.10126817      14.03463281      10.57507890                           
Cr      -4.58535002      19.85307607      15.61475195                           
Cr      -8.02384103      21.83641185      15.61475241                           
I       -3.59743008      17.86691022      14.06395847                           
I       -6.79885795      19.99026996      14.07089707                           
I      -10.23732614      21.69923114      14.07089707                           
I       -5.57101795      17.86691200      17.15723785                           
I       -5.81057699      21.69894258      17.15707434                           
I       -9.24904825      19.99055675      17.15707434                           
Cr      -6.87629425      19.85305617       9.03123330                           
Cr     -10.31478526      21.83643175       9.03123376                           
I       -5.89061027      17.86691022       7.48874545                           
I       -9.08957216      19.99055580       7.48890841                           
I      -12.52804035      21.69894530       7.48890841                           
I       -7.86420594      17.86691200      10.58202506                           
I       -8.10128792      21.69922539      10.57507890                           
I      -11.53975918      19.99027394      10.57507890                           
Cr      -8.02384103      25.80871720      15.61475195                           
Cr     -11.46233204      27.79205298      15.61475241                           
I       -7.03592109      23.82255135      14.06395847                           
I      -10.23734897      25.94591110      14.07089707                           
I      -13.67581716      27.65487227      14.07089707                           
I       -9.00950896      23.82255313      17.15723785                           
I       -9.24906800      27.65458371      17.15707434                           
I      -12.68753926      25.94619789      17.15707434                           
Cr     -10.31478526      25.80869730       9.03123330                           
Cr     -13.75327627      27.79207289       9.03123376                           
I       -9.32910128      23.82255135       7.48874545                           
I      -12.52806317      25.94619693       7.48890841                           
I      -15.96653136      27.65458643       7.48890841                           
I      -11.30269695      23.82255313      10.58202506                           
I      -11.53977893      27.65486652      10.57507890                           
I      -14.97825019      25.94591507      10.57507890                           
Cr     -11.46233205      31.76435833      15.61475195                           
Cr     -14.90082306      33.74769412      15.61475241                           
I      -10.47441210      29.77819248      14.06395847                           
I      -13.67583998      31.90155223      14.07089707                           
I      -17.11430817      33.61051340      14.07089707                           
I      -12.44799997      29.77819426      17.15723785                           
I      -12.68755901      33.61022484      17.15707434                           
I      -16.12603027      31.90183902      17.15707434                           
Cr     -13.75327627      31.76433843       9.03123330                           
Cr     -17.19176728      33.74771402       9.03123376                           
I      -12.76759229      29.77819248       7.48874545                           
I      -15.96655418      31.90183807       7.48890841                           
I      -19.40502237      33.61022756       7.48890841                           
I      -14.74118796      29.77819426      10.58202506                           
I      -14.97826994      33.61050765      10.57507890                           
I      -18.41674120      31.90155621      10.57507890                           
Cr      12.60710503       1.98615267      15.61475195                           
Cr       9.16861402       3.96948846      15.61475241                           
I       13.59502497      -0.00001318      14.06395847                           
I       10.39359710       2.12334657      14.07089707                           
I        6.95512891       3.83230774      14.07089707                           
I       11.62143710      -0.00001140      17.15723785                           
I       11.38187806       3.83201918      17.15707434                           
I        7.94340680       2.12363336      17.15707434                           
Cr      10.31616080       1.98613277       9.03123330                           
Cr       6.87766979       3.96950836       9.03123376                           
I       11.30184479      -0.00001318       7.48874545                           
I        8.10288290       2.12363241       7.48890841                           
I        4.66441471       3.83202190       7.48890841                           
I        9.32824912      -0.00001140      10.58202506                           
I        9.09116714       3.83230199      10.57507890                           
I        5.65269588       2.12335055      10.57507890                           
Cr       9.16861402       7.94179381      15.61475195                           
Cr       5.73012301       9.92512959      15.61475241                           
I       10.15653396       5.95562795      14.06395847                           
I        6.95510609       8.07898770      14.07089707                           
I        3.51663790       9.78794887      14.07089707                           
I        8.18294609       5.95562973      17.15723785                           
I        7.94338705       9.78766031      17.15707434                           
I        4.50491579       8.07927449      17.15707434                           
Cr       6.87766979       7.94177390       9.03123330                           
Cr       3.43917878       9.92514949       9.03123376                           
I        7.86335378       5.95562795       7.48874545                           
I        4.66439189       8.07927354       7.48890841                           
I        1.22592370       9.78766304       7.48890841                           
I        5.88975810       5.95562973      10.58202506                           
I        5.65267613       9.78794313      10.57507890                           
I        2.21420487       8.07899168      10.57507890                           
Cr       5.73012301      13.89743494      15.61475195                           
Cr       2.29163200      15.88077072      15.61475241                           
I        6.71804295      11.91126908      14.06395847                           
I        3.51661508      14.03462883      14.07089707                           
I        0.07814689      15.74359001      14.07089707                           
I        4.74445508      11.91127086      17.15723785                           
I        4.50489604      15.74330145      17.15707434                           
I        1.06642478      14.03491562      17.15707434                           
Cr       3.43917878      13.89741504       9.03123330                           
Cr       0.00068777      15.88079062       9.03123376                           
I        4.42486276      11.91126908       7.48874545                           
I        1.22590088      14.03491467       7.48890841                           
I       -2.21256731      15.74330417       7.48890841                           
I        2.45126709      11.91127086      10.58202506                           
I        2.21418512      15.74358426      10.57507890                           
I       -1.22428614      14.03463281      10.57507890                           
Cr       2.29163200      19.85307607      15.61475195                           
Cr      -1.14685901      21.83641185      15.61475241                           
I        3.27955194      17.86691022      14.06395847                           
I        0.07812407      19.99026996      14.07089707                           
I       -3.36034412      21.69923114      14.07089707                           
I        1.30596407      17.86691200      17.15723785                           
I        1.06640503      21.69894258      17.15707434                           
I       -2.37206623      19.99055675      17.15707434                           
Cr       0.00068777      19.85305617       9.03123330                           
Cr      -3.43780324      21.83643175       9.03123376                           
I        0.98637175      17.86691022       7.48874545                           
I       -2.21259013      19.99055580       7.48890841                           
I       -5.65105832      21.69894530       7.48890841                           
I       -0.98722392      17.86691200      10.58202506                           
I       -1.22430589      21.69922539      10.57507890                           
I       -4.66277715      19.99027394      10.57507890                           
Cr      -1.14685901      25.80871720      15.61475195                           
Cr      -4.58535002      27.79205298      15.61475241                           
I       -0.15893907      23.82255135      14.06395847                           
I       -3.36036694      25.94591110      14.07089707                           
I       -6.79883513      27.65487227      14.07089707                           
I       -2.13252694      23.82255313      17.15723785                           
I       -2.37208598      27.65458371      17.15707434                           
I       -5.81055724      25.94619789      17.15707434                           
Cr      -3.43780324      25.80869730       9.03123330                           
Cr      -6.87629425      27.79207289       9.03123376                           
I       -2.45211926      23.82255135       7.48874545                           
I       -5.65108114      25.94619693       7.48890841                           
I       -9.08954933      27.65458643       7.48890841                           
I       -4.42571493      23.82255313      10.58202506                           
I       -4.66279691      27.65486652      10.57507890                           
I       -8.10126817      25.94591507      10.57507890                           
Cr      -4.58535002      31.76435833      15.61475195                           
Cr      -8.02384103      33.74769412      15.61475241                           
I       -3.59743008      29.77819248      14.06395847                           
I       -6.79885795      31.90155223      14.07089707                           
I      -10.23732614      33.61051340      14.07089707                           
I       -5.57101795      29.77819426      17.15723785                           
I       -5.81057699      33.61022484      17.15707434                           
I       -9.24904825      31.90183902      17.15707434                           
Cr      -6.87629425      31.76433843       9.03123330                           
Cr     -10.31478526      33.74771402       9.03123376                           
I       -5.89061027      29.77819248       7.48874545                           
I       -9.08957216      31.90183807       7.48890841                           
I      -12.52804035      33.61022756       7.48890841                           
I       -7.86420594      29.77819426      10.58202506                           
I       -8.10128792      33.61050765      10.57507890                           
I      -11.53975918      31.90155621      10.57507890                           
Cr      19.48408705       1.98615267      15.61475195                           
Cr      16.04559604       3.96948846      15.61475241                           
I       20.47200700      -0.00001318      14.06395847                           
I       17.27057912       2.12334657      14.07089707                           
I       13.83211093       3.83230774      14.07089707                           
I       18.49841912      -0.00001140      17.15723785                           
I       18.25886009       3.83201918      17.15707434                           
I       14.82038883       2.12363336      17.15707434                           
Cr      17.19314283       1.98613277       9.03123330                           
Cr      13.75465182       3.96950836       9.03123376                           
I       18.17882681      -0.00001318       7.48874545                           
I       14.97986492       2.12363241       7.48890841                           
I       11.54139673       3.83202190       7.48890841                           
I       16.20523114      -0.00001140      10.58202506                           
I       15.96814916       3.83230199      10.57507890                           
I       12.52967790       2.12335055      10.57507890                           
Cr      16.04559604       7.94179381      15.61475195                           
Cr      12.60710503       9.92512959      15.61475241                           
I       17.03351599       5.95562795      14.06395847                           
I       13.83208811       8.07898770      14.07089707                           
I       10.39361992       9.78794887      14.07089707                           
I       15.05992811       5.95562973      17.15723785                           
I       14.82036907       9.78766031      17.15707434                           
I       11.38189781       8.07927449      17.15707434                           
Cr      13.75465181       7.94177390       9.03123330                           
Cr      10.31616080       9.92514949       9.03123376                           
I       14.74033580       5.95562795       7.48874545                           
I       11.54137391       8.07927354       7.48890841                           
I        8.10290572       9.78766304       7.48890841                           
I       12.76674013       5.95562973      10.58202506                           
I       12.52965815       9.78794313      10.57507890                           
I        9.09118689       8.07899168      10.57507890                           
Cr      12.60710503      13.89743494      15.61475195                           
Cr       9.16861402      15.88077072      15.61475241                           
I       13.59502497      11.91126908      14.06395847                           
I       10.39359710      14.03462883      14.07089707                           
I        6.95512891      15.74359001      14.07089707                           
I       11.62143710      11.91127086      17.15723785                           
I       11.38187806      15.74330145      17.15707434                           
I        7.94340680      14.03491562      17.15707434                           
Cr      10.31616080      13.89741504       9.03123330                           
Cr       6.87766979      15.88079062       9.03123376                           
I       11.30184479      11.91126908       7.48874545                           
I        8.10288290      14.03491467       7.48890841                           
I        4.66441471      15.74330417       7.48890841                           
I        9.32824912      11.91127086      10.58202506                           
I        9.09116714      15.74358426      10.57507890                           
I        5.65269588      14.03463281      10.57507890                           
Cr       9.16861402      19.85307607      15.61475195                           
Cr       5.73012301      21.83641185      15.61475241                           
I       10.15653396      17.86691022      14.06395847                           
I        6.95510609      19.99026996      14.07089707                           
I        3.51663790      21.69923114      14.07089707                           
I        8.18294609      17.86691200      17.15723785                           
I        7.94338705      21.69894258      17.15707434                           
I        4.50491579      19.99055675      17.15707434                           
Cr       6.87766979      19.85305617       9.03123330                           
Cr       3.43917878      21.83643175       9.03123376                           
I        7.86335378      17.86691022       7.48874545                           
I        4.66439189      19.99055580       7.48890841                           
I        1.22592370      21.69894530       7.48890841                           
I        5.88975810      17.86691200      10.58202506                           
I        5.65267613      21.69922539      10.57507890                           
I        2.21420487      19.99027394      10.57507890                           
Cr       5.73012301      25.80871720      15.61475195                           
Cr       2.29163200      27.79205298      15.61475241                           
I        6.71804295      23.82255135      14.06395847                           
I        3.51661508      25.94591110      14.07089707                           
I        0.07814689      27.65487227      14.07089707                           
I        4.74445508      23.82255313      17.15723785                           
I        4.50489604      27.65458371      17.15707434                           
I        1.06642478      25.94619789      17.15707434                           
Cr       3.43917878      25.80869730       9.03123330                           
Cr       0.00068777      27.79207289       9.03123376                           
I        4.42486276      23.82255135       7.48874545                           
I        1.22590088      25.94619693       7.48890841                           
I       -2.21256731      27.65458643       7.48890841                           
I        2.45126709      23.82255313      10.58202506                           
I        2.21418512      27.65486652      10.57507890                           
I       -1.22428614      25.94591507      10.57507890                           
Cr       2.29163200      31.76435833      15.61475195                           
Cr      -1.14685901      33.74769412      15.61475241                           
I        3.27955194      29.77819248      14.06395847                           
I        0.07812407      31.90155223      14.07089707                           
I       -3.36034412      33.61051340      14.07089707                           
I        1.30596407      29.77819426      17.15723785                           
I        1.06640503      33.61022484      17.15707434                           
I       -2.37206623      31.90183902      17.15707434                           
Cr       0.00068777      31.76433843       9.03123330                           
Cr      -3.43780324      33.74771402       9.03123376                           
I        0.98637175      29.77819248       7.48874545                           
I       -2.21259013      31.90183807       7.48890841                           
I       -5.65105832      33.61022756       7.48890841                           
I       -0.98722392      29.77819426      10.58202506                           
I       -1.22430589      33.61050765      10.57507890                           
I       -4.66277715      31.90155621      10.57507890                           
Cr      26.36106908       1.98615267      15.61475195                           
Cr      22.92257807       3.96948846      15.61475241                           
I       27.34898902      -0.00001318      14.06395847                           
I       24.14756114       2.12334657      14.07089707                           
I       20.70909295       3.83230774      14.07089707                           
I       25.37540115      -0.00001140      17.15723785                           
I       25.13584211       3.83201918      17.15707434                           
I       21.69737085       2.12363336      17.15707434                           
Cr      24.07012485       1.98613277       9.03123330                           
Cr      20.63163384       3.96950836       9.03123376                           
I       25.05580883      -0.00001318       7.48874545                           
I       21.85684694       2.12363241       7.48890841                           
I       18.41837875       3.83202190       7.48890841                           
I       23.08221316      -0.00001140      10.58202506                           
I       22.84513118       3.83230199      10.57507890                           
I       19.40665992       2.12335055      10.57507890                           
Cr      22.92257806       7.94179381      15.61475195                           
Cr      19.48408705       9.92512959      15.61475241                           
I       23.91049801       5.95562795      14.06395847                           
I       20.70907013       8.07898770      14.07089707                           
I       17.27060194       9.78794887      14.07089707                           
I       21.93691014       5.95562973      17.15723785                           
I       21.69735110       9.78766031      17.15707434                           
I       18.25887984       8.07927449      17.15707434                           
Cr      20.63163384       7.94177390       9.03123330                           
Cr      17.19314283       9.92514949       9.03123376                           
I       21.61731782       5.95562795       7.48874545                           
I       18.41835593       8.07927354       7.48890841                           
I       14.97988774       9.78766304       7.48890841                           
I       19.64372215       5.95562973      10.58202506                           
I       19.40664017       9.78794313      10.57507890                           
I       15.96816891       8.07899168      10.57507890                           
Cr      19.48408705      13.89743494      15.61475195                           
Cr      16.04559604      15.88077072      15.61475241                           
I       20.47200700      11.91126908      14.06395847                           
I       17.27057912      14.03462883      14.07089707                           
I       13.83211093      15.74359001      14.07089707                           
I       18.49841912      11.91127086      17.15723785                           
I       18.25886009      15.74330145      17.15707434                           
I       14.82038883      14.03491562      17.15707434                           
Cr      17.19314283      13.89741504       9.03123330                           
Cr      13.75465182      15.88079062       9.03123376                           
I       18.17882681      11.91126908       7.48874545                           
I       14.97986492      14.03491467       7.48890841                           
I       11.54139673      15.74330417       7.48890841                           
I       16.20523114      11.91127086      10.58202506                           
I       15.96814916      15.74358426      10.57507890                           
I       12.52967790      14.03463281      10.57507890                           
Cr      16.04559604      19.85307607      15.61475195                           
Cr      12.60710503      21.83641185      15.61475241                           
I       17.03351599      17.86691022      14.06395847                           
I       13.83208811      19.99026996      14.07089707                           
I       10.39361992      21.69923114      14.07089707                           
I       15.05992811      17.86691200      17.15723785                           
I       14.82036907      21.69894258      17.15707434                           
I       11.38189781      19.99055675      17.15707434                           
Cr      13.75465181      19.85305617       9.03123330                           
Cr      10.31616080      21.83643175       9.03123376                           
I       14.74033580      17.86691022       7.48874545                           
I       11.54137391      19.99055580       7.48890841                           
I        8.10290572      21.69894530       7.48890841                           
I       12.76674013      17.86691200      10.58202506                           
I       12.52965815      21.69922539      10.57507890                           
I        9.09118689      19.99027394      10.57507890                           
Cr      12.60710503      25.80871720      15.61475195                           
Cr       9.16861402      27.79205298      15.61475241                           
I       13.59502497      23.82255135      14.06395847                           
I       10.39359710      25.94591110      14.07089707                           
I        6.95512891      27.65487227      14.07089707                           
I       11.62143710      23.82255313      17.15723785                           
I       11.38187806      27.65458371      17.15707434                           
I        7.94340680      25.94619789      17.15707434                           
Cr      10.31616080      25.80869730       9.03123330                           
Cr       6.87766979      27.79207289       9.03123376                           
I       11.30184479      23.82255135       7.48874545                           
I        8.10288290      25.94619693       7.48890841                           
I        4.66441471      27.65458643       7.48890841                           
I        9.32824912      23.82255313      10.58202506                           
I        9.09116714      27.65486652      10.57507890                           
I        5.65269588      25.94591507      10.57507890                           
Cr       9.16861402      31.76435833      15.61475195                           
Cr       5.73012301      33.74769412      15.61475241                           
I       10.15653396      29.77819248      14.06395847                           
I        6.95510609      31.90155223      14.07089707                           
I        3.51663790      33.61051340      14.07089707                           
I        8.18294609      29.77819426      17.15723785                           
I        7.94338705      33.61022484      17.15707434                           
I        4.50491579      31.90183902      17.15707434                           
Cr       6.87766979      31.76433843       9.03123330                           
Cr       3.43917878      33.74771402       9.03123376                           
I        7.86335378      29.77819248       7.48874545                           
I        4.66439189      31.90183807       7.48890841                           
I        1.22592370      33.61022756       7.48890841                           
I        5.88975810      29.77819426      10.58202506                           
I        5.65267613      33.61050765      10.57507890                           
I        2.21420487      31.90155621      10.57507890                           
Cr      33.23805110       1.98615267      15.61475195                           
Cr      29.79956009       3.96948846      15.61475241                           
I       34.22597104      -0.00001318      14.06395847                           
I       31.02454317       2.12334657      14.07089707                           
I       27.58607498       3.83230774      14.07089707                           
I       32.25238317      -0.00001140      17.15723785                           
I       32.01282413       3.83201918      17.15707434                           
I       28.57435287       2.12363336      17.15707434                           
Cr      30.94710687       1.98613277       9.03123330                           
Cr      27.50861586       3.96950836       9.03123376                           
I       31.93279085      -0.00001318       7.48874545                           
I       28.73382897       2.12363241       7.48890841                           
I       25.29536078       3.83202190       7.48890841                           
I       29.95919518      -0.00001140      10.58202506                           
I       29.72211320       3.83230199      10.57507890                           
I       26.28364194       2.12335055      10.57507890                           
Cr      29.79956009       7.94179381      15.61475195                           
Cr      26.36106908       9.92512959      15.61475241                           
I       30.78748003       5.95562795      14.06395847                           
I       27.58605216       8.07898770      14.07089707                           
I       24.14758397       9.78794887      14.07089707                           
I       28.81389216       5.95562973      17.15723785                           
I       28.57433312       9.78766031      17.15707434                           
I       25.13586186       8.07927449      17.15707434                           
Cr      27.50861586       7.94177390       9.03123330                           
Cr      24.07012485       9.92514949       9.03123376                           
I       28.49429984       5.95562795       7.48874545                           
I       25.29533795       8.07927354       7.48890841                           
I       21.85686976       9.78766304       7.48890841                           
I       26.52070417       5.95562973      10.58202506                           
I       26.28362219       9.78794313      10.57507890                           
I       22.84515093       8.07899168      10.57507890                           
Cr      26.36106908      13.89743494      15.61475195                           
Cr      22.92257807      15.88077072      15.61475241                           
I       27.34898902      11.91126908      14.06395847                           
I       24.14756114      14.03462883      14.07089707                           
I       20.70909295      15.74359001      14.07089707                           
I       25.37540115      11.91127086      17.15723785                           
I       25.13584211      15.74330145      17.15707434                           
I       21.69737085      14.03491562      17.15707434                           
Cr      24.07012485      13.89741504       9.03123330                           
Cr      20.63163384      15.88079062       9.03123376                           
I       25.05580883      11.91126908       7.48874545                           
I       21.85684694      14.03491467       7.48890841                           
I       18.41837875      15.74330417       7.48890841                           
I       23.08221316      11.91127086      10.58202506                           
I       22.84513118      15.74358426      10.57507890                           
I       19.40665992      14.03463281      10.57507890                           
Cr      22.92257806      19.85307607      15.61475195                           
Cr      19.48408705      21.83641185      15.61475241                           
I       23.91049801      17.86691022      14.06395847                           
I       20.70907013      19.99026996      14.07089707                           
I       17.27060194      21.69923114      14.07089707                           
I       21.93691014      17.86691200      17.15723785                           
I       21.69735110      21.69894258      17.15707434                           
I       18.25887984      19.99055675      17.15707434                           
Cr      20.63163384      19.85305617       9.03123330                           
Cr      17.19314283      21.83643175       9.03123376                           
I       21.61731782      17.86691022       7.48874545                           
I       18.41835593      19.99055580       7.48890841                           
I       14.97988774      21.69894530       7.48890841                           
I       19.64372215      17.86691200      10.58202506                           
I       19.40664017      21.69922539      10.57507890                           
I       15.96816891      19.99027394      10.57507890                           
Cr      19.48408705      25.80871720      15.61475195                           
Cr      16.04559604      27.79205298      15.61475241                           
I       20.47200700      23.82255135      14.06395847                           
I       17.27057912      25.94591110      14.07089707                           
I       13.83211093      27.65487227      14.07089707                           
I       18.49841912      23.82255313      17.15723785                           
I       18.25886009      27.65458371      17.15707434                           
I       14.82038883      25.94619789      17.15707434                           
Cr      17.19314283      25.80869730       9.03123330                           
Cr      13.75465182      27.79207289       9.03123376                           
I       18.17882681      23.82255135       7.48874545                           
I       14.97986492      25.94619693       7.48890841                           
I       11.54139673      27.65458643       7.48890841                           
I       16.20523114      23.82255313      10.58202506                           
I       15.96814916      27.65486652      10.57507890                           
I       12.52967790      25.94591507      10.57507890                           
Cr      16.04559604      31.76435833      15.61475195                           
Cr      12.60710503      33.74769412      15.61475241                           
I       17.03351599      29.77819248      14.06395847                           
I       13.83208811      31.90155223      14.07089707                           
I       10.39361992      33.61051340      14.07089707                           
I       15.05992811      29.77819426      17.15723785                           
I       14.82036907      33.61022484      17.15707434                           
I       11.38189781      31.90183902      17.15707434                           
Cr      13.75465181      31.76433843       9.03123330                           
Cr      10.31616080      33.74771402       9.03123376                           
I       14.74033580      29.77819248       7.48874545                           
I       11.54137391      31.90183807       7.48890841                           
I        8.10290572      33.61022756       7.48890841                           
I       12.76674013      29.77819426      10.58202506                           
I       12.52965815      33.61050765      10.57507890                           
I        9.09118689      31.90155621      10.57507890                           
Cr      40.11503312       1.98615267      15.61475195                           
Cr      36.67654211       3.96948846      15.61475241                           
I       41.10295306      -0.00001318      14.06395847                           
I       37.90152519       2.12334657      14.07089707                           
I       34.46305700       3.83230774      14.07089707                           
I       39.12936519      -0.00001140      17.15723785                           
I       38.88980615       3.83201918      17.15707434                           
I       35.45133489       2.12363336      17.15707434                           
Cr      37.82408889       1.98613277       9.03123330                           
Cr      34.38559788       3.96950836       9.03123376                           
I       38.80977287      -0.00001318       7.48874545                           
I       35.61081099       2.12363241       7.48890841                           
I       32.17234280       3.83202190       7.48890841                           
I       36.83617720      -0.00001140      10.58202506                           
I       36.59909523       3.83230199      10.57507890                           
I       33.16062397       2.12335055      10.57507890                           
Cr      36.67654211       7.94179381      15.61475195                           
Cr      33.23805110       9.92512959      15.61475241                           
I       37.66446205       5.95562795      14.06395847                           
I       34.46303418       8.07898770      14.07089707                           
I       31.02456599       9.78794887      14.07089707                           
I       35.69087418       5.95562973      17.15723785                           
I       35.45131514       9.78766031      17.15707434                           
I       32.01284388       8.07927449      17.15707434                           
Cr      34.38559788       7.94177390       9.03123330                           
Cr      30.94710687       9.92514949       9.03123376                           
I       35.37128186       5.95562795       7.48874545                           
I       32.17231998       8.07927354       7.48890841                           
I       28.73385179       9.78766304       7.48890841                           
I       33.39768619       5.95562973      10.58202506                           
I       33.16060422       9.78794313      10.57507890                           
I       29.72213296       8.07899168      10.57507890                           
Cr      33.23805110      13.89743494      15.61475195                           
Cr      29.79956009      15.88077072      15.61475241                           
I       34.22597104      11.91126908      14.06395847                           
I       31.02454317      14.03462883      14.07089707                           
I       27.58607498      15.74359001      14.07089707                           
I       32.25238317      11.91127086      17.15723785                           
I       32.01282413      15.74330145      17.15707434                           
I       28.57435287      14.03491562      17.15707434                           
Cr      30.94710687      13.89741504       9.03123330                           
Cr      27.50861586      15.88079062       9.03123376                           
I       31.93279085      11.91126908       7.48874545                           
I       28.73382897      14.03491467       7.48890841                           
I       25.29536078      15.74330417       7.48890841                           
I       29.95919518      11.91127086      10.58202506                           
I       29.72211320      15.74358426      10.57507890                           
I       26.28364194      14.03463281      10.57507890                           
Cr      29.79956009      19.85307607      15.61475195                           
Cr      26.36106908      21.83641185      15.61475241                           
I       30.78748003      17.86691022      14.06395847                           
I       27.58605216      19.99026996      14.07089707                           
I       24.14758397      21.69923114      14.07089707                           
I       28.81389216      17.86691200      17.15723785                           
I       28.57433312      21.69894258      17.15707434                           
I       25.13586186      19.99055675      17.15707434                           
Cr      27.50861586      19.85305617       9.03123330                           
Cr      24.07012485      21.83643175       9.03123376                           
I       28.49429984      17.86691022       7.48874545                           
I       25.29533795      19.99055580       7.48890841                           
I       21.85686976      21.69894530       7.48890841                           
I       26.52070417      17.86691200      10.58202506                           
I       26.28362219      21.69922539      10.57507890                           
I       22.84515093      19.99027394      10.57507890                           
Cr      26.36106908      25.80871720      15.61475195                           
Cr      22.92257807      27.79205298      15.61475241                           
I       27.34898902      23.82255135      14.06395847                           
I       24.14756114      25.94591110      14.07089707                           
I       20.70909295      27.65487227      14.07089707                           
I       25.37540115      23.82255313      17.15723785                           
I       25.13584211      27.65458371      17.15707434                           
I       21.69737085      25.94619789      17.15707434                           
Cr      24.07012485      25.80869730       9.03123330                           
Cr      20.63163384      27.79207289       9.03123376                           
I       25.05580883      23.82255135       7.48874545                           
I       21.85684694      25.94619693       7.48890841                           
I       18.41837875      27.65458643       7.48890841                           
I       23.08221316      23.82255313      10.58202506                           
I       22.84513118      27.65486652      10.57507890                           
I       19.40665992      25.94591507      10.57507890                           
Cr      22.92257806      31.76435833      15.61475195                           
Cr      19.48408705      33.74769412      15.61475241                           
I       23.91049801      29.77819248      14.06395847                           
I       20.70907013      31.90155223      14.07089707                           
I       17.27060194      33.61051340      14.07089707                           
I       21.93691014      29.77819426      17.15723785                           
I       21.69735110      33.61022484      17.15707434                           
I       18.25887984      31.90183902      17.15707434                           
Cr      20.63163384      31.76433843       9.03123330                           
Cr      17.19314283      33.74771402       9.03123376                           
I       21.61731782      29.77819248       7.48874545                           
I       18.41835593      31.90183807       7.48890841                           
I       14.97988774      33.61022756       7.48890841                           
I       19.64372215      29.77819426      10.58202506                           
I       19.40664017      33.61050765      10.57507890                           
I       15.96816891      31.90155621      10.57507890                           
%ENDBLOCK POSITIONS_ABS                                                         
%BLOCK SPECIES                                                                  
Cr Cr 24 -1 15                                                                  
I   I  53 -1 15                                                                 
%ENDBLOCK SPECIES                                                               
%BLOCK SPECIES_ATOMIC_SET                                                       
Cr "SOLVE INIT SPIN=3"                                                          
I   "SOLVE"                                                                     
%ENDBLOCK SPECIES_ATOMIC_SET                                                    
%BLOCK HUBBARD                                                                  
Cr  2 2.97 0.0 -10.0 0.00 0.0                                                   
%ENDBLOCK HUBBARD                                                               
%BLOCK SPECIES_LDOS_GROUPS                                                      
Cr                                                                              
I                                                                               
%ENDBLOCK SPECIES_LDOS_GROUPS                                                   
%BLOCK SPECIES_POT                                                              
Cr  "../../../../Cr.PBE-paw.abinit"                                             
I   "../../../../I.PBE-paw.abinit"                                              
%ENDBLOCK SPECIES_POT                                                           

--------------------------------------------------------------------------------
-------------------------------- END INPUT FILE --------------------------------
--------------------------------------------------------------------------------


 
 ESDF WARNING(1): "charge" (esdf_physical) has no units. Assume "e".
<<<<<<<<<<<<<<<<<<<<<<<<<<<<<<<<< Full system >>>>>>>>>>>>>>>>>>>>>>>>>>>>>>>>>>
<<<<<<<<<<<<<<<<<<<<<<<<<<< PAW Dataset information >>>>>>>>>>>>>>>>>>>>>>>>>>>
File: ../../../../Cr.PBE-paw.abinit; rc = 2.11 bohr; shape type =  2; rshape = 1.80 bohr;
  Atomic number: 24;  ionic charge: 14.000000
    Partial Wave 1: l = 0
    Partial Wave 2: l = 0
    Partial Wave 3: l = 1
    Partial Wave 4: l = 1
    Partial Wave 5: l = 2
    Partial Wave 6: l = 2
  Core charge supplied for Nonlinear Core Corrections
File: ../../../../I.PBE-paw.abinit; rc = 2.30 bohr; shape type =  2; rshape = 2.11 bohr;
  Atomic number: 53;  ionic charge:  7.000000
    Partial Wave 1: l = 0
    Partial Wave 2: l = 0
    Partial Wave 3: l = 1
    Partial Wave 4: l = 1
  Core charge supplied for Nonlinear Core Corrections
<<<<<<<<<<<<<<<<<<<<<<<<<<<<<<<<<<<<<<< >>>>>>>>>>>>>>>>>>>>>>>>>>>>>>>>>>>>>>>

-------------------------- Atom counting information ---------------------------
Symbol    Natoms    Nngwfs    Nprojs
  Cr       144      1872      2592
  I        432      1728      3456
.......   ......    ......    ......
Totals:    576      3600      6048
--------------------------------------------------------------------------------

=============================== PSINC grid sizes ===============================
                      Simulation cell:  175 x 175 x 117
                              FFT-box:  175 x 175 x 117
                                  PPD:    5 x   5 x   1
Grid space d1=  0.445563862424a0 (KE cutoff=  38.26345Eh =1041.20135eV)
Grid space d2=  0.445563862400a0 (KE cutoff=  38.26345Eh =1041.20135eV)
Grid space d3=  0.444294449711a0 (KE cutoff=  38.48241Eh =1047.15957eV)
================================================================================

********************* Fourier parallelisation information **********************
       Coarse grid (whole simulation cell) dimensions:    175   175   117
          Real-space ('12') slabs/proc (min max mean):      0     1     0
         Recip-space ('23') slabs/proc (min max mean):      0     1     0
********************************************************************************

********************* Fourier parallelisation information **********************
       Double grid (whole simulation cell) dimensions:    350   350   234
          Real-space ('12') slabs/proc (min max mean):      1     2     1
         Recip-space ('23') slabs/proc (min max mean):      1     2     1
********************************************************************************

********************* Fourier parallelisation information **********************
         Fine grid (whole simulation cell) dimensions:    700   700   468
          Real-space ('12') slabs/proc (min max mean):      2     3     2
         Recip-space ('23') slabs/proc (min max mean):      2     3     2
********************************************************************************

Atom SCF Calculation for Cr : Z (AE atom) =  24 : Z (PS atom) =  14
Config String: 3s2.0 3p6.0 3d5.0 4s1.0 4p0.0 INIT SPIN=3
Orbitals (num,occ):  5     2.00 6.00 5.00 1.00 0.00
Orbitals   (num,l):  5        0    1    2    0    1
Atom SCF converged after  64 iterations to a total energy of    -87.07044631
Adjusting orbital occupancies:
Orbitals (num,spin,occ):  5  1     1.00 3.00 3.50 1.00 0.00
Orbitals   (num,spin,l):  5  1        0    1    2    0    1
Orbitals (num,spin,occ):  5  2     1.00 3.00 1.00 0.50 0.00
Orbitals   (num,spin,l):  5  2        0    1    2    0    1

Atom SCF Calculation for I  : Z (AE atom) =  53 : Z (PS atom) =   7
Config String: 5s2.0 5p5.0
Orbitals (num,occ):  2     2.00 5.00
Orbitals   (num,l):  2        0    1
Atom SCF converged after  28 iterations to a total energy of    -11.61352964

Atom SCF Calculation for Cr : Z (AE atom) =  24 : Z (PS atom) =  14
Config String: 3s2.0 3p6.0 3d5.0 4s1.0 4p0.0 INIT SPIN=3
Orbitals (num,occ):  5     2.00 6.00 5.00 1.00 0.00
Orbitals   (num,l):  5        0    1    2    0    1
Atom SCF converged after  64 iterations to a total energy of    -87.07044631

Atom SCF Calculation for I  : Z (AE atom) =  53 : Z (PS atom) =   7
Config String: 5s2.0 5p5.0
Orbitals (num,occ):  2     2.00 5.00
Orbitals   (num,l):  2        0    1
Atom SCF converged after  28 iterations to a total energy of    -11.61352964

Determining parallel strategy ...... done
Calculating Ewald energy ...            31475.177180 Hartree
Basis initialisation ...
... done

============================= Charge Augmentation ==============================
                           Aug box size:   49 x  49 x  45
================================================================================
Sparse matrix initialisation ...
 done
NGWF initialisation ... done
 done

================================= Core Density =================================
               Core den box size:  125 x 125 x 105
================================================================================
Density kernel initialisation

--------------------------- Ensemble-DFT optimisation --------------------------
Running ScaLAPACK on  175 processor(s).
With smearing scheme: FERMIDIRAC                                                                      

--------------------------------------------------------------------------------
  Iter                              Commutator    Free_energy(A=E-TS)     DeltaA
#    0                          0.005662785081  -17493.31558956526350  -1.75E+04
#    1                          0.002515441879  -17571.32054886774860  -7.80E+01
#    2                          0.000203340905  -17613.39365014790020  -4.21E+01
#    3                          0.000170712505  -17613.74817631159020  -3.55E-01
#    4                          0.000139453575  -17613.97439494665380  -2.26E-01
#    5                          0.000104217249  -17614.13304730959130  -1.59E-01
Finished EDFT density kernel iterations (   5)


Writing density kernel to file "Cr2I6_bilayer_HT_AFM_FM_SP.dkn" ... done

Writing Hamiltonian to file "Cr2I6_bilayer_HT_AFM_FM_SP.ham" ... done

Writing density kernel to file "Cr2I6_bilayer_HT_AFM_FM_SP.dkn" ... done

>>> Optimising kernel for current NGWFs:
   iter  |      energy (Eh)       | rms gradient |  commutator  |   dE (Eh)
    1        -1.761413269756E+04     1.9006E-04     1.0395E-04
    2        -1.761420067157E+04     2.0999E-04     1.0602E-04    -6.7974E-02
    3        -1.761429992414E+04     2.2637E-04     1.1291E-04    -9.9253E-02
    4        -1.761437399187E+04     1.4267E-04     7.1830E-05    -7.4068E-02
    5        -1.761440588216E+04     8.6829E-05     4.4046E-05    -3.1890E-02
Finished density kernel iterations (   5)

Writing density kernel to file "Cr2I6_bilayer_HT_AFM_FM_SP.dkn" ... done


>>> Density kernel optimised for the current NGWF basis:
     ~~~~~~~~~~~~~~~~~~~~~~~~~~~~~~~~~~~~~~~~~~~~~~~~~~~~~~~~~~~
     Total energy                =  -1.76144058821587E+04  Eh
     Estimated bandgap (UP spin) =   3.6310E-02  Eh
     Estimated bandgap (DN spin) =   1.0681E-01  Eh
     RMS occupancy error         =   4.6782E-13
     [H,K] commutator            =   4.4046E-05
     UP spin occupancy bounds    = [  0.000:  1.000]
     DN spin occupancy bounds    = [  0.000:  1.000]
     ~~~~~~~~~~~~~~~~~~~~~~~~~~~~~~~~~~~~~~~~~~~~~~~~~~~~~~~~~~~




################################################################################
########################### NGWF CG iteration  001 #############################
################################################################################

>>> Checking for convergence of NGWFs:   NOT CONVERGED
  ========================================================================
         NGWF RMS gradient =  1.0200E-04 >  7.0000E-06  | above tolerance
  ========================================================================

>>> Improving NGWFs using line search:
  ========================================================================
   Predicted total energy    =      -1.76223471169830E+04 Eh
   Predicted gain in energy  =      -7.94123482439318E+00 Eh
  ========================================================================

Writing NGWFs to file "Cr2I6_bilayer_HT_AFM_FM_SP.tightbox_ngwfs".... done

>>> Optimising kernel for current NGWFs:
   iter  |      energy (Eh)       | rms gradient |  commutator  |   dE (Eh)
    1        -1.762233211777E+04     5.4020E-04     2.7590E-04
    2        -1.762271783909E+04     2.0067E-04     1.0191E-04    -3.8572E-01
    3        -1.762275480452E+04     9.3936E-05     4.7610E-05    -3.6965E-02
    4        -1.762276781998E+04     7.5027E-05     3.7910E-05    -1.3015E-02
    5        -1.762277661412E+04     4.4128E-05     2.2521E-05    -8.7941E-03
Finished density kernel iterations (   5)

Writing density kernel to file "Cr2I6_bilayer_HT_AFM_FM_SP.dkn" ... done


>>> Density kernel optimised for the current NGWF basis:
     ~~~~~~~~~~~~~~~~~~~~~~~~~~~~~~~~~~~~~~~~~~~~~~~~~~~~~~~~~~~
     Total energy                =  -1.76227766141184E+04  Eh
     Estimated bandgap (UP spin) =   4.1493E-02  Eh
     Estimated bandgap (DN spin) =   1.1560E-01  Eh
     RMS occupancy error         =   1.1223E-09
     [H,K] commutator            =   2.2521E-05
     UP spin occupancy bounds    = [ -0.000:  1.000]
     DN spin occupancy bounds    = [ -0.000:  1.000]
     ~~~~~~~~~~~~~~~~~~~~~~~~~~~~~~~~~~~~~~~~~~~~~~~~~~~~~~~~~~~




################################################################################
########################### NGWF CG iteration  002 #############################
################################################################################

>>> Checking for convergence of NGWFs:   NOT CONVERGED
  ========================================================================
         NGWF RMS gradient =  6.9415E-05 >  7.0000E-06  | above tolerance
  Maximum change in energy =  1.4533E-02 >  7.0000E-05  | above tolerance
  ========================================================================

>>> Improving NGWFs using line search:
  ========================================================================
   Predicted total energy    =      -1.76254324802200E+04 Eh
   Predicted gain in energy  =      -2.65586610161699E+00 Eh
  ========================================================================

Writing NGWFs to file "Cr2I6_bilayer_HT_AFM_FM_SP.tightbox_ngwfs".... done

>>> Optimising kernel for current NGWFs:
   iter  |      energy (Eh)       | rms gradient |  commutator  |   dE (Eh)
    1        -1.762542165961E+04     2.0051E-04     1.0377E-04
    2        -1.762548240965E+04     5.7266E-05     2.8445E-05    -6.0750E-02
    3        -1.762548831323E+04     6.7221E-05     3.3735E-05    -5.9036E-03
    4        -1.762549686789E+04     5.9622E-05     3.0236E-05    -8.5547E-03
    5        -1.762550070197E+04     4.2802E-05     2.1337E-05    -3.8341E-03
Finished density kernel iterations (   5)

Writing density kernel to file "Cr2I6_bilayer_HT_AFM_FM_SP.dkn" ... done


>>> Density kernel optimised for the current NGWF basis:
     ~~~~~~~~~~~~~~~~~~~~~~~~~~~~~~~~~~~~~~~~~~~~~~~~~~~~~~~~~~~
     Total energy                =  -1.76255007019739E+04  Eh
     Estimated bandgap (UP spin) =   4.0259E-02  Eh
     Estimated bandgap (DN spin) =   1.1694E-01  Eh
     RMS occupancy error         =   1.5480E-09
     [H,K] commutator            =   2.1337E-05
     UP spin occupancy bounds    = [  0.000:  1.000]
     DN spin occupancy bounds    = [ -0.000:  1.000]
     ~~~~~~~~~~~~~~~~~~~~~~~~~~~~~~~~~~~~~~~~~~~~~~~~~~~~~~~~~~~




################################################################################
########################### NGWF CG iteration  003 #############################
################################################################################

>>> Checking for convergence of NGWFs:   NOT CONVERGED
  ========================================================================
         NGWF RMS gradient =  4.2565E-05 >  7.0000E-06  | above tolerance
  Maximum change in energy =  1.4533E-02 >  7.0000E-05  | above tolerance
  ========================================================================

>>> Improving NGWFs using line search:
  ========================================================================
   Predicted total energy    =      -1.76265947887978E+04 Eh
   Predicted gain in energy  =      -1.09408682391586E+00 Eh
  ========================================================================

Writing NGWFs to file "Cr2I6_bilayer_HT_AFM_FM_SP.tightbox_ngwfs".... done

>>> Optimising kernel for current NGWFs:
   iter  |      energy (Eh)       | rms gradient |  commutator  |   dE (Eh)
    1        -1.762658435233E+04     1.9746E-04     1.0086E-04
    2        -1.762662869049E+04     8.9902E-05     4.6476E-05    -4.4338E-02
    3        -1.762663550120E+04     3.4194E-05     1.7591E-05    -6.8107E-03
    4        -1.762663738704E+04     3.1090E-05     1.5711E-05    -1.8858E-03
    5        -1.762663928313E+04     2.3468E-05     1.1604E-05    -1.8961E-03
Finished density kernel iterations (   5)

Writing density kernel to file "Cr2I6_bilayer_HT_AFM_FM_SP.dkn" ... done


>>> Density kernel optimised for the current NGWF basis:
     ~~~~~~~~~~~~~~~~~~~~~~~~~~~~~~~~~~~~~~~~~~~~~~~~~~~~~~~~~~~
     Total energy                =  -1.76266392831262E+04  Eh
     Estimated bandgap (UP spin) =   4.0200E-02  Eh
     Estimated bandgap (DN spin) =   1.1791E-01  Eh
     RMS occupancy error         =   1.8692E-10
     [H,K] commutator            =   1.1604E-05
     UP spin occupancy bounds    = [ -0.000:  1.000]
     DN spin occupancy bounds    = [ -0.000:  1.000]
     ~~~~~~~~~~~~~~~~~~~~~~~~~~~~~~~~~~~~~~~~~~~~~~~~~~~~~~~~~~~




################################################################################
########################### NGWF CG iteration  004 #############################
################################################################################

>>> Checking for convergence of NGWFs:   NOT CONVERGED
  ========================================================================
         NGWF RMS gradient =  2.9586E-05 >  7.0000E-06  | above tolerance
  Maximum change in energy =  4.7293E-03 >  7.0000E-05  | above tolerance
  ========================================================================

>>> Improving NGWFs using line search:
  ========================================================================
   Predicted total energy    =      -1.76272193616585E+04 Eh
   Predicted gain in energy  =      -5.80078532337211E-01 Eh
  ========================================================================

Writing NGWFs to file "Cr2I6_bilayer_HT_AFM_FM_SP.tightbox_ngwfs".... done

>>> Optimising kernel for current NGWFs:
   iter  |      energy (Eh)       | rms gradient |  commutator  |   dE (Eh)
    1        -1.762720853730E+04     8.8750E-05     4.5489E-05
    2        -1.762721822685E+04     4.1412E-05     2.1328E-05    -9.6895E-03
    3        -1.762722021198E+04     2.3427E-05     1.1745E-05    -1.9851E-03
    4        -1.762722131516E+04     3.3986E-05     1.7017E-05    -1.1032E-03
    5        -1.762722219162E+04     2.2684E-05     1.1809E-05    -8.7647E-04
Finished density kernel iterations (   5)

Writing density kernel to file "Cr2I6_bilayer_HT_AFM_FM_SP.dkn" ... done


>>> Density kernel optimised for the current NGWF basis:
     ~~~~~~~~~~~~~~~~~~~~~~~~~~~~~~~~~~~~~~~~~~~~~~~~~~~~~~~~~~~
     Total energy                =  -1.76272221916236E+04  Eh
     Estimated bandgap (UP spin) =   3.9696E-02  Eh
     Estimated bandgap (DN spin) =   1.1813E-01  Eh
     RMS occupancy error         =   1.4461E-10
     [H,K] commutator            =   1.1809E-05
     UP spin occupancy bounds    = [  0.000:  1.000]
     DN spin occupancy bounds    = [ -0.000:  1.000]
     ~~~~~~~~~~~~~~~~~~~~~~~~~~~~~~~~~~~~~~~~~~~~~~~~~~~~~~~~~~~




################################################################################
########################### NGWF CG iteration  005 #############################
################################################################################

>>> Checking for convergence of NGWFs:   NOT CONVERGED
  ========================================================================
         NGWF RMS gradient =  2.0609E-05 >  7.0000E-06  | above tolerance
  Maximum change in energy =  1.9767E-03 >  7.0000E-05  | above tolerance
  ========================================================================

>>> Improving NGWFs using line search:
  ========================================================================
   Predicted total energy    =      -1.76273827096093E+04 Eh
   Predicted gain in energy  =      -1.60517985739716E-01 Eh
  ========================================================================

Writing NGWFs to file "Cr2I6_bilayer_HT_AFM_FM_SP.tightbox_ngwfs".... done

>>> Optimising kernel for current NGWFs:
   iter  |      energy (Eh)       | rms gradient |  commutator  |   dE (Eh)
    1        -1.762738198252E+04     1.4911E-05     7.7158E-06
    2        -1.762738231356E+04     1.5336E-05     8.1131E-06    -3.3104E-04
    3        -1.762738051780E+04     5.4543E-05     2.8896E-05     1.7958E-03
    4        -1.762738269061E+04     2.4116E-05     1.2400E-05    -2.1728E-03
    5        -1.762738378945E+04     1.5525E-05     8.1408E-06    -1.0988E-03
Finished density kernel iterations (   5)

Writing density kernel to file "Cr2I6_bilayer_HT_AFM_FM_SP.dkn" ... done


>>> Density kernel optimised for the current NGWF basis:
     ~~~~~~~~~~~~~~~~~~~~~~~~~~~~~~~~~~~~~~~~~~~~~~~~~~~~~~~~~~~
     Total energy                =  -1.76273837894513E+04  Eh
     Estimated bandgap (UP spin) =   3.9364E-02  Eh
     Estimated bandgap (DN spin) =   1.1814E-01  Eh
     RMS occupancy error         =   1.6484E-11
     [H,K] commutator            =   8.1408E-06
     UP spin occupancy bounds    = [  0.000:  1.000]
     DN spin occupancy bounds    = [  0.000:  1.000]
     ~~~~~~~~~~~~~~~~~~~~~~~~~~~~~~~~~~~~~~~~~~~~~~~~~~~~~~~~~~~




################################################################################
########################### NGWF CG iteration  006 #############################
################################################################################

>>> Checking for convergence of NGWFs:   NOT CONVERGED
  ========================================================================
         NGWF RMS gradient =  1.3819E-05 >  7.0000E-06  | above tolerance
  Maximum change in energy =  1.0120E-03 >  7.0000E-05  | above tolerance
  ========================================================================

>>> Improving NGWFs using line search:
  ========================================================================
   Predicted total energy    =      -1.76275041577313E+04 Eh
   Predicted gain in energy  =      -1.20368280022376E-01 Eh
  ========================================================================

Writing NGWFs to file "Cr2I6_bilayer_HT_AFM_FM_SP.tightbox_ngwfs".... done

>>> Optimising kernel for current NGWFs:
   iter  |      energy (Eh)       | rms gradient |  commutator  |   dE (Eh)
    1        -1.762749998284E+04     2.4457E-05     1.2361E-05
    2        -1.762750113885E+04     2.4771E-05     1.2634E-05    -1.1560E-03
    3        -1.762750180073E+04     1.0110E-05     5.1051E-06    -6.6187E-04
    4        -1.762750194217E+04     7.8766E-06     3.9095E-06    -1.4144E-04
    5        -1.762750199569E+04     6.3141E-06     3.1333E-06    -5.3530E-05
Finished density kernel iterations (   5)

Writing density kernel to file "Cr2I6_bilayer_HT_AFM_FM_SP.dkn" ... done


>>> Density kernel optimised for the current NGWF basis:
     ~~~~~~~~~~~~~~~~~~~~~~~~~~~~~~~~~~~~~~~~~~~~~~~~~~~~~~~~~~~
     Total energy                =  -1.76275019956949E+04  Eh
     Estimated bandgap (UP spin) =   3.8647E-02  Eh
     Estimated bandgap (DN spin) =   1.1709E-01  Eh
     RMS occupancy error         =   1.2028E-13
     [H,K] commutator            =   3.1333E-06
     UP spin occupancy bounds    = [  0.000:  1.000]
     DN spin occupancy bounds    = [  0.000:  1.000]
     ~~~~~~~~~~~~~~~~~~~~~~~~~~~~~~~~~~~~~~~~~~~~~~~~~~~~~~~~~~~




################################################################################
########################### NGWF CG iteration  007 #############################
################################################################################

>>> Checking for convergence of NGWFs:   NOT CONVERGED
[...]
*    I     436     -0.00322104  -0.00531153  -0.00771314 *
*    I     437     -0.00324092   0.00530824  -0.00770376 *
*    I     438     -0.00603592   0.00001579   0.01050728 *
*    I     439      0.00301534   0.00527213   0.01051490 *
*    I     440      0.00302468  -0.00526343   0.01050874 *
*    Cr    441      0.00005101  -0.00024484   0.00019617 *
*    Cr    442      0.00004633   0.00021022   0.00019542 *
*    I     443      0.00603274  -0.00001337  -0.01050602 *
*    I     444     -0.00301374  -0.00527471  -0.01051416 *
*    I     445     -0.00303005   0.00525939  -0.01050757 *
*    I     446     -0.00584519   0.00000914   0.00837663 *
*    I     447      0.00322400   0.00531081   0.00771001 *
*    I     448      0.00323367  -0.00531389   0.00770472 *
*    Cr    449     -0.00000098  -0.00019253  -0.00018967 *
*    Cr    450     -0.00005535   0.00021786  -0.00019320 *
*    I     451      0.00584578  -0.00000755  -0.00837909 *
*    I     452     -0.00322217  -0.00530899  -0.00771209 *
*    I     453     -0.00324090   0.00530970  -0.00770493 *
*    I     454     -0.00603542   0.00001838   0.01050655 *
*    I     455      0.00301545   0.00527353   0.01051527 *
*    I     456      0.00302431  -0.00526209   0.01050769 *
*    Cr    457      0.00004810  -0.00022016   0.00019400 *
*    Cr    458      0.00004835   0.00021265   0.00019272 *
*    I     459      0.00603414  -0.00001222  -0.01050733 *
*    I     460     -0.00301725  -0.00527446  -0.01051414 *
*    I     461     -0.00303051   0.00526137  -0.01050852 *
*    I     462     -0.00584575   0.00000935   0.00837626 *
*    I     463      0.00322191   0.00531013   0.00770871 *
*    I     464      0.00323342  -0.00531241   0.00770183 *
*    Cr    465     -0.00000929  -0.00018541  -0.00018943 *
*    Cr    466      0.00000517   0.00018613  -0.00019252 *
*    I     467      0.00584594  -0.00000630  -0.00837710 *
*    I     468     -0.00322006  -0.00531212  -0.00771311 *
*    I     469     -0.00323706   0.00531225  -0.00770554 *
*    I     470     -0.00603688   0.00001539   0.01050802 *
*    I     471      0.00301919   0.00527865   0.01051834 *
*    I     472      0.00302721  -0.00526594   0.01051095 *
*    Cr    473      0.00004701  -0.00022212   0.00019519 *
*    Cr    474      0.00004342   0.00021992   0.00019433 *
*    I     475      0.00603444  -0.00001083  -0.01050633 *
*    I     476     -0.00301844  -0.00527161  -0.01051439 *
*    I     477     -0.00303049   0.00526185  -0.01050578 *
*    I     478     -0.00584608   0.00001039   0.00837546 *
*    I     479      0.00321933   0.00530899   0.00771054 *
*    I     480      0.00323429  -0.00531008   0.00770250 *
*    Cr    481     -0.00006789  -0.00021338  -0.00019561 *
*    Cr    482     -0.00000171   0.00018135  -0.00019153 *
*    I     483      0.00584274  -0.00000570  -0.00837580 *
*    I     484     -0.00322153  -0.00531078  -0.00771253 *
*    I     485     -0.00323869   0.00531079  -0.00770478 *
*    I     486     -0.00603845   0.00001643   0.01050621 *
*    I     487      0.00301470   0.00526756   0.01051552 *
*    I     488      0.00302712  -0.00526510   0.01051162 *
*    Cr    489      0.00004886  -0.00021591   0.00019542 *
*    Cr    490      0.00004460   0.00022290   0.00019568 *
*    I     491      0.00603393  -0.00001346  -0.01050625 *
*    I     492     -0.00301816  -0.00527001  -0.01051466 *
*    I     493     -0.00303364   0.00526105  -0.01050741 *
*    I     494     -0.00584528   0.00001039   0.00837497 *
*    I     495      0.00321978   0.00531033   0.00770981 *
*    I     496      0.00323193  -0.00531455   0.00770245 *
*    Cr    497     -0.00004968  -0.00021861  -0.00019283 *
*    Cr    498     -0.00005655   0.00021436  -0.00019187 *
*    I     499      0.00584600  -0.00000803  -0.00837778 *
*    I     500     -0.00322066  -0.00531150  -0.00771254 *
*    I     501     -0.00323980   0.00531136  -0.00770448 *
*    I     502     -0.00603590   0.00001682   0.01050741 *
*    I     503      0.00301459   0.00526761   0.01051450 *
*    I     504      0.00302342  -0.00526208   0.01050574 *
*    Cr    505      0.00004842  -0.00020760   0.00019246 *
*    Cr    506      0.00004190   0.00022292   0.00019524 *
*    I     507      0.00603320  -0.00001130  -0.01050687 *
*    I     508     -0.00301707  -0.00527071  -0.01051527 *
*    I     509     -0.00303465   0.00526035  -0.01050810 *
*    I     510     -0.00584740   0.00001265   0.00837550 *
*    I     511      0.00321979   0.00531127   0.00771011 *
*    I     512      0.00323493  -0.00531084   0.00770187 *
*    Cr    513     -0.00005006  -0.00022394  -0.00019292 *
*    Cr    514     -0.00006160   0.00023419  -0.00019387 *
*    I     515      0.00584028  -0.00000864  -0.00837593 *
*    I     516     -0.00322019  -0.00531124  -0.00771346 *
*    I     517     -0.00324211   0.00531037  -0.00770546 *
*    I     518     -0.00603619   0.00001492   0.01050497 *
*    I     519      0.00301386   0.00526899   0.01051434 *
*    I     520      0.00302369  -0.00526264   0.01050892 *
*    Cr    521      0.00002718  -0.00019923   0.00019636 *
*    Cr    522      0.00007467   0.00022313   0.00019429 *
*    I     523      0.00603361  -0.00001058  -0.01050748 *
*    I     524     -0.00301579  -0.00527091  -0.01051624 *
*    I     525     -0.00302979   0.00526195  -0.01050789 *
*    I     526     -0.00584768   0.00001037   0.00837867 *
*    I     527      0.00322325   0.00531263   0.00771186 *
*    I     528      0.00323521  -0.00531335   0.00770315 *
*    Cr    529     -0.00005016  -0.00025046  -0.00019186 *
*    Cr    530     -0.00006442   0.00020981  -0.00019422 *
*    I     531      0.00584035  -0.00000953  -0.00837785 *
*    I     532     -0.00322118  -0.00531021  -0.00771404 *
*    I     533     -0.00324021   0.00530957  -0.00770638 *
*    I     534     -0.00603527   0.00001505   0.01050771 *
*    I     535      0.00301413   0.00526844   0.01051381 *
*    I     536      0.00302365  -0.00526495   0.01050929 *
*    Cr    537      0.00005326  -0.00024137   0.00019685 *
*    Cr    538      0.00005178   0.00021075   0.00019327 *
*    I     539      0.00603767  -0.00001170  -0.01050721 *
*    I     540     -0.00301433  -0.00527419  -0.01051493 *
*    I     541     -0.00303023   0.00526103  -0.01050655 *
*    I     542     -0.00584563   0.00000974   0.00837758 *
*    I     543      0.00322330   0.00530996   0.00771069 *
*    I     544      0.00323485  -0.00531487   0.00770323 *
*    Cr    545     -0.00005331  -0.00022838  -0.00019380 *
*    Cr    546     -0.00006771   0.00021091  -0.00019643 *
*    I     547      0.00584344  -0.00000573  -0.00837790 *
*    I     548     -0.00322471  -0.00531178  -0.00771255 *
*    I     549     -0.00323898   0.00531046  -0.00770549 *
*    I     550     -0.00603728   0.00001314   0.01050786 *
*    I     551      0.00301708   0.00527424   0.01051577 *
*    I     552      0.00302113  -0.00526387   0.01050737 *
*    Cr    553      0.00005653  -0.00022082   0.00019410 *
*    Cr    554      0.00004758   0.00021026   0.00019645 *
*    I     555      0.00603515  -0.00001169  -0.01050488 *
*    I     556     -0.00301384  -0.00527319  -0.01051524 *
*    I     557     -0.00302907   0.00526160  -0.01050708 *
*    I     558     -0.00584469   0.00001067   0.00837578 *
*    I     559      0.00322185   0.00530665   0.00771090 *
*    I     560      0.00323462  -0.00531255   0.00770089 *
*    Cr    561     -0.00005602  -0.00022365  -0.00019575 *
*    Cr    562     -0.00006740   0.00021335  -0.00019533 *
*    I     563      0.00584247  -0.00000560  -0.00837564 *
*    I     564     -0.00322572  -0.00531327  -0.00771301 *
*    I     565     -0.00324081   0.00531370  -0.00770478 *
*    I     566     -0.00603722   0.00001431   0.01050648 *
*    I     567      0.00301334   0.00527275   0.01051652 *
*    I     568      0.00302427  -0.00526153   0.01050823 *
*    Cr    569      0.00005379  -0.00021883   0.00019585 *
*    Cr    570      0.00004627   0.00021955   0.00019554 *
*    I     571      0.00603216  -0.00001496  -0.01050611 *
*    I     572     -0.00301483  -0.00527056  -0.01051406 *
*    I     573     -0.00303174   0.00525785  -0.01050726 *
*    I     574     -0.00584496   0.00000871   0.00837660 *
*    I     575      0.00322092   0.00530804   0.00770913 *
*    I     576      0.00323296  -0.00531180   0.00770216 *
*                                                        *
**********************************************************
* TOTAL:           -0.00000000   0.00000000   0.00000000 *
**********************************************************
 
 
***********************************************************
********** Summary of Forces (values in Eh/a) *************
*                                                         *
* ---------------------- Minimum ------------------------ *
* Atom:       482, |F|min =    0.00026377                 *
* Components:     Fx|min       Fy|min       Fz|min        *
*              -0.00000171   0.00018135  -0.00019153      *
*                                                         *
* ---------------------- Maximum ------------------------ *
* Atom:       471, |F|max =    0.01214969                 *
* Components:     Fx|max       Fy|max       Fz|max        *
*               0.00301919   0.00527865   0.01051834      *
*                                                         *
* ---------------- Root Mean Square Force --------------- *
*                  |F|rms =    0.00963145                 *
* Components:     Fx|rms       Fy|rms       Fz|rms        *
*               0.00370317   0.00374150   0.00806552      *
***********************************************************
 

------------------------------ TIMING INFORMATION ------------------------------
AVERAGE TIME:   14660.232s on    175 proc(s)                                    
TOTAL TIME:     14660.233s on    175 proc(s)                                    
==================== AVERAGE TIMINGS FROM ALL PROCS (CUMULATIVE) =====================
|| TAG                                         #calls     cpu time   %total  Gflops ||
|| hubbard_species_proj                       :     1        0.00s   0.000%  ------ ||
|| sw_bessel_init_cpu                         :     1        0.01s   0.000%  ------ || (1 procs only)
|| density_fftbox_interp_mult_imbal           :  5208        0.00s   0.000%  ------ ||
|| hubbard_projector_character                :     1        0.00s   0.000%  ------ ||
|| hubbard_ngwf_select                        :     1        0.00s   0.000%  ------ ||
|| ewald_calculate_forces_realspace           :     1        0.00s   0.000%  ------ ||
|| hubbard_ngwf_on_grid                       :     1        0.00s   0.000%  ------ ||
|| hash_table_free                            :    20        0.01s   0.000%  ------ ||
|| onetep.F90 final imbalance                 :     1        0.02s   0.000%  ------ ||
|| linalg_dgemv                               :    24        0.02s   0.000%  ------ ||
|| linalg_invert_sym_matrix                   :     4        0.03s   0.000%  ------ || (144 procs only)
|| hubbard_tensorial_correction               :     2        0.02s   0.000%  ------ ||
|| sparse_blacstospam3_real_fast_imbal        :    92        0.06s   0.000%  ------ ||
|| ewald_calculate_energy                     :     1        0.06s   0.000%  ------ ||
|| paw_dij_hartree                            :   138        0.07s   0.000%  ------ ||
|| ewald_calculate_forces_recipspace          :     1        0.07s   0.000%  ------ ||
|| sparse_set_to_garbage                      :   432        0.07s   0.001%  ------ ||
|| sparse_spam3toblacs_real_fast_imbal        :    78        0.09s   0.001%  ------ ||
|| onetep.F90 main loop imbalance             :     1        0.10s   0.001%  ------ ||
|| ewald_calculate_forces                     :     1        0.12s   0.001%  ------ ||
|| sw_init                                    :   247        0.13s   0.001%  ------ ||
|| basis_extract_function_from_box            :   822        0.15s   0.001%  ------ ||
|| pseudo_make_structure_factor               :     1        0.21s   0.001%  ------ ||
|| sparse_spam3toblacs_real_fast_B2           : 13650        0.28s   0.002%  ------ ||
|| augmentation_density_forces                :     1        0.35s   0.002%  ------ ||
|| paw_tcore_hartree_on_grid                  :     1        0.56s   0.004%  ------ ||
|| paw_tcore_hartree_calc_forces              :     1        0.86s   0.006%  ------ ||
|| restart_hamiltonian_write                  :     2        0.90s   0.006%  ------ ||
|| hubbard_projection_mtx                     :    22        1.27s   0.009%  ------ ||
|| paw_tcore_density                          :     1        1.66s   0.011%  ------ ||
|| paw_nlcc_calculate_forces                  :     1        1.90s   0.013%  ------ ||
|| paw_sphere_density_on_grid                 :     1        2.00s   0.014%  ------ ||
|| paw_dataset_init                           :     2        2.17s   0.015%  ------ ||
|| sparse_init                                :     1        2.44s   0.017%  ------ ||
|| hubbard_ham_matrix                         :    58        2.64s   0.018%  ------ ||
|| hubbard_projector_ham                      :    57        3.34s   0.023%  ------ ||
|| nonsc_forces_ngwfs_calc                    :     1        3.35s   0.023%  ------ ||
|| restart_kernel_write                       :    12        4.17s   0.028%  ------ ||
|| ngwfs_initialise_from_radial               :     4        4.24s   0.029%  ------ ||
|| sparse_embed_array_hotelling_invert        :    20        7.82s   0.053%  ------ ||
|| paw_species_calc_proj_prec_mat             :     1        9.23s   0.063%  ------ ||
|| fourier_filter_cell                        :   136        9.61s   0.066% 251.012 ||
|| sparse_spam3toblacs_real_fast_B1           : 13650       11.09s   0.076%  ------ ||
|| basis_copy_function_to_box                 :  9224       11.44s   0.078%  ------ ||
|| hartree_on_grid_single                     :   123       11.47s   0.078%  ------ ||
|| sparse_spam3toblacs_real_fast              :    78       12.04s   0.082%  ------ ||
|| ngwf_gradient_coeffs                       :    10       13.48s   0.092%  ------ ||
|| fourier_apply_box_pair                     :  1277       13.94s   0.095%  6.253k ||
|| fourier_interpolate_cell                   :   248       14.72s   0.100% 298.776 ||
|| hubbard_energy_total                       :   126       15.27s   0.104%  ------ ||
|| sparse_trace                               :  4462       17.96s   0.122%  ------ ||
|| sparse_blacstospam3_real_fast              :    92       20.43s   0.139%  ------ ||
|| energy_and_force_init_cell                 :     1       21.54s   0.147%  ------ ||
|| kernel_purify                              :   161       21.66s   0.148%  ------ ||
|| dense_eigensolve                           :    36       22.53s   0.154%  ------ ||
|| hubbard_calculate_forces                   :     1       24.18s   0.165%  ------ ||
|| lnv_gradient_norm                          :    50       25.87s   0.176%  ------ ||
|| integrals_grad_spam3                       :     4       26.85s   0.183%  ------ ||
|| edft_diag_ngwf_ham                         :    34       31.76s   0.217%  ------ ||
|| kernel_fix                                 :    50       36.03s   0.246%  ------ ||
|| augmentation_screen_dij_spam3              :   122       37.35s   0.255%  ------ ||
|| hubbard_projector_update                   :     1       38.80s   0.265%  ------ ||
|| projectors_func_grad_ovlp_box_spam3        :     6       42.48s   0.290%  ------ ||
|| hamiltonian_energy_components              :     1       43.14s   0.294%  ------ ||
|| aug_nl_calculate_forces                    :     1       44.36s   0.303%  ------ ||
|| paw_dij_xc                                 :   138       46.49s   0.317%  ------ ||
|| fourier_apply_cell_backward                :  1108       48.84s   0.333% 361.871 ||
|| aug_nonlocal_mat_spam3_embed_array         :   127       51.85s   0.354%  ------ ||
|| edft_apply_smearing_operator               :    17       53.36s   0.364%  ------ ||
|| eigenstates_calculate                      :     1       59.42s   0.405%  ------ ||
|| cell_grid_deposit_box_real                 :  6987       63.02s   0.430%  ------ ||
|| fourier_apply_cell_forward                 :  1108       73.84s   0.504% 239.369 ||
|| fourier_filter                             :  1652       77.53s   0.529%  ------ ||
|| density_init_guess_real                    :     2       83.28s   0.568%  ------ ||
|| aug_density_on_grid_spam3                  :   124       98.27s   0.670%  ------ ||
|| projectors_init_fftbox_recip               :   213      120.55s   0.822%  ------ ||
|| xc_energy_potential                        :   123      126.83s   0.865%  ------ ||
|| fourier_interpolate                        :  1652      138.87s   0.947%  ------ ||
|| forces_calculate                           :     1      156.10s   1.065%  ------ ||
|| restart_ngwfs_tightbox_output              :     9      161.42s   1.101%  ------ ||
|| sparse_product                             :  7982      171.48s   1.170%  ------ ||
|| function_ops_brappd_ketppd_spam3           :    84      230.18s   1.570%  ------ ||
|| density_fftbox_deposit_to_cell             :  5208      314.78s   2.147%  ------ ||
|| cell_grid_extract_box_real                 :  4243      330.76s   2.256%  ------ ||
|| projectors_func_ovlp_box_spam3             :    86      367.46s   2.507%  ------ ||
|| integrals_kinetic_spam3                    :    40      487.35s   3.324%  ------ ||
|| basis_dot_function_with_box                : 5.635M     577.93s   3.942%  ------ ||
|| potential_apply_to_ngwf_batch              :   232      760.59s   5.188%  ------ ||
|| properties_calculate                       :     1      788.68s   5.380%  ------ ||
|| projectors_gradient_batch                  :    80      808.90s   5.518%  ------ ||
|| edft_calculate                             :     1     1050.24s   7.164%  ------ ||
|| fourier_apply_box                          : 27419     1137.99s   7.762%  5.491k ||
|| fourier_interpolate_product                :  5101     1162.09s   7.927%  ------ ||
|| density_fftbox_interpolate_multiply        :  5208     1205.60s   8.224%  ------ ||
|| basis_add_function_to_box                  : 11.86M    1308.05s   8.922%  ------ ||
|| integrals_locpot_mat_els_batch             :   232     1365.50s   9.314%  ------ ||
|| projectors_grad_precond_batch              :    40     1856.63s  12.664%  ------ ||
|| density_batch_interp_deposit               :   496     2030.72s  13.852%  ------ ||
|| integrals_locpot_dbl_grid                  :   116     2136.62s  14.574%  ------ ||
|| density_batch_row_sums                     :   496     2725.49s  18.591%  ------ ||
|| ngwf_gradient_build_batch                  :    40     3062.96s  20.893%  ------ ||
|| ngwf_gradient_batch                        :    40     4536.73s  30.946%  ------ ||
|| ngwf_gradient_lnv                          :    10     4787.18s  32.654%  ------ ||
|| density_on_dbl_grid                        :   248     4891.55s  33.366%  ------ ||
|| hamiltonian_lhxc_calculate                 :   120     5070.06s  34.584%  ------ ||
|| lnv_denskernel_optimise_cg                 :    10     5831.72s  39.779%  ------ ||
|| ngwf_cg_optimise                           :     1    12391.01s  84.521%  ------ ||
|| energy_and_forces                          :     1    14636.53s  99.838%  ------ ||
|| total_time                                 :     1    14660.23s 100.000%  ------ ||
======================================================================================
Overhead of generating timer report: 
- 0 ms averaging over threads,
- 52 ms ensuring consistency across MPI ranks,
- 47 ms printing in order.

Job completed: 30-10-2024 19:54 (+0000)

onetep_launcher: ONETEP seems to have finished correctly (zero exit code).
                 Brought to you by PID 200195 on nid001000.
