==================================================================================
It's Sat 31 May 2025 11:30:29 PM BST.
*** Starting onetep_launcher (node nid004841, PIDs 225721 225722 225723 225724 225725 225726)...
    - ONETEP arguments: Cr2I6_bilayer_HT_AFM_FM_SP.dat
    - Current directory: /mnt/lustre/a2fs-work3/work/e89/e89/phsmea/CrI3_onetep_U/U_2.97/HT_AFM/HT_AFM_FM/sp-ngwfs
    - Launcher executable directory: /mnt/lustre/a2fs-work3/work/e89/e89/phsmea/CrI3_onetep_U/U_2.97/HT_AFM/HT_AFM_FM/sp-ngwfs
    - (-e) ONETEP executable specified through command-line: /work/e89/e89/phsmea/onetep.archer2_2024_cray
      ... trying /work/e89/e89/phsmea/onetep.archer2_2024_cray
          -> looks OK
*** Setting up environment...
    - (-s) Process stack size: unlimited
    - (-t) OMP_NUM_THREADS: 17
    - (-o) OMP_STACKSIZE: 64M
    - (-c) Maximum core file size: 2048000
    - (-d) decfort_dump_flag: n
    - (-m) I_MPI_OFA_TRANSLATION_CACHE: 0
    - (-m) I_MPI_DAPL_TRANSLATION_CACHE: 0
    - (-m) I_MPI_DAPL_UD_TRANSLATION_CACHE: 0
*** Starting ONETEP...
    - /work/e89/e89/phsmea/onetep.archer2_2024_cray Cr2I6_bilayer_HT_AFM_FM_SP.dat
=================================================================================
_________________________________________________________________________________
 +---------------------------------------------------------------+
 |                                                               |
 |        ####### #     # ####### ####### ####### ######         |
 |        #     # ##    # #          #    #       #     #        |
 |        #     # # #   # #          #    #       #     #        |
 |        #     # #  #  # #####      #    #####   ######         |
 |        #     # #   # # #          #    #       #              |
 |        #     # #    ## #          #    #       #              |
 |        ####### #     # #######    #    ####### #              |
 |                                                               |
 |        Linear-Scaling Ab Initio Total Energy Program          |
 |                                                               |
 |          Release for academic collaborators of ODG            |
 |                                             Version 7.3.0     |
 | Remote: git@github.com:Miesaz/onetep_mea.git                  |
 | Local branch: master                                          |
 | Commit ID: 4af45e89288c8df5499704252eec3e032ee3d0c8           |
 | Date: Tue Aug 6 11:28:44 2024 +0100                           |
 | Working tree clean                                            |
 |                                                               |
 +---------------------------------------------------------------+
 |                                                               |
 |  Authors:                                                     |
 |  Jacek Dziedzic, Peter D. Haynes, Nicholas D. M. Hine,        |
 |  Arash A. Mostofi, Mike C. Payne and Chris-Kriton Skylaris    |
 |                                                               |
 |  Contributors:                                                |
 |  J. Aarons, L. Andrinopoulos, P. W. Avraam, R. A. Bell,       |
 |  A. Bhandari, G. A. Bramley, R. J. Charlton, S. J. Clark,     |
 |  R. J. Clements, G. C. Constantinescu, F. Corsetti,           |
 |  N. Corsini, O. Dieguez, S. M. M. Dubois, K. K. B. Duff,      |
 |  J. M. Escartin, M. Escobar Azor, A. Greco,                   |
 |  H. Helal, Q. O. Hill, L. P. Lee, J.-H. Li,                   |
 |  T. Li, E. B. Linscott, G. Moynihan, D. D. O`Regan,           |
 |  O. K. Okan, E. Parkinson, M. J. S. Phipps,                   |
 |  C. J. Pickard, J. C. A. Prentice, M. I. J. Probert,          |
 |  L. E. Ratcliff, M. Robinson, A. Ruiz Serrano,                |
 |  M. dos Santos Dias, J. S. Spencer, E. W. Tait,               |
 |  G. Teobaldi, D. Turban, V. Vitale, K. A. Wilkinson,          |
 |  C. Weber, J. C. Womack, Chengcheng Xiao, N. Yeung,           |
 |  and T. J. Zuehlsdorff.                                       |
 |                                                               |
 |                                   Copyright (c) 2004-2024     |
 |                                                               |
 |  Please cite:                                                 |
 |  "The ONETEP linear-scaling density functional theory program"|
 |   J. Chem. Phys. 152(17) 174111 (2020)                        |
 |                                                               |
 |          in all publications arising from your use of ONETEP. |
 |                                                               |
 +---------------------------------------------------------------+
 |                                                               |
 |   ONETEP is based on developments described in the following  |
 |   publications:                                               |
 |                                                               |
 |  "Nonorthogonal generalized Wannier function pseudopotential  |
 |   plane-wave method".                                         |
 |   C.-K. Skylaris, A. A. Mostofi, P. D. Haynes, O. Dieguez,    |
 |   M. C. Payne.                                                |
 |   Phys. Rev. B 66 035119 (2002).                              |
 |                                                               |
 |  "Preconditioned iterative minimization for linear-scaling    |
 |   electronic structure calculations".                         |
 |   A. A. Mostofi, P. D. Haynes, C.-K. Skylaris, M. C. Payne.   |
 |   J. Chem. Phys. 119(17), pp.8842-8848 (2003).                |
 |                                                               |
 |  "Total-energy calculations on a real space grid with         |
 |   localized functions and a plane-wave basis".                |
 |   A. A. Mostofi, C.-K. Skylaris, P. D. Haynes, M. C. Payne.   |
 |   Comput. Phys. Commun. 147, pp.788-802 (2002).               |
 |                                                               |
 |  "Accurate kinetic energy evaluation in electronic structure  |
 |   calculations with localized functions on real space grids"  |
 |   C.-K. Skylaris, A. A. Mostofi, P. D. Haynes, C. J. Pickard, |
 |   M. C. Payne.                                                |
 |   Comput. Phys. Commun. 140, pp.315-322 (2001).               |
 |                                                               |
 |  "Accurate ionic forces and geometry optimization in linear-  |
 |   scaling density-functional theory with local orbitals"      |
 |   N. D. M. Hine, M. Robinson, P. D. Haynes, C.-K. Skylaris,   |
 |   M. C. Payne, and A. A. Mostofi.                             |
 |   Phys. Rev. B 83 195102 (2011).                              |
 |                                                               |
 +---------------------------------------------------------------+

Job started: 31-05-2025 23:30 (+0100)
 
Reading parameters from file "Cr2I6_bilayer_HT_AFM_FM_SP.dat" ...... done

If your calculation crashes here, before "Checking processes and threads..."
is displayed, then your stack size is insufficient.
If so, use "ulimit -s unlimited" at runtime.
You can disable this check with "check_stack_size F".

Checking processes and threads...
      Default threads: 17
   Running with 180 MPI processes.
   There are 6 MPI processes running on the same node as the root process.
   Each MPI process is using: 
               1 threads for simulation cell FFTs.
               1 threads for threaded FFT box operations.
              17 threads for loops over batched FFT box operations.
              17 threads in other parallel regions.
   MPI Interface: S1 (use mpi_f08) (-DMPI -DUSE_MPI_F08).
   MPI_ASYNC_PROTECTS_NONBLOCKING: Yes. MPI_SUBARRAYS_SUPPORTED: Yes.
   FFTW Interface: OMP-capable and MODERN. (-DUSE_MODERN_FFTW specified).
   GPU Interface: None.
   GPU FFT Backend: None.
... done

Basic input checks...
WARNING: The number of FFT boxes in a batch is not a multiple of the number of
OpenMP threads. Consider changing fftbox_batch_size.
... done

Reading geometry and species blocks from file "Cr2I6_bilayer_HT_AFM_FM_SP.dat" ...... done


--------------------------------------------------------------------------------
---------------------------------- INPUT FILE ----------------------------------
--------------------------------------------------------------------------------

charge : 0                                                                      
cutoff_energy : 1000 eV                                                         
delta_e_conv : F                                                                
do_properties : T                                                               
edft : F                                                                        
edft_init_maxit : 15                                                            
elec_energy_tol : 1e-07 Ha                                                      
fine_grid_scale : 4                                                             
forces_output_detail : VERBOSE                                                  
maxit_ngwf_cg : 100                                                             
MAXIT_LNV     : 15                                                              
MINIT_LNV     : 5                                                               
ngwf_threshold_orig : 1e-06                                                     
ngwfs_spin_polarized : T                                                        
output_detail : NORMAL                                                          
paw : T                                                                         
read_denskern : T                                                               
read_hamiltonian : F                                                            
read_tightbox_ngwfs : T                                                         
spin : 432                                                                      
spin_polarized : T                                                              
task : SinglePoint                                                              
write_denskern : T                                                              
write_forces : T                                                                
write_hamiltonian : T                                                           
write_tightbox_ngwfs : T                                                        
xc_functional : PBE                                                             
%BLOCK LATTICE_CART                                                             
ang                                                                             
41.261892132       0.000000000000000        0.000000000000000                   
-20.630946066       35.733846792             0.000000000000000                  
0.000000000000000   0.0000000000000000       27.507928088                       
%ENDBLOCK LATTICE_CART                                                          
%BLOCK POSITIONS_ABS                                                            
ang                                                                             
Cr       5.73012301       1.98615267      15.61475195                           
Cr       2.29163200       3.96948846      15.61475241                           
I        6.71804295      -0.00001318      14.06395847                           
I        3.51661508       2.12334657      14.07089707                           
I        0.07814689       3.83230774      14.07089707                           
I        4.74445508      -0.00001140      17.15723785                           
I        4.50489604       3.83201918      17.15707434                           
I        1.06642478       2.12363336      17.15707434                           
Cr       3.43917878       1.98613277       9.03123330                           
Cr       0.00068777       3.96950836       9.03123376                           
I        4.42486276      -0.00001318       7.48874545                           
I        1.22590088       2.12363241       7.48890841                           
I       -2.21256731       3.83202190       7.48890841                           
I        2.45126709      -0.00001140      10.58202506                           
I        2.21418512       3.83230199      10.57507890                           
I       -1.22428614       2.12335055      10.57507890                           
Cr       2.29163200       7.94179381      15.61475195                           
Cr      -1.14685901       9.92512959      15.61475241                           
I        3.27955194       5.95562795      14.06395847                           
I        0.07812407       8.07898770      14.07089707                           
I       -3.36034412       9.78794887      14.07089707                           
I        1.30596407       5.95562973      17.15723785                           
I        1.06640503       9.78766031      17.15707434                           
I       -2.37206623       8.07927449      17.15707434                           
Cr       0.00068777       7.94177390       9.03123330                           
Cr      -3.43780324       9.92514949       9.03123376                           
I        0.98637175       5.95562795       7.48874545                           
I       -2.21259013       8.07927354       7.48890841                           
I       -5.65105832       9.78766304       7.48890841                           
I       -0.98722392       5.95562973      10.58202506                           
I       -1.22430589       9.78794313      10.57507890                           
I       -4.66277715       8.07899168      10.57507890                           
Cr      -1.14685901      13.89743494      15.61475195                           
Cr      -4.58535002      15.88077072      15.61475241                           
I       -0.15893907      11.91126908      14.06395847                           
I       -3.36036694      14.03462883      14.07089707                           
I       -6.79883513      15.74359001      14.07089707                           
I       -2.13252694      11.91127086      17.15723785                           
I       -2.37208598      15.74330145      17.15707434                           
I       -5.81055724      14.03491562      17.15707434                           
Cr      -3.43780324      13.89741504       9.03123330                           
Cr      -6.87629425      15.88079062       9.03123376                           
I       -2.45211926      11.91126908       7.48874545                           
I       -5.65108114      14.03491467       7.48890841                           
I       -9.08954933      15.74330417       7.48890841                           
I       -4.42571493      11.91127086      10.58202506                           
I       -4.66279691      15.74358426      10.57507890                           
I       -8.10126817      14.03463281      10.57507890                           
Cr      -4.58535002      19.85307607      15.61475195                           
Cr      -8.02384103      21.83641185      15.61475241                           
I       -3.59743008      17.86691022      14.06395847                           
I       -6.79885795      19.99026996      14.07089707                           
I      -10.23732614      21.69923114      14.07089707                           
I       -5.57101795      17.86691200      17.15723785                           
I       -5.81057699      21.69894258      17.15707434                           
I       -9.24904825      19.99055675      17.15707434                           
Cr      -6.87629425      19.85305617       9.03123330                           
Cr     -10.31478526      21.83643175       9.03123376                           
I       -5.89061027      17.86691022       7.48874545                           
I       -9.08957216      19.99055580       7.48890841                           
I      -12.52804035      21.69894530       7.48890841                           
I       -7.86420594      17.86691200      10.58202506                           
I       -8.10128792      21.69922539      10.57507890                           
I      -11.53975918      19.99027394      10.57507890                           
Cr      -8.02384103      25.80871720      15.61475195                           
Cr     -11.46233204      27.79205298      15.61475241                           
I       -7.03592109      23.82255135      14.06395847                           
I      -10.23734897      25.94591110      14.07089707                           
I      -13.67581716      27.65487227      14.07089707                           
I       -9.00950896      23.82255313      17.15723785                           
I       -9.24906800      27.65458371      17.15707434                           
I      -12.68753926      25.94619789      17.15707434                           
Cr     -10.31478526      25.80869730       9.03123330                           
Cr     -13.75327627      27.79207289       9.03123376                           
I       -9.32910128      23.82255135       7.48874545                           
I      -12.52806317      25.94619693       7.48890841                           
I      -15.96653136      27.65458643       7.48890841                           
I      -11.30269695      23.82255313      10.58202506                           
I      -11.53977893      27.65486652      10.57507890                           
I      -14.97825019      25.94591507      10.57507890                           
Cr     -11.46233205      31.76435833      15.61475195                           
Cr     -14.90082306      33.74769412      15.61475241                           
I      -10.47441210      29.77819248      14.06395847                           
I      -13.67583998      31.90155223      14.07089707                           
I      -17.11430817      33.61051340      14.07089707                           
I      -12.44799997      29.77819426      17.15723785                           
I      -12.68755901      33.61022484      17.15707434                           
I      -16.12603027      31.90183902      17.15707434                           
Cr     -13.75327627      31.76433843       9.03123330                           
Cr     -17.19176728      33.74771402       9.03123376                           
I      -12.76759229      29.77819248       7.48874545                           
I      -15.96655418      31.90183807       7.48890841                           
I      -19.40502237      33.61022756       7.48890841                           
I      -14.74118796      29.77819426      10.58202506                           
I      -14.97826994      33.61050765      10.57507890                           
I      -18.41674120      31.90155621      10.57507890                           
Cr      12.60710503       1.98615267      15.61475195                           
Cr       9.16861402       3.96948846      15.61475241                           
I       13.59502497      -0.00001318      14.06395847                           
I       10.39359710       2.12334657      14.07089707                           
I        6.95512891       3.83230774      14.07089707                           
I       11.62143710      -0.00001140      17.15723785                           
I       11.38187806       3.83201918      17.15707434                           
I        7.94340680       2.12363336      17.15707434                           
Cr      10.31616080       1.98613277       9.03123330                           
Cr       6.87766979       3.96950836       9.03123376                           
I       11.30184479      -0.00001318       7.48874545                           
I        8.10288290       2.12363241       7.48890841                           
I        4.66441471       3.83202190       7.48890841                           
I        9.32824912      -0.00001140      10.58202506                           
I        9.09116714       3.83230199      10.57507890                           
I        5.65269588       2.12335055      10.57507890                           
Cr       9.16861402       7.94179381      15.61475195                           
Cr       5.73012301       9.92512959      15.61475241                           
I       10.15653396       5.95562795      14.06395847                           
I        6.95510609       8.07898770      14.07089707                           
I        3.51663790       9.78794887      14.07089707                           
I        8.18294609       5.95562973      17.15723785                           
I        7.94338705       9.78766031      17.15707434                           
I        4.50491579       8.07927449      17.15707434                           
Cr       6.87766979       7.94177390       9.03123330                           
Cr       3.43917878       9.92514949       9.03123376                           
I        7.86335378       5.95562795       7.48874545                           
I        4.66439189       8.07927354       7.48890841                           
I        1.22592370       9.78766304       7.48890841                           
I        5.88975810       5.95562973      10.58202506                           
I        5.65267613       9.78794313      10.57507890                           
I        2.21420487       8.07899168      10.57507890                           
Cr       5.73012301      13.89743494      15.61475195                           
Cr       2.29163200      15.88077072      15.61475241                           
I        6.71804295      11.91126908      14.06395847                           
I        3.51661508      14.03462883      14.07089707                           
I        0.07814689      15.74359001      14.07089707                           
I        4.74445508      11.91127086      17.15723785                           
I        4.50489604      15.74330145      17.15707434                           
I        1.06642478      14.03491562      17.15707434                           
Cr       3.43917878      13.89741504       9.03123330                           
Cr       0.00068777      15.88079062       9.03123376                           
I        4.42486276      11.91126908       7.48874545                           
I        1.22590088      14.03491467       7.48890841                           
I       -2.21256731      15.74330417       7.48890841                           
I        2.45126709      11.91127086      10.58202506                           
I        2.21418512      15.74358426      10.57507890                           
I       -1.22428614      14.03463281      10.57507890                           
Cr       2.29163200      19.85307607      15.61475195                           
Cr      -1.14685901      21.83641185      15.61475241                           
I        3.27955194      17.86691022      14.06395847                           
I        0.07812407      19.99026996      14.07089707                           
I       -3.36034412      21.69923114      14.07089707                           
I        1.30596407      17.86691200      17.15723785                           
I        1.06640503      21.69894258      17.15707434                           
I       -2.37206623      19.99055675      17.15707434                           
Cr       0.00068777      19.85305617       9.03123330                           
Cr      -3.43780324      21.83643175       9.03123376                           
I        0.98637175      17.86691022       7.48874545                           
I       -2.21259013      19.99055580       7.48890841                           
I       -5.65105832      21.69894530       7.48890841                           
I       -0.98722392      17.86691200      10.58202506                           
I       -1.22430589      21.69922539      10.57507890                           
I       -4.66277715      19.99027394      10.57507890                           
Cr      -1.14685901      25.80871720      15.61475195                           
Cr      -4.58535002      27.79205298      15.61475241                           
I       -0.15893907      23.82255135      14.06395847                           
I       -3.36036694      25.94591110      14.07089707                           
I       -6.79883513      27.65487227      14.07089707                           
I       -2.13252694      23.82255313      17.15723785                           
I       -2.37208598      27.65458371      17.15707434                           
I       -5.81055724      25.94619789      17.15707434                           
Cr      -3.43780324      25.80869730       9.03123330                           
Cr      -6.87629425      27.79207289       9.03123376                           
I       -2.45211926      23.82255135       7.48874545                           
I       -5.65108114      25.94619693       7.48890841                           
I       -9.08954933      27.65458643       7.48890841                           
I       -4.42571493      23.82255313      10.58202506                           
I       -4.66279691      27.65486652      10.57507890                           
I       -8.10126817      25.94591507      10.57507890                           
Cr      -4.58535002      31.76435833      15.61475195                           
Cr      -8.02384103      33.74769412      15.61475241                           
I       -3.59743008      29.77819248      14.06395847                           
I       -6.79885795      31.90155223      14.07089707                           
I      -10.23732614      33.61051340      14.07089707                           
I       -5.57101795      29.77819426      17.15723785                           
I       -5.81057699      33.61022484      17.15707434                           
I       -9.24904825      31.90183902      17.15707434                           
Cr      -6.87629425      31.76433843       9.03123330                           
Cr     -10.31478526      33.74771402       9.03123376                           
I       -5.89061027      29.77819248       7.48874545                           
I       -9.08957216      31.90183807       7.48890841                           
I      -12.52804035      33.61022756       7.48890841                           
I       -7.86420594      29.77819426      10.58202506                           
I       -8.10128792      33.61050765      10.57507890                           
I      -11.53975918      31.90155621      10.57507890                           
Cr      19.48408705       1.98615267      15.61475195                           
Cr      16.04559604       3.96948846      15.61475241                           
I       20.47200700      -0.00001318      14.06395847                           
I       17.27057912       2.12334657      14.07089707                           
I       13.83211093       3.83230774      14.07089707                           
I       18.49841912      -0.00001140      17.15723785                           
I       18.25886009       3.83201918      17.15707434                           
I       14.82038883       2.12363336      17.15707434                           
Cr      17.19314283       1.98613277       9.03123330                           
Cr      13.75465182       3.96950836       9.03123376                           
I       18.17882681      -0.00001318       7.48874545                           
I       14.97986492       2.12363241       7.48890841                           
I       11.54139673       3.83202190       7.48890841                           
I       16.20523114      -0.00001140      10.58202506                           
I       15.96814916       3.83230199      10.57507890                           
I       12.52967790       2.12335055      10.57507890                           
Cr      16.04559604       7.94179381      15.61475195                           
Cr      12.60710503       9.92512959      15.61475241                           
I       17.03351599       5.95562795      14.06395847                           
I       13.83208811       8.07898770      14.07089707                           
I       10.39361992       9.78794887      14.07089707                           
I       15.05992811       5.95562973      17.15723785                           
I       14.82036907       9.78766031      17.15707434                           
I       11.38189781       8.07927449      17.15707434                           
Cr      13.75465181       7.94177390       9.03123330                           
Cr      10.31616080       9.92514949       9.03123376                           
I       14.74033580       5.95562795       7.48874545                           
I       11.54137391       8.07927354       7.48890841                           
I        8.10290572       9.78766304       7.48890841                           
I       12.76674013       5.95562973      10.58202506                           
I       12.52965815       9.78794313      10.57507890                           
I        9.09118689       8.07899168      10.57507890                           
Cr      12.60710503      13.89743494      15.61475195                           
Cr       9.16861402      15.88077072      15.61475241                           
I       13.59502497      11.91126908      14.06395847                           
I       10.39359710      14.03462883      14.07089707                           
I        6.95512891      15.74359001      14.07089707                           
I       11.62143710      11.91127086      17.15723785                           
I       11.38187806      15.74330145      17.15707434                           
I        7.94340680      14.03491562      17.15707434                           
Cr      10.31616080      13.89741504       9.03123330                           
Cr       6.87766979      15.88079062       9.03123376                           
I       11.30184479      11.91126908       7.48874545                           
I        8.10288290      14.03491467       7.48890841                           
I        4.66441471      15.74330417       7.48890841                           
I        9.32824912      11.91127086      10.58202506                           
I        9.09116714      15.74358426      10.57507890                           
I        5.65269588      14.03463281      10.57507890                           
Cr       9.16861402      19.85307607      15.61475195                           
Cr       5.73012301      21.83641185      15.61475241                           
I       10.15653396      17.86691022      14.06395847                           
I        6.95510609      19.99026996      14.07089707                           
I        3.51663790      21.69923114      14.07089707                           
I        8.18294609      17.86691200      17.15723785                           
I        7.94338705      21.69894258      17.15707434                           
I        4.50491579      19.99055675      17.15707434                           
Cr       6.87766979      19.85305617       9.03123330                           
Cr       3.43917878      21.83643175       9.03123376                           
I        7.86335378      17.86691022       7.48874545                           
I        4.66439189      19.99055580       7.48890841                           
I        1.22592370      21.69894530       7.48890841                           
I        5.88975810      17.86691200      10.58202506                           
I        5.65267613      21.69922539      10.57507890                           
I        2.21420487      19.99027394      10.57507890                           
Cr       5.73012301      25.80871720      15.61475195                           
Cr       2.29163200      27.79205298      15.61475241                           
I        6.71804295      23.82255135      14.06395847                           
I        3.51661508      25.94591110      14.07089707                           
I        0.07814689      27.65487227      14.07089707                           
I        4.74445508      23.82255313      17.15723785                           
I        4.50489604      27.65458371      17.15707434                           
I        1.06642478      25.94619789      17.15707434                           
Cr       3.43917878      25.80869730       9.03123330                           
Cr       0.00068777      27.79207289       9.03123376                           
I        4.42486276      23.82255135       7.48874545                           
I        1.22590088      25.94619693       7.48890841                           
I       -2.21256731      27.65458643       7.48890841                           
I        2.45126709      23.82255313      10.58202506                           
I        2.21418512      27.65486652      10.57507890                           
I       -1.22428614      25.94591507      10.57507890                           
Cr       2.29163200      31.76435833      15.61475195                           
Cr      -1.14685901      33.74769412      15.61475241                           
I        3.27955194      29.77819248      14.06395847                           
I        0.07812407      31.90155223      14.07089707                           
I       -3.36034412      33.61051340      14.07089707                           
I        1.30596407      29.77819426      17.15723785                           
I        1.06640503      33.61022484      17.15707434                           
I       -2.37206623      31.90183902      17.15707434                           
Cr       0.00068777      31.76433843       9.03123330                           
Cr      -3.43780324      33.74771402       9.03123376                           
I        0.98637175      29.77819248       7.48874545                           
I       -2.21259013      31.90183807       7.48890841                           
I       -5.65105832      33.61022756       7.48890841                           
I       -0.98722392      29.77819426      10.58202506                           
I       -1.22430589      33.61050765      10.57507890                           
I       -4.66277715      31.90155621      10.57507890                           
Cr      26.36106908       1.98615267      15.61475195                           
Cr      22.92257807       3.96948846      15.61475241                           
I       27.34898902      -0.00001318      14.06395847                           
I       24.14756114       2.12334657      14.07089707                           
I       20.70909295       3.83230774      14.07089707                           
I       25.37540115      -0.00001140      17.15723785                           
I       25.13584211       3.83201918      17.15707434                           
I       21.69737085       2.12363336      17.15707434                           
Cr      24.07012485       1.98613277       9.03123330                           
Cr      20.63163384       3.96950836       9.03123376                           
I       25.05580883      -0.00001318       7.48874545                           
I       21.85684694       2.12363241       7.48890841                           
I       18.41837875       3.83202190       7.48890841                           
I       23.08221316      -0.00001140      10.58202506                           
I       22.84513118       3.83230199      10.57507890                           
I       19.40665992       2.12335055      10.57507890                           
Cr      22.92257806       7.94179381      15.61475195                           
Cr      19.48408705       9.92512959      15.61475241                           
I       23.91049801       5.95562795      14.06395847                           
I       20.70907013       8.07898770      14.07089707                           
I       17.27060194       9.78794887      14.07089707                           
I       21.93691014       5.95562973      17.15723785                           
I       21.69735110       9.78766031      17.15707434                           
I       18.25887984       8.07927449      17.15707434                           
Cr      20.63163384       7.94177390       9.03123330                           
Cr      17.19314283       9.92514949       9.03123376                           
I       21.61731782       5.95562795       7.48874545                           
I       18.41835593       8.07927354       7.48890841                           
I       14.97988774       9.78766304       7.48890841                           
I       19.64372215       5.95562973      10.58202506                           
I       19.40664017       9.78794313      10.57507890                           
I       15.96816891       8.07899168      10.57507890                           
Cr      19.48408705      13.89743494      15.61475195                           
Cr      16.04559604      15.88077072      15.61475241                           
I       20.47200700      11.91126908      14.06395847                           
I       17.27057912      14.03462883      14.07089707                           
I       13.83211093      15.74359001      14.07089707                           
I       18.49841912      11.91127086      17.15723785                           
I       18.25886009      15.74330145      17.15707434                           
I       14.82038883      14.03491562      17.15707434                           
Cr      17.19314283      13.89741504       9.03123330                           
Cr      13.75465182      15.88079062       9.03123376                           
I       18.17882681      11.91126908       7.48874545                           
I       14.97986492      14.03491467       7.48890841                           
I       11.54139673      15.74330417       7.48890841                           
I       16.20523114      11.91127086      10.58202506                           
I       15.96814916      15.74358426      10.57507890                           
I       12.52967790      14.03463281      10.57507890                           
Cr      16.04559604      19.85307607      15.61475195                           
Cr      12.60710503      21.83641185      15.61475241                           
I       17.03351599      17.86691022      14.06395847                           
I       13.83208811      19.99026996      14.07089707                           
I       10.39361992      21.69923114      14.07089707                           
I       15.05992811      17.86691200      17.15723785                           
I       14.82036907      21.69894258      17.15707434                           
I       11.38189781      19.99055675      17.15707434                           
Cr      13.75465181      19.85305617       9.03123330                           
Cr      10.31616080      21.83643175       9.03123376                           
I       14.74033580      17.86691022       7.48874545                           
I       11.54137391      19.99055580       7.48890841                           
I        8.10290572      21.69894530       7.48890841                           
I       12.76674013      17.86691200      10.58202506                           
I       12.52965815      21.69922539      10.57507890                           
I        9.09118689      19.99027394      10.57507890                           
Cr      12.60710503      25.80871720      15.61475195                           
Cr       9.16861402      27.79205298      15.61475241                           
I       13.59502497      23.82255135      14.06395847                           
I       10.39359710      25.94591110      14.07089707                           
I        6.95512891      27.65487227      14.07089707                           
I       11.62143710      23.82255313      17.15723785                           
I       11.38187806      27.65458371      17.15707434                           
I        7.94340680      25.94619789      17.15707434                           
Cr      10.31616080      25.80869730       9.03123330                           
Cr       6.87766979      27.79207289       9.03123376                           
I       11.30184479      23.82255135       7.48874545                           
I        8.10288290      25.94619693       7.48890841                           
I        4.66441471      27.65458643       7.48890841                           
I        9.32824912      23.82255313      10.58202506                           
I        9.09116714      27.65486652      10.57507890                           
I        5.65269588      25.94591507      10.57507890                           
Cr       9.16861402      31.76435833      15.61475195                           
Cr       5.73012301      33.74769412      15.61475241                           
I       10.15653396      29.77819248      14.06395847                           
I        6.95510609      31.90155223      14.07089707                           
I        3.51663790      33.61051340      14.07089707                           
I        8.18294609      29.77819426      17.15723785                           
I        7.94338705      33.61022484      17.15707434                           
I        4.50491579      31.90183902      17.15707434                           
Cr       6.87766979      31.76433843       9.03123330                           
Cr       3.43917878      33.74771402       9.03123376                           
I        7.86335378      29.77819248       7.48874545                           
I        4.66439189      31.90183807       7.48890841                           
I        1.22592370      33.61022756       7.48890841                           
I        5.88975810      29.77819426      10.58202506                           
I        5.65267613      33.61050765      10.57507890                           
I        2.21420487      31.90155621      10.57507890                           
Cr      33.23805110       1.98615267      15.61475195                           
Cr      29.79956009       3.96948846      15.61475241                           
I       34.22597104      -0.00001318      14.06395847                           
I       31.02454317       2.12334657      14.07089707                           
I       27.58607498       3.83230774      14.07089707                           
I       32.25238317      -0.00001140      17.15723785                           
I       32.01282413       3.83201918      17.15707434                           
I       28.57435287       2.12363336      17.15707434                           
Cr      30.94710687       1.98613277       9.03123330                           
Cr      27.50861586       3.96950836       9.03123376                           
I       31.93279085      -0.00001318       7.48874545                           
I       28.73382897       2.12363241       7.48890841                           
I       25.29536078       3.83202190       7.48890841                           
I       29.95919518      -0.00001140      10.58202506                           
I       29.72211320       3.83230199      10.57507890                           
I       26.28364194       2.12335055      10.57507890                           
Cr      29.79956009       7.94179381      15.61475195                           
Cr      26.36106908       9.92512959      15.61475241                           
I       30.78748003       5.95562795      14.06395847                           
I       27.58605216       8.07898770      14.07089707                           
I       24.14758397       9.78794887      14.07089707                           
I       28.81389216       5.95562973      17.15723785                           
I       28.57433312       9.78766031      17.15707434                           
I       25.13586186       8.07927449      17.15707434                           
Cr      27.50861586       7.94177390       9.03123330                           
Cr      24.07012485       9.92514949       9.03123376                           
I       28.49429984       5.95562795       7.48874545                           
I       25.29533795       8.07927354       7.48890841                           
I       21.85686976       9.78766304       7.48890841                           
I       26.52070417       5.95562973      10.58202506                           
I       26.28362219       9.78794313      10.57507890                           
I       22.84515093       8.07899168      10.57507890                           
Cr      26.36106908      13.89743494      15.61475195                           
Cr      22.92257807      15.88077072      15.61475241                           
I       27.34898902      11.91126908      14.06395847                           
I       24.14756114      14.03462883      14.07089707                           
I       20.70909295      15.74359001      14.07089707                           
I       25.37540115      11.91127086      17.15723785                           
I       25.13584211      15.74330145      17.15707434                           
I       21.69737085      14.03491562      17.15707434                           
Cr      24.07012485      13.89741504       9.03123330                           
Cr      20.63163384      15.88079062       9.03123376                           
I       25.05580883      11.91126908       7.48874545                           
I       21.85684694      14.03491467       7.48890841                           
I       18.41837875      15.74330417       7.48890841                           
I       23.08221316      11.91127086      10.58202506                           
I       22.84513118      15.74358426      10.57507890                           
I       19.40665992      14.03463281      10.57507890                           
Cr      22.92257806      19.85307607      15.61475195                           
Cr      19.48408705      21.83641185      15.61475241                           
I       23.91049801      17.86691022      14.06395847                           
I       20.70907013      19.99026996      14.07089707                           
I       17.27060194      21.69923114      14.07089707                           
I       21.93691014      17.86691200      17.15723785                           
I       21.69735110      21.69894258      17.15707434                           
I       18.25887984      19.99055675      17.15707434                           
Cr      20.63163384      19.85305617       9.03123330                           
Cr      17.19314283      21.83643175       9.03123376                           
I       21.61731782      17.86691022       7.48874545                           
I       18.41835593      19.99055580       7.48890841                           
I       14.97988774      21.69894530       7.48890841                           
I       19.64372215      17.86691200      10.58202506                           
I       19.40664017      21.69922539      10.57507890                           
I       15.96816891      19.99027394      10.57507890                           
Cr      19.48408705      25.80871720      15.61475195                           
Cr      16.04559604      27.79205298      15.61475241                           
I       20.47200700      23.82255135      14.06395847                           
I       17.27057912      25.94591110      14.07089707                           
I       13.83211093      27.65487227      14.07089707                           
I       18.49841912      23.82255313      17.15723785                           
I       18.25886009      27.65458371      17.15707434                           
I       14.82038883      25.94619789      17.15707434                           
Cr      17.19314283      25.80869730       9.03123330                           
Cr      13.75465182      27.79207289       9.03123376                           
I       18.17882681      23.82255135       7.48874545                           
I       14.97986492      25.94619693       7.48890841                           
I       11.54139673      27.65458643       7.48890841                           
I       16.20523114      23.82255313      10.58202506                           
I       15.96814916      27.65486652      10.57507890                           
I       12.52967790      25.94591507      10.57507890                           
Cr      16.04559604      31.76435833      15.61475195                           
Cr      12.60710503      33.74769412      15.61475241                           
I       17.03351599      29.77819248      14.06395847                           
I       13.83208811      31.90155223      14.07089707                           
I       10.39361992      33.61051340      14.07089707                           
I       15.05992811      29.77819426      17.15723785                           
I       14.82036907      33.61022484      17.15707434                           
I       11.38189781      31.90183902      17.15707434                           
Cr      13.75465181      31.76433843       9.03123330                           
Cr      10.31616080      33.74771402       9.03123376                           
I       14.74033580      29.77819248       7.48874545                           
I       11.54137391      31.90183807       7.48890841                           
I        8.10290572      33.61022756       7.48890841                           
I       12.76674013      29.77819426      10.58202506                           
I       12.52965815      33.61050765      10.57507890                           
I        9.09118689      31.90155621      10.57507890                           
Cr      40.11503312       1.98615267      15.61475195                           
Cr      36.67654211       3.96948846      15.61475241                           
I       41.10295306      -0.00001318      14.06395847                           
I       37.90152519       2.12334657      14.07089707                           
I       34.46305700       3.83230774      14.07089707                           
I       39.12936519      -0.00001140      17.15723785                           
I       38.88980615       3.83201918      17.15707434                           
I       35.45133489       2.12363336      17.15707434                           
Cr      37.82408889       1.98613277       9.03123330                           
Cr      34.38559788       3.96950836       9.03123376                           
I       38.80977287      -0.00001318       7.48874545                           
I       35.61081099       2.12363241       7.48890841                           
I       32.17234280       3.83202190       7.48890841                           
I       36.83617720      -0.00001140      10.58202506                           
I       36.59909523       3.83230199      10.57507890                           
I       33.16062397       2.12335055      10.57507890                           
Cr      36.67654211       7.94179381      15.61475195                           
Cr      33.23805110       9.92512959      15.61475241                           
I       37.66446205       5.95562795      14.06395847                           
I       34.46303418       8.07898770      14.07089707                           
I       31.02456599       9.78794887      14.07089707                           
I       35.69087418       5.95562973      17.15723785                           
I       35.45131514       9.78766031      17.15707434                           
I       32.01284388       8.07927449      17.15707434                           
Cr      34.38559788       7.94177390       9.03123330                           
Cr      30.94710687       9.92514949       9.03123376                           
I       35.37128186       5.95562795       7.48874545                           
I       32.17231998       8.07927354       7.48890841                           
I       28.73385179       9.78766304       7.48890841                           
I       33.39768619       5.95562973      10.58202506                           
I       33.16060422       9.78794313      10.57507890                           
I       29.72213296       8.07899168      10.57507890                           
Cr      33.23805110      13.89743494      15.61475195                           
Cr      29.79956009      15.88077072      15.61475241                           
I       34.22597104      11.91126908      14.06395847                           
I       31.02454317      14.03462883      14.07089707                           
I       27.58607498      15.74359001      14.07089707                           
I       32.25238317      11.91127086      17.15723785                           
I       32.01282413      15.74330145      17.15707434                           
I       28.57435287      14.03491562      17.15707434                           
Cr      30.94710687      13.89741504       9.03123330                           
Cr      27.50861586      15.88079062       9.03123376                           
I       31.93279085      11.91126908       7.48874545                           
I       28.73382897      14.03491467       7.48890841                           
I       25.29536078      15.74330417       7.48890841                           
I       29.95919518      11.91127086      10.58202506                           
I       29.72211320      15.74358426      10.57507890                           
I       26.28364194      14.03463281      10.57507890                           
Cr      29.79956009      19.85307607      15.61475195                           
Cr      26.36106908      21.83641185      15.61475241                           
I       30.78748003      17.86691022      14.06395847                           
I       27.58605216      19.99026996      14.07089707                           
I       24.14758397      21.69923114      14.07089707                           
I       28.81389216      17.86691200      17.15723785                           
I       28.57433312      21.69894258      17.15707434                           
I       25.13586186      19.99055675      17.15707434                           
Cr      27.50861586      19.85305617       9.03123330                           
Cr      24.07012485      21.83643175       9.03123376                           
I       28.49429984      17.86691022       7.48874545                           
I       25.29533795      19.99055580       7.48890841                           
I       21.85686976      21.69894530       7.48890841                           
I       26.52070417      17.86691200      10.58202506                           
I       26.28362219      21.69922539      10.57507890                           
I       22.84515093      19.99027394      10.57507890                           
Cr      26.36106908      25.80871720      15.61475195                           
Cr      22.92257807      27.79205298      15.61475241                           
I       27.34898902      23.82255135      14.06395847                           
I       24.14756114      25.94591110      14.07089707                           
I       20.70909295      27.65487227      14.07089707                           
I       25.37540115      23.82255313      17.15723785                           
I       25.13584211      27.65458371      17.15707434                           
I       21.69737085      25.94619789      17.15707434                           
Cr      24.07012485      25.80869730       9.03123330                           
Cr      20.63163384      27.79207289       9.03123376                           
I       25.05580883      23.82255135       7.48874545                           
I       21.85684694      25.94619693       7.48890841                           
I       18.41837875      27.65458643       7.48890841                           
I       23.08221316      23.82255313      10.58202506                           
I       22.84513118      27.65486652      10.57507890                           
I       19.40665992      25.94591507      10.57507890                           
Cr      22.92257806      31.76435833      15.61475195                           
Cr      19.48408705      33.74769412      15.61475241                           
I       23.91049801      29.77819248      14.06395847                           
I       20.70907013      31.90155223      14.07089707                           
I       17.27060194      33.61051340      14.07089707                           
I       21.93691014      29.77819426      17.15723785                           
I       21.69735110      33.61022484      17.15707434                           
I       18.25887984      31.90183902      17.15707434                           
Cr      20.63163384      31.76433843       9.03123330                           
Cr      17.19314283      33.74771402       9.03123376                           
I       21.61731782      29.77819248       7.48874545                           
I       18.41835593      31.90183807       7.48890841                           
I       14.97988774      33.61022756       7.48890841                           
I       19.64372215      29.77819426      10.58202506                           
I       19.40664017      33.61050765      10.57507890                           
I       15.96816891      31.90155621      10.57507890                           
%ENDBLOCK POSITIONS_ABS                                                         
%BLOCK SPECIES                                                                  
Cr Cr 24 -1 15                                                                  
I   I  53 -1 15                                                                 
%ENDBLOCK SPECIES                                                               
%BLOCK SPECIES_ATOMIC_SET                                                       
Cr "SOLVE INIT SPIN=3"                                                          
I   "SOLVE"                                                                     
%ENDBLOCK SPECIES_ATOMIC_SET                                                    
%BLOCK HUBBARD                                                                  
Cr  2 2.97 0.0 -10.0 0.00 0.0                                                   
%ENDBLOCK HUBBARD                                                               
%BLOCK SPECIES_LDOS_GROUPS                                                      
Cr                                                                              
I                                                                               
%ENDBLOCK SPECIES_LDOS_GROUPS                                                   
%BLOCK SPECIES_POT                                                              
Cr  "../../../../Cr.PBE-paw.abinit"                                             
I   "../../../../I.PBE-paw.abinit"                                              
%ENDBLOCK SPECIES_POT                                                           

--------------------------------------------------------------------------------
-------------------------------- END INPUT FILE --------------------------------
--------------------------------------------------------------------------------


 
 ESDF WARNING(1): "charge" (esdf_physical) has no units. Assume "e".
<<<<<<<<<<<<<<<<<<<<<<<<<<<<<<<<< Full system >>>>>>>>>>>>>>>>>>>>>>>>>>>>>>>>>>
<<<<<<<<<<<<<<<<<<<<<<<<<<< PAW Dataset information >>>>>>>>>>>>>>>>>>>>>>>>>>>
File: ../../../../Cr.PBE-paw.abinit; rc = 2.11 bohr; shape type =  2; rshape = 1.80 bohr;
  Atomic number: 24;  ionic charge: 14.000000
    Partial Wave 1: l = 0
    Partial Wave 2: l = 0
    Partial Wave 3: l = 1
    Partial Wave 4: l = 1
    Partial Wave 5: l = 2
    Partial Wave 6: l = 2
  Core charge supplied for Nonlinear Core Corrections
File: ../../../../I.PBE-paw.abinit; rc = 2.30 bohr; shape type =  2; rshape = 2.11 bohr;
  Atomic number: 53;  ionic charge:  7.000000
    Partial Wave 1: l = 0
    Partial Wave 2: l = 0
    Partial Wave 3: l = 1
    Partial Wave 4: l = 1
  Core charge supplied for Nonlinear Core Corrections
<<<<<<<<<<<<<<<<<<<<<<<<<<<<<<<<<<<<<<< >>>>>>>>>>>>>>>>>>>>>>>>>>>>>>>>>>>>>>>

-------------------------- Atom counting information ---------------------------
Symbol    Natoms    Nngwfs    Nprojs
  Cr       144      1872      2592
  I        432      1728      3456
.......   ......    ......    ......
Totals:    576      3600      6048
--------------------------------------------------------------------------------

=============================== PSINC grid sizes ===============================
                      Simulation cell:  175 x 175 x 117
                              FFT-box:  175 x 175 x 117
                                  PPD:    5 x   5 x   1
Grid space d1=  0.445563862424a0 (KE cutoff=  38.26345Eh =1041.20135eV)
Grid space d2=  0.445563862400a0 (KE cutoff=  38.26345Eh =1041.20135eV)
Grid space d3=  0.444294449711a0 (KE cutoff=  38.48241Eh =1047.15957eV)
================================================================================

********************* Fourier parallelisation information **********************
       Coarse grid (whole simulation cell) dimensions:    175   175   117
          Real-space ('12') slabs/proc (min max mean):      0     1     0
         Recip-space ('23') slabs/proc (min max mean):      0     1     0
********************************************************************************

********************* Fourier parallelisation information **********************
       Double grid (whole simulation cell) dimensions:    350   350   234
          Real-space ('12') slabs/proc (min max mean):      1     2     1
         Recip-space ('23') slabs/proc (min max mean):      0     1     0
********************************************************************************

********************* Fourier parallelisation information **********************
         Fine grid (whole simulation cell) dimensions:    700   700   468
          Real-space ('12') slabs/proc (min max mean):      2     3     2
         Recip-space ('23') slabs/proc (min max mean):      1     2     1
********************************************************************************

Atom SCF Calculation for Cr : Z (AE atom) =  24 : Z (PS atom) =  14
Config String: 3s2.0 3p6.0 3d5.0 4s1.0 4p0.0 INIT SPIN=3
Orbitals (num,occ):  5     2.00 6.00 5.00 1.00 0.00
Orbitals   (num,l):  5        0    1    2    0    1
Atom SCF converged after  64 iterations to a total energy of    -87.07044631
Adjusting orbital occupancies:
Orbitals (num,spin,occ):  5  1     1.00 3.00 3.50 1.00 0.00
Orbitals   (num,spin,l):  5  1        0    1    2    0    1
Orbitals (num,spin,occ):  5  2     1.00 3.00 1.00 0.50 0.00
Orbitals   (num,spin,l):  5  2        0    1    2    0    1

Atom SCF Calculation for I  : Z (AE atom) =  53 : Z (PS atom) =   7
Config String: 5s2.0 5p5.0
Orbitals (num,occ):  2     2.00 5.00
Orbitals   (num,l):  2        0    1
Atom SCF converged after  28 iterations to a total energy of    -11.61352964

Atom SCF Calculation for Cr : Z (AE atom) =  24 : Z (PS atom) =  14
Config String: 3s2.0 3p6.0 3d5.0 4s1.0 4p0.0 INIT SPIN=3
Orbitals (num,occ):  5     2.00 6.00 5.00 1.00 0.00
Orbitals   (num,l):  5        0    1    2    0    1
Atom SCF converged after  64 iterations to a total energy of    -87.07044631

Atom SCF Calculation for I  : Z (AE atom) =  53 : Z (PS atom) =   7
Config String: 5s2.0 5p5.0
Orbitals (num,occ):  2     2.00 5.00
Orbitals   (num,l):  2        0    1
Atom SCF converged after  28 iterations to a total energy of    -11.61352964

WARNING: The number of FFT boxes in a batch is not a multiple of the number of
OpenMP threads. Consider changing fftbox_batch_size.

Determining parallel strategy ...... done
Calculating Ewald energy ...            31475.177180 Hartree
Basis initialisation ...
... done

============================= Charge Augmentation ==============================
                           Aug box size:   49 x  49 x  45
================================================================================
Sparse matrix initialisation ...
 done

Reading NGWFs from file "Cr2I6_bilayer_HT_AFM_FM_SP.tightbox_ngwfs" ... done
 done

================================= Core Density =================================
               Core den box size:  125 x 125 x 105
================================================================================

Reading density kernel from file "Cr2I6_bilayer_HT_AFM_FM_SP.dkn" ... done

>>> Optimising kernel for current NGWFs:


>>> Density kernel optimised for the current NGWF basis:
     ~~~~~~~~~~~~~~~~~~~~~~~~~~~~~~~~~~~~~~~~~~~~~~~~~~~~~~~~~~~
     Total energy                =  -1.76276820435153E+04  Eh
     Estimated bandgap (UP spin) =   3.6262E-02  Eh
     Estimated bandgap (DN spin) =   1.1232E-01  Eh
     RMS occupancy error         =   3.7618E-16
     [H,K] commutator            =   2.8941E-07
     UP spin occupancy bounds    = [  0.000:  1.000]
     DN spin occupancy bounds    = [  0.000:  1.000]
     ~~~~~~~~~~~~~~~~~~~~~~~~~~~~~~~~~~~~~~~~~~~~~~~~~~~~~~~~~~~




################################################################################
########################### NGWF CG iteration  001 #############################
################################################################################

>>> Checking for convergence of NGWFs:   NOT CONVERGED
  ========================================================================
         NGWF RMS gradient =  6.5651E-07 <  1.0000E-06  | CONVERGED
  ========================================================================

>>> Improving NGWFs using line search:
  ========================================================================
   Predicted total energy    =      -1.76276821296767E+04 Eh
   Predicted gain in energy  =      -8.61614098539576E-05 Eh
  ========================================================================

Writing NGWFs to file "Cr2I6_bilayer_HT_AFM_FM_SP.tightbox_ngwfs".... done

>>> Optimising kernel for current NGWFs:
   iter  |      energy (Eh)       | rms gradient |  commutator  |   dE (Eh)
    1        -1.762768213229E+04     1.7145E-06     8.6113E-07
    2        -1.762768213473E+04     9.2998E-07     4.6505E-07    -2.4399E-06
    3        -1.762768213554E+04     6.0207E-07     3.0015E-07    -8.1125E-07
    4        -1.762768213671E+04     7.4604E-07     3.7833E-07    -1.1703E-06
    5        -1.762768213941E+04     6.0708E-07     3.0986E-07    -2.6996E-06
Finished density kernel iterations (   5)

Writing density kernel to file "Cr2I6_bilayer_HT_AFM_FM_SP.dkn" ... done


>>> Density kernel optimised for the current NGWF basis:
     ~~~~~~~~~~~~~~~~~~~~~~~~~~~~~~~~~~~~~~~~~~~~~~~~~~~~~~~~~~~
     Total energy                =  -1.76276821394110E+04  Eh
     Estimated bandgap (UP spin) =   3.6249E-02  Eh
     Estimated bandgap (DN spin) =   1.1216E-01  Eh
     RMS occupancy error         =   5.5768E-16
     [H,K] commutator            =   3.0986E-07
     UP spin occupancy bounds    = [  0.000:  1.000]
     DN spin occupancy bounds    = [  0.000:  1.000]
     ~~~~~~~~~~~~~~~~~~~~~~~~~~~~~~~~~~~~~~~~~~~~~~~~~~~~~~~~~~~




################################################################################
########################### NGWF CG iteration  002 #############################
################################################################################

>>> Checking for convergence of NGWFs:   NOT CONVERGED
  ========================================================================
         NGWF RMS gradient =  2.7988E-07 <  1.0000E-06  | CONVERGED
  Maximum change in energy =  1.6649E-07 >  1.0000E-07  | above tolerance
  ========================================================================

>>> Improving NGWFs using line search:
  ========================================================================
   Predicted total energy    =      -1.76276822129299E+04 Eh
   Predicted gain in energy  =      -7.35189933038782E-05 Eh
  ========================================================================

Writing NGWFs to file "Cr2I6_bilayer_HT_AFM_FM_SP.tightbox_ngwfs".... done

>>> Optimising kernel for current NGWFs:
   iter  |      energy (Eh)       | rms gradient |  commutator  |   dE (Eh)
    1        -1.762768203771E+04     6.8136E-06     3.4634E-06
    2        -1.762768211132E+04     5.5992E-06     2.9453E-06    -7.3612E-05
    3        -1.762768214409E+04     2.8801E-06     1.4848E-06    -3.2765E-05
    4        -1.762768215400E+04     2.1637E-06     1.1148E-06    -9.9137E-06
    5        -1.762768217147E+04     2.3381E-06     1.2455E-06    -1.7464E-05
Finished density kernel iterations (   5)

Writing density kernel to file "Cr2I6_bilayer_HT_AFM_FM_SP.dkn" ... done


>>> Density kernel optimised for the current NGWF basis:
     ~~~~~~~~~~~~~~~~~~~~~~~~~~~~~~~~~~~~~~~~~~~~~~~~~~~~~~~~~~~
     Total energy                =  -1.76276821714678E+04  Eh
     Estimated bandgap (UP spin) =   3.6316E-02  Eh
     Estimated bandgap (DN spin) =   1.1212E-01  Eh
     RMS occupancy error         =   8.9554E-15
     [H,K] commutator            =   1.2455E-06
     UP spin occupancy bounds    = [  0.000:  1.000]
     DN spin occupancy bounds    = [  0.000:  1.000]
     ~~~~~~~~~~~~~~~~~~~~~~~~~~~~~~~~~~~~~~~~~~~~~~~~~~~~~~~~~~~




################################################################################
########################### NGWF CG iteration  003 #############################
################################################################################

>>> Checking for convergence of NGWFs:   NOT CONVERGED
  ========================================================================
         NGWF RMS gradient =  5.8255E-07 <  1.0000E-06  | CONVERGED
  Maximum change in energy =  1.6649E-07 >  1.0000E-07  | above tolerance
  ========================================================================

>>> Improving NGWFs using line search:
  ========================================================================
   Predicted total energy    =      -1.76276822856156E+04 Eh
   Predicted gain in energy  =      -1.14147795102326E-04 Eh
  ========================================================================

Writing NGWFs to file "Cr2I6_bilayer_HT_AFM_FM_SP.tightbox_ngwfs".... done

>>> Optimising kernel for current NGWFs:
   iter  |      energy (Eh)       | rms gradient |  commutator  |   dE (Eh)
    1        -1.762768225194E+04     2.6826E-06     1.3578E-06
    2        -1.762768226233E+04     1.9120E-06     9.8802E-07    -1.0388E-05
    3        -1.762768226700E+04     3.8721E-06     2.0685E-06    -4.6750E-06
    4        -1.762768227757E+04     1.3231E-06     6.8275E-07    -1.0568E-05
    5        -1.762768228375E+04     1.7112E-06     9.0059E-07    -6.1829E-06
    6        -1.762768228436E+04     1.4566E-06     7.5978E-07    -6.0799E-07
Finished density kernel iterations (   6)

Writing density kernel to file "Cr2I6_bilayer_HT_AFM_FM_SP.dkn" ... done


>>> Density kernel optimised for the current NGWF basis:
     ~~~~~~~~~~~~~~~~~~~~~~~~~~~~~~~~~~~~~~~~~~~~~~~~~~~~~~~~~~~
     Total energy                =  -1.76276822843596E+04  Eh
     Estimated bandgap (UP spin) =   3.6266E-02  Eh
     Estimated bandgap (DN spin) =   1.1250E-01  Eh
     RMS occupancy error         =   5.9361E-16
     [H,K] commutator            =   7.5978E-07
     UP spin occupancy bounds    = [  0.000:  1.000]
     DN spin occupancy bounds    = [  0.000:  1.000]
     ~~~~~~~~~~~~~~~~~~~~~~~~~~~~~~~~~~~~~~~~~~~~~~~~~~~~~~~~~~~




################################################################################
########################### NGWF CG iteration  004 #############################
################################################################################

>>> Checking for convergence of NGWFs:   NOT CONVERGED
  ========================================================================
         NGWF RMS gradient =  3.8731E-07 <  1.0000E-06  | CONVERGED
  Maximum change in energy =  1.9599E-07 >  1.0000E-07  | above tolerance
  ========================================================================

>>> Improving NGWFs using line search:
WARNING: Cubic fit was unsuccessful.
  ========================================================================
   Predicted total energy    =       0.00000000000000E+00 Eh
   Predicted gain in energy  =       1.76276822843596E+04 Eh
  ========================================================================

Writing NGWFs to file "Cr2I6_bilayer_HT_AFM_FM_SP.tightbox_ngwfs".... done

>>> Optimising kernel for current NGWFs:
   iter  |      energy (Eh)       | rms gradient |  commutator  |   dE (Eh)
    1        -1.762768229560E+04     1.5247E-06     7.8730E-07
    2        -1.762768229601E+04     9.1852E-07     4.6682E-07    -4.0927E-07
    3        -1.762768229596E+04     7.0498E-07     3.5696E-07     4.6635E-08
    4        -1.762768229590E+04     5.9284E-07     3.0038E-07     6.1493E-08
    5        -1.762768229586E+04     5.2052E-07     2.6393E-07     3.9447E-08
    6        -1.762768229584E+04     4.7086E-07     2.3880E-07     2.1952E-08
Finished density kernel iterations (   6)

Writing density kernel to file "Cr2I6_bilayer_HT_AFM_FM_SP.dkn" ... done


>>> Density kernel optimised for the current NGWF basis:
     ~~~~~~~~~~~~~~~~~~~~~~~~~~~~~~~~~~~~~~~~~~~~~~~~~~~~~~~~~~~
     Total energy                =  -1.76276822958386E+04  Eh
     Estimated bandgap (UP spin) =   3.6266E-02  Eh
     Estimated bandgap (DN spin) =   1.1220E-01  Eh
     RMS occupancy error         =   4.9267E-16
     [H,K] commutator            =   2.3880E-07
     UP spin occupancy bounds    = [  0.000:  1.000]
     DN spin occupancy bounds    = [ -0.000:  1.000]
     ~~~~~~~~~~~~~~~~~~~~~~~~~~~~~~~~~~~~~~~~~~~~~~~~~~~~~~~~~~~




################################################################################
########################### NGWF CG iteration  005 #############################
################################################################################

>>> Checking for convergence of NGWFs:   NOT CONVERGED
  ========================================================================
         NGWF RMS gradient =  3.6524E-07 <  1.0000E-06  | CONVERGED
  Maximum change in energy =  1.9599E-07 >  1.0000E-07  | above tolerance
  ========================================================================

>>> Improving NGWFs using line search:
Resetting NGWF CG
  ========================================================================
   Predicted total energy    =      -1.76276823605416E+04 Eh
   Predicted gain in energy  =      -6.47030246909708E-05 Eh
  ========================================================================

Writing NGWFs to file "Cr2I6_bilayer_HT_AFM_FM_SP.tightbox_ngwfs".... done

>>> Optimising kernel for current NGWFs:
   iter  |      energy (Eh)       | rms gradient |  commutator  |   dE (Eh)
    1        -1.762768230588E+04     4.0109E-06     2.0607E-06
    2        -1.762768231089E+04     3.5839E-06     1.8360E-06    -5.0082E-06
    3        -1.762768231942E+04     2.8024E-06     1.4259E-06    -8.5243E-06
    4        -1.762768233235E+04     1.9460E-06     1.0012E-06    -1.2929E-05
    5        -1.762768233880E+04     1.4868E-06     7.6616E-07    -6.4539E-06
    6        -1.762768234472E+04     1.2725E-06     6.6606E-07    -5.9250E-06
    7        -1.762768235020E+04     1.1706E-06     6.1318E-07    -5.4709E-06
Finished density kernel iterations (   7)

Writing density kernel to file "Cr2I6_bilayer_HT_AFM_FM_SP.dkn" ... done


>>> Density kernel optimised for the current NGWF basis:
     ~~~~~~~~~~~~~~~~~~~~~~~~~~~~~~~~~~~~~~~~~~~~~~~~~~~~~~~~~~~
     Total energy                =  -1.76276823501957E+04  Eh
     Estimated bandgap (UP spin) =   3.6309E-02  Eh
     Estimated bandgap (DN spin) =   1.1251E-01  Eh
     RMS occupancy error         =   7.9846E-15
     [H,K] commutator            =   6.1318E-07
     UP spin occupancy bounds    = [  0.000:  1.000]
     DN spin occupancy bounds    = [  0.000:  1.000]
     ~~~~~~~~~~~~~~~~~~~~~~~~~~~~~~~~~~~~~~~~~~~~~~~~~~~~~~~~~~~




################################################################################
########################### NGWF CG iteration  006 #############################
################################################################################

>>> Checking for convergence of NGWFs: 
           ........................................................
           |         *** NGWF optimisation converged ***          |
           | RMS NGWF gradient =    0.00000048506501              |
           | Maximum change in energy =  0.00000009437000 / atom  |
           | Criteria satisfied:                                  |
           | -> RMS NGWF gradient lower than set threshold.       |
           | -> Energy change per atom lower than set threshold.  |
           ========================================================

================================================================================
           ---------------- ENERGY COMPONENTS (Eh) ----------------
           | Kinetic                    :     3648.47577949645165 |
           | Core Hartree               :   -95381.74745276274920 |
           | CoreHart (non-coul chg cor):        0.00000000000000
           | Hartree                    :    46419.67821157390430 |
           | Exchange-correlation       :    -2499.75665379709926 |
           | Hubbard DFT+U correction   :        9.19721287051682 |
           | Ewald                      :    31475.17718035514550 |
           | Dij0                       :    -1112.36117913445446 |
           | Dijhartree                 :      499.50077571541453 |
           | Exc [AE core]              :   -84836.35678711508810 |
           | Exc DC [AE core]           :    -3285.23109169922009 |
           | Exc [PS core]              :    -2068.03069109385024 |
           | Exc DC [PS core]           :    -1969.20645032573475 |
           | Exc [Core]                 :   -82082.47987150846170 |
           | Total [Sphere]             :    -1298.70662793182419 |
           | Total                      :   -17627.68235019565330 |
           --------------------------------------------------------
           Integrated compensation chrg.:      378.87752487105411
           Integrated density           :     5039.99987169565702
           Integrated spin density      :      431.99990829447052
           Integrated |spin density|    :      395.29694214923649
================================================================================


Writing Hamiltonian to file "Cr2I6_bilayer_HT_AFM_FM_SP.ham" ... done

                        <<<<< CALCULATION SUMMARY >>>>>                         
|ITER|    RMS GRADIENT   |     TOTAL ENERGY    |   step   |     Epredicted              
   0     0.00000065651239 -17627.68204351532040   0.600086 -17627.68212967673030        
   1     0.00000027988249 -17627.68213941095380   2.438443 -17627.68221292994710        
   2     0.00000058255085 -17627.68217146783350   1.009686 -17627.68228561562860        
   3     0.00000038730838 -17627.68228435963100   0.150000      0.00000000000000        
   4     0.00000036523821 -17627.68229583856010   1.455991 -17627.68236054158480        
[...]
*    Cr    433      0.00015187  -0.00012915  -0.00009316 *
*    Cr    434     -0.00007190   0.00022125  -0.00010063 *
*    I     435      0.00564244   0.00001406  -0.00801062 *
*    I     436     -0.00310904  -0.00510892  -0.00733568 *
*    I     437     -0.00311742   0.00514123  -0.00733264 *
*    I     438     -0.00584622  -0.00000728   0.01009937 *
*    I     439      0.00290318   0.00507793   0.01009850 *
*    I     440      0.00290535  -0.00510611   0.01009655 *
*    Cr    441      0.00005805  -0.00023932   0.00010244 *
*    Cr    442      0.00002923   0.00021427   0.00010649 *
*    I     443      0.00583435   0.00000983  -0.01009766 *
*    I     444     -0.00290679  -0.00507492  -0.01009751 *
*    I     445     -0.00291771   0.00509897  -0.01009299 *
*    I     446     -0.00565228  -0.00001501   0.00801160 *
*    I     447      0.00310344   0.00510653   0.00733390 *
*    I     448      0.00310276  -0.00514840   0.00733385 *
*    Cr    449      0.00016254  -0.00010895  -0.00009040 *
*    Cr    450     -0.00007110   0.00021433  -0.00010395 *
*    I     451      0.00564350   0.00001455  -0.00801077 *
*    I     452     -0.00310801  -0.00510627  -0.00733843 *
*    I     453     -0.00311900   0.00514125  -0.00733265 *
*    I     454     -0.00584637  -0.00000930   0.01010015 *
*    I     455      0.00290343   0.00507611   0.01009926 *
*    I     456      0.00290448  -0.00510515   0.01009600 *
*    Cr    457      0.00005407  -0.00022732   0.00010285 *
*    Cr    458      0.00003394   0.00021489   0.00009960 *
*    I     459      0.00583721   0.00001277  -0.01010031 *
*    I     460     -0.00290847  -0.00507275  -0.01009903 *
*    I     461     -0.00291733   0.00510387  -0.01009662 *
*    I     462     -0.00565213  -0.00001501   0.00801288 *
*    I     463      0.00310179   0.00510580   0.00733655 *
*    I     464      0.00310594  -0.00514188   0.00733238 *
*    Cr    465      0.00015599  -0.00011407  -0.00009100 *
*    Cr    466      0.00012383   0.00010391  -0.00009923 *
*    I     467      0.00564621   0.00001818  -0.00801167 *
*    I     468     -0.00310543  -0.00510751  -0.00733794 *
*    I     469     -0.00311589   0.00514321  -0.00733273 *
*    I     470     -0.00585030  -0.00001229   0.01010135 *
*    I     471      0.00290528   0.00507507   0.01009936 *
*    I     472      0.00290393  -0.00510858   0.01009612 *
*    Cr    473      0.00005718  -0.00022291   0.00010397 *
*    Cr    474      0.00002604   0.00022549   0.00010362 *
*    I     475      0.00583785   0.00001447  -0.01010067 *
*    I     476     -0.00290928  -0.00507242  -0.01009940 *
*    I     477     -0.00291579   0.00510408  -0.01009647 *
*    I     478     -0.00565105  -0.00001160   0.00801234 *
*    I     479      0.00310193   0.00510561   0.00733643 *
*    I     480      0.00310586  -0.00514030   0.00733090 *
*    Cr    481     -0.00005185  -0.00022587  -0.00010598 *
*    Cr    482      0.00016900   0.00007970  -0.00009748 *
*    I     483      0.00564715   0.00001737  -0.00801259 *
*    I     484     -0.00310674  -0.00510673  -0.00733930 *
*    I     485     -0.00311598   0.00514474  -0.00733557 *
*    I     486     -0.00584795  -0.00000672   0.01009652 *
*    I     487      0.00290375   0.00507396   0.01009961 *
*    I     488      0.00290895  -0.00510490   0.01009655 *
*    Cr    489      0.00005592  -0.00021568   0.00010546 *
*    Cr    490      0.00003506   0.00023218   0.00010559 *
*    I     491      0.00583368   0.00000940  -0.01009913 *
*    I     492     -0.00290944  -0.00507367  -0.01009844 *
*    I     493     -0.00291967   0.00509956  -0.01009621 *
*    I     494     -0.00565014  -0.00001214   0.00801186 *
*    I     495      0.00310249   0.00510582   0.00733617 *
*    I     496      0.00310424  -0.00514348   0.00733293 *
*    Cr    497     -0.00004602  -0.00022364  -0.00010331 *
*    Cr    498     -0.00006139   0.00022530  -0.00010290 *
*    I     499      0.00564623   0.00001701  -0.00801194 *
*    I     500     -0.00310738  -0.00510819  -0.00733645 *
*    I     501     -0.00311692   0.00514345  -0.00733481 *
*    I     502     -0.00584775  -0.00000578   0.01009928 *
*    I     503      0.00290257   0.00507171   0.01009887 *
*    I     504      0.00290546  -0.00510369   0.01009431 *
*    Cr    505      0.00005027  -0.00020165   0.00009921 *
*    Cr    506      0.00003263   0.00023648   0.00010570 *
*    I     507      0.00583569   0.00000910  -0.01009996 *
*    I     508     -0.00290937  -0.00507340  -0.01009857 *
*    I     509     -0.00291993   0.00510121  -0.01009440 *
*    I     510     -0.00565267  -0.00001257   0.00801318 *
*    I     511      0.00310141   0.00510385   0.00733509 *
*    I     512      0.00310597  -0.00514363   0.00733208 *
*    Cr    513     -0.00003417  -0.00023884  -0.00010124 *
*    Cr    514     -0.00006461   0.00023128  -0.00010353 *
*    I     515      0.00564217   0.00001547  -0.00800979 *
*    I     516     -0.00310690  -0.00510995  -0.00733613 *
*    I     517     -0.00311912   0.00514083  -0.00733410 *
*    I     518     -0.00584782  -0.00000831   0.01009941 *
*    I     519      0.00290489   0.00507426   0.01009794 *
*    I     520      0.00290544  -0.00510731   0.01009782 *
*    Cr    521      0.00004556  -0.00020789   0.00010519 *
*    Cr    522      0.00005667   0.00022434   0.00010020 *
*    I     523      0.00583465   0.00000957  -0.01009789 *
*    I     524     -0.00291039  -0.00507354  -0.01009866 *
*    I     525     -0.00292127   0.00510204  -0.01009372 *
*    I     526     -0.00565553  -0.00001557   0.00801281 *
*    I     527      0.00310051   0.00510619   0.00733533 *
*    I     528      0.00310417  -0.00514909   0.00733277 *
*    Cr    529     -0.00004658  -0.00025207  -0.00010336 *
*    Cr    530     -0.00007144   0.00021751  -0.00010660 *
*    I     531      0.00564175   0.00001419  -0.00801114 *
*    I     532     -0.00310843  -0.00510968  -0.00733589 *
*    I     533     -0.00311842   0.00514186  -0.00733506 *
*    I     534     -0.00584660  -0.00000872   0.01010038 *
*    I     535      0.00290361   0.00507415   0.01009980 *
*    I     536      0.00290441  -0.00510602   0.01009721 *
*    Cr    537      0.00005895  -0.00023174   0.00010390 *
*    Cr    538      0.00004863   0.00021637   0.00010030 *
*    I     539      0.00583909   0.00001270  -0.01009992 *
*    I     540     -0.00290836  -0.00507327  -0.01009825 *
*    I     541     -0.00291595   0.00510483  -0.01009585 *
*    I     542     -0.00565517  -0.00001489   0.00801352 *
*    I     543      0.00310143   0.00510513   0.00733412 *
*    I     544      0.00310457  -0.00514477   0.00733141 *
*    Cr    545     -0.00004675  -0.00024207  -0.00010376 *
*    Cr    546     -0.00007303   0.00021252  -0.00010606 *
*    I     547      0.00564316   0.00001867  -0.00801266 *
*    I     548     -0.00311056  -0.00510573  -0.00733654 *
*    I     549     -0.00311686   0.00514271  -0.00733407 *
*    I     550     -0.00584953  -0.00001296   0.01010181 *
*    I     551      0.00290268   0.00507468   0.01009935 *
*    I     552      0.00290292  -0.00510846   0.01009970 *
*    Cr    553      0.00006673  -0.00022910   0.00010306 *
*    Cr    554      0.00003621   0.00021719   0.00010631 *
*    I     555      0.00583700   0.00001492  -0.01009999 *
*    I     556     -0.00290718  -0.00507308  -0.01009941 *
*    I     557     -0.00291589   0.00510500  -0.01009703 *
*    I     558     -0.00564994  -0.00000987   0.00800985 *
*    I     559      0.00310159   0.00510510   0.00733559 *
*    I     560      0.00310495  -0.00514149   0.00733163 *
*    Cr    561     -0.00005484  -0.00022517  -0.00010864 *
*    Cr    562     -0.00007310   0.00021399  -0.00010471 *
*    I     563      0.00564440   0.00002002  -0.00801233 *
*    I     564     -0.00310865  -0.00510476  -0.00733650 *
*    I     565     -0.00311487   0.00514793  -0.00733692 *
*    I     566     -0.00584637  -0.00000932   0.01009891 *
*    I     567      0.00290231   0.00507372   0.01009819 *
*    I     568      0.00290612  -0.00510456   0.01009569 *
*    Cr    569      0.00006176  -0.00022061   0.00010684 *
*    Cr    570      0.00003491   0.00022660   0.00010569 *
*    I     571      0.00583521   0.00001139  -0.01009930 *
*    I     572     -0.00290802  -0.00507224  -0.01009888 *
*    I     573     -0.00291760   0.00510086  -0.01009515 *
*    I     574     -0.00565081  -0.00001028   0.00801234 *
*    I     575      0.00310229   0.00510677   0.00733431 *
*    I     576      0.00310707  -0.00514097   0.00733238 *
*                                                        *
**********************************************************
* TOTAL:           -0.00000000  -0.00000000  -0.00000000 *
**********************************************************
 
 
***********************************************************
********** Summary of Forces (values in Eh/a) *************
*                                                         *
* ---------------------- Minimum ------------------------ *
* Atom:       354, |F|min =    0.00018760                 *
* Components:     Fx|min       Fy|min       Fz|min        *
*               0.00009419   0.00012522  -0.00010315      *
*                                                         *
* ---------------------- Maximum ------------------------ *
* Atom:        61, |F|max =    0.01168470                 *
* Components:     Fx|max       Fy|max       Fz|max        *
*              -0.00291659   0.00510858  -0.01009594      *
*                                                         *
* ---------------- Root Mean Square Force --------------- *
*                  |F|rms =    0.00924927                 *
* Components:     Fx|rms       Fy|rms       Fz|rms        *
*               0.00357547   0.00361271   0.00772744      *
***********************************************************
 

------------------------------ TIMING INFORMATION ------------------------------
AVERAGE TIME:    8884.332s on    180 proc(s)                                    
TOTAL TIME:      8884.332s on    180 proc(s)                                    
==================== AVERAGE TIMINGS FROM ALL PROCS (CUMULATIVE) =====================
|| TAG                                         #calls     cpu time   %total  Gflops ||
|| hubbard_species_proj                       :     1        0.00s   0.000%  ------ ||
|| sw_bessel_init_cpu                         :     1        0.01s   0.000%  ------ || (1 procs only)
|| hash_table_free                            :    12        0.00s   0.000%  ------ ||
|| density_fftbox_interp_mult_imbal           :  2982        0.00s   0.000%  ------ ||
|| hubbard_projector_character                :     1        0.00s   0.000%  ------ ||
|| hubbard_ngwf_select                        :     1        0.00s   0.000%  ------ ||
|| hubbard_ngwf_on_grid                       :     1        0.00s   0.000%  ------ ||
|| sparse_spam3toblacs_real_fast_imbal        :    10        0.01s   0.000%  ------ ||
|| ewald_calculate_forces_realspace           :     1        0.01s   0.000%  ------ ||
|| linalg_invert_sym_matrix                   :     4        0.01s   0.000%  ------ || (144 procs only)
|| hubbard_tensorial_correction               :     2        0.01s   0.000%  ------ ||
|| sparse_blacstospam3_real_fast_imbal        :    24        0.01s   0.000%  ------ ||
|| paw_dij_hartree                            :    74        0.02s   0.000%  ------ ||
|| sparse_set_to_garbage                      :   256        0.02s   0.000%  ------ ||
|| linalg_dgemv                               :    24        0.03s   0.000%  ------ ||
|| onetep.F90 final imbalance                 :     1        0.03s   0.000%  ------ ||
|| sparse_spam3toblacs_real_fast_B2           :  1800        0.04s   0.000%  ------ ||
|| ewald_calculate_energy                     :     1        0.05s   0.001%  ------ ||
|| ewald_calculate_forces_recipspace          :     1        0.08s   0.001%  ------ ||
|| sw_init                                    :   140        0.11s   0.001%  ------ ||
|| basis_extract_function_from_box            :   520        0.14s   0.002%  ------ ||
|| pseudo_make_structure_factor               :     1        0.15s   0.002%  ------ ||
|| onetep.F90 main loop imbalance             :     1        0.16s   0.002%  ------ ||
|| ewald_calculate_forces                     :     1        0.22s   0.002%  ------ ||
|| augmentation_density_forces                :     1        0.32s   0.004%  ------ ||
|| restart_kernel_read                        :     1        0.36s   0.004%  ------ ||
|| hubbard_projection_mtx                     :    14        0.58s   0.006%  ------ ||
|| paw_tcore_hartree_calc_forces              :     1        0.62s   0.007%  ------ ||
|| paw_tcore_hartree_on_grid                  :     1        0.62s   0.007%  ------ ||
|| restart_hamiltonian_write                  :     1        0.72s   0.008%  ------ ||
|| sparse_spam3toblacs_real_fast_B1           :  1800        1.29s   0.015%  ------ ||
|| hubbard_ham_matrix                         :    31        1.38s   0.016%  ------ ||
|| sparse_spam3toblacs_real_fast              :    10        1.42s   0.016%  ------ ||
|| dense_eigensolve                           :     2        1.64s   0.018%  ------ ||
|| hubbard_projector_ham                      :    31        1.66s   0.019%  ------ ||
|| paw_nlcc_calculate_forces                  :     1        1.69s   0.019%  ------ ||
|| paw_tcore_density                          :     1        1.69s   0.019%  ------ ||
|| restart_kernel_write                       :     5        1.73s   0.019%  ------ ||
|| ngwfs_initialise_from_radial               :     2        1.90s   0.021%  ------ ||
|| sparse_init                                :     1        2.29s   0.026%  ------ ||
|| paw_dataset_init                           :     2        2.30s   0.026%  ------ ||
|| paw_sphere_density_on_grid                 :     1        2.34s   0.026%  ------ ||
|| fourier_filter_cell                        :    74        3.55s   0.040% 369.937 ||
|| nonsc_forces_ngwfs_calc                    :     1        3.71s   0.042%  ------ ||
|| hubbard_energy_total                       :    67        4.81s   0.054%  ------ ||
|| sparse_blacstospam3_real_fast              :    24        4.92s   0.055%  ------ ||
|| hartree_on_grid_single                     :    69        5.13s   0.058%  ------ ||
|| sparse_embed_array_hotelling_invert        :    12        5.21s   0.059%  ------ ||
|| sparse_trace                               :  2082        6.23s   0.070%  ------ ||
|| basis_copy_function_to_box                 :  5288        6.26s   0.071%  ------ ||
|| fourier_apply_box_pair                     :   755        7.77s   0.087%  6.828k ||
|| ngwf_gradient_coeffs                       :     6        8.09s   0.091%  ------ ||
|| paw_species_calc_proj_prec_mat             :     1        9.17s   0.103%  ------ ||
|| restart_ngwfs_tightbox_input               :     1        9.55s   0.108%  ------ ||
|| kernel_fix                                 :    29       11.83s   0.133%  ------ ||
|| fourier_interpolate_cell                   :   142       12.01s   0.135% 209.690 ||
|| lnv_gradient_norm                          :    29       16.67s   0.188%  ------ ||
|| kernel_purify                              :   101       17.20s   0.194%  ------ ||
|| augmentation_screen_dij_spam3              :    68       19.99s   0.225%  ------ ||
|| fourier_apply_cell_backward                :   622       20.98s   0.236% 472.956 ||
|| energy_and_force_init_cell                 :     1       21.80s   0.245%  ------ ||
|| paw_dij_xc                                 :    74       22.88s   0.258%  ------ ||
|| aug_nonlocal_mat_spam3_embed_array         :    67       24.11s   0.271%  ------ ||
|| hubbard_calculate_forces                   :     1       25.06s   0.282%  ------ ||
|| fourier_apply_cell_forward                 :   622       26.70s   0.301% 371.558 ||
|| integrals_grad_spam3                       :     4       28.60s   0.322%  ------ ||
|| hubbard_projector_update                   :     1       36.73s   0.413%  ------ ||
|| fourier_filter                             :   884       37.57s   0.423%  ------ ||
|| projectors_func_grad_ovlp_box_spam3        :     6       42.02s   0.473%  ------ ||
|| hamiltonian_energy_components              :     1       42.21s   0.475%  ------ ||
|| aug_nl_calculate_forces                    :     1       43.63s   0.491%  ------ ||
|| cell_grid_deposit_box_real                 :  4211       46.00s   0.518%  ------ ||
|| xc_energy_potential                        :    69       50.14s   0.564%  ------ ||
|| fourier_interpolate                        :   884       53.50s   0.602%  ------ ||
|| aug_density_on_grid_spam3                  :    71       53.89s   0.607%  ------ ||
|| eigenstates_calculate                      :     1       59.28s   0.667%  ------ ||
|| projectors_init_fftbox_recip               :   133       75.14s   0.846%  ------ ||
|| restart_ngwfs_tightbox_output              :     5       81.02s   0.912%  ------ ||
|| sparse_product                             :  4424       97.29s   1.095%  ------ ||
|| function_ops_brappd_ketppd_spam3           :    52      128.50s   1.446%  ------ ||
|| forces_calculate                           :     1      154.18s   1.735%  ------ ||
|| projectors_func_ovlp_box_spam3             :    54      223.84s   2.519%  ------ ||
|| density_fftbox_deposit_to_cell             :  2982      241.24s   2.715%  ------ ||
|| integrals_kinetic_spam3                    :    24      285.63s   3.215%  ------ ||
|| basis_dot_function_with_box                : 3.099M     299.15s   3.367%  ------ ||
|| cell_grid_extract_box_real                 :  2347      300.61s   3.384%  ------ ||
|| potential_apply_to_ngwf_batch              :   124      373.16s   4.200%  ------ ||
|| fourier_apply_box                          : 15461      499.82s   5.626%  7.107k ||
|| projectors_gradient_batch                  :    48      502.79s   5.659%  ------ ||
|| fourier_interpolate_product                :  2840      523.46s   5.892%  ------ ||
|| density_fftbox_interpolate_multiply        :  2982      541.58s   6.096%  ------ ||
|| basis_add_function_to_box                  : 6.685M     699.63s   7.875%  ------ ||
|| integrals_locpot_mat_els_batch             :   124      748.53s   8.425%  ------ ||
|| properties_calculate                       :     1      749.75s   8.439%  ------ ||
|| density_batch_interp_deposit               :   284     1117.07s  12.574%  ------ ||
|| integrals_locpot_dbl_grid                  :    62     1124.50s  12.657%  ------ ||
|| projectors_grad_precond_batch              :    24     1161.20s  13.070%  ------ ||
|| density_batch_row_sums                     :   284     1571.62s  17.690%  ------ ||
|| ngwf_gradient_build_batch                  :    24     1922.40s  21.638%  ------ ||
|| density_on_dbl_grid                        :   142     2766.93s  31.144%  ------ ||
|| hamiltonian_lhxc_calculate                 :    67     2781.36s  31.306%  ------ ||
|| ngwf_gradient_batch                        :    24     2919.01s  32.856%  ------ ||
|| ngwf_gradient_lnv                          :     6     3138.90s  35.331%  ------ ||
|| lnv_denskernel_optimise_cg                 :     5     3563.05s  40.105%  ------ ||
|| ngwf_cg_optimise                           :     1     7824.32s  88.069%  ------ ||
|| energy_and_forces                          :     1     8860.40s  99.731%  ------ ||
|| total_time                                 :     1     8884.33s 100.000%  ------ ||
======================================================================================
Overhead of generating timer report: 
- 0 ms averaging over threads,
- 17 ms ensuring consistency across MPI ranks,
- 5 ms printing in order.

Job completed: 01-06-2025 01:58 (+0100)

onetep_launcher: ONETEP seems to have finished correctly (zero exit code).
                 Brought to you by PID 225721 on nid004841.
