==================================================================================
It's Thu 31 Oct 2024 09:08:29 PM GMT.
*** Starting onetep_launcher (node nid001214, PIDs 143838 143839 143840 143841 143842 143843)...
    - ONETEP arguments: Cr2I6_bilayer_HT_AFM_FM_SP.dat
    - Current directory: /mnt/lustre/a2fs-work3/work/e89/e89/phsmea/CrI3_onetep_U/U_2.97/HT_AFM/HT_AFM_FM/sp-ngwfs
    - Launcher executable directory: /mnt/lustre/a2fs-work3/work/e89/e89/phsmea/CrI3_onetep_U/U_2.97/HT_AFM/HT_AFM_FM/sp-ngwfs
    - (-e) ONETEP executable specified through command-line: /work/e89/e89/phsmea/onetep.archer2_2024_cray
      ... trying /work/e89/e89/phsmea/onetep.archer2_2024_cray
          -> looks OK
*** Setting up environment...
    - (-s) Process stack size: unlimited
    - (-t) OMP_NUM_THREADS: 16
    - (-o) OMP_STACKSIZE: 64M
    - (-c) Maximum core file size: 2048000
    - (-d) decfort_dump_flag: n
    - (-m) I_MPI_OFA_TRANSLATION_CACHE: 0
    - (-m) I_MPI_DAPL_TRANSLATION_CACHE: 0
    - (-m) I_MPI_DAPL_UD_TRANSLATION_CACHE: 0
*** Starting ONETEP...
    - /work/e89/e89/phsmea/onetep.archer2_2024_cray Cr2I6_bilayer_HT_AFM_FM_SP.dat
=================================================================================
_________________________________________________________________________________
 +---------------------------------------------------------------+
 |                                                               |
 |        ####### #     # ####### ####### ####### ######         |
 |        #     # ##    # #          #    #       #     #        |
 |        #     # # #   # #          #    #       #     #        |
 |        #     # #  #  # #####      #    #####   ######         |
 |        #     # #   # # #          #    #       #              |
 |        #     # #    ## #          #    #       #              |
 |        ####### #     # #######    #    ####### #              |
 |                                                               |
 |        Linear-Scaling Ab Initio Total Energy Program          |
 |                                                               |
 |          Release for academic collaborators of ODG            |
 |                                             Version 7.3.0     |
 | Remote: git@github.com:Miesaz/onetep_mea.git                  |
 | Local branch: master                                          |
 | Commit ID: 4af45e89288c8df5499704252eec3e032ee3d0c8           |
 | Date: Tue Aug 6 11:28:44 2024 +0100                           |
 | Working tree clean                                            |
 |                                                               |
 +---------------------------------------------------------------+
 |                                                               |
 |  Authors:                                                     |
 |  Jacek Dziedzic, Peter D. Haynes, Nicholas D. M. Hine,        |
 |  Arash A. Mostofi, Mike C. Payne and Chris-Kriton Skylaris    |
 |                                                               |
 |  Contributors:                                                |
 |  J. Aarons, L. Andrinopoulos, P. W. Avraam, R. A. Bell,       |
 |  A. Bhandari, G. A. Bramley, R. J. Charlton, S. J. Clark,     |
 |  R. J. Clements, G. C. Constantinescu, F. Corsetti,           |
 |  N. Corsini, O. Dieguez, S. M. M. Dubois, K. K. B. Duff,      |
 |  J. M. Escartin, M. Escobar Azor, A. Greco,                   |
 |  H. Helal, Q. O. Hill, L. P. Lee, J.-H. Li,                   |
 |  T. Li, E. B. Linscott, G. Moynihan, D. D. O`Regan,           |
 |  O. K. Okan, E. Parkinson, M. J. S. Phipps,                   |
 |  C. J. Pickard, J. C. A. Prentice, M. I. J. Probert,          |
 |  L. E. Ratcliff, M. Robinson, A. Ruiz Serrano,                |
 |  M. dos Santos Dias, J. S. Spencer, E. W. Tait,               |
 |  G. Teobaldi, D. Turban, V. Vitale, K. A. Wilkinson,          |
 |  C. Weber, J. C. Womack, Chengcheng Xiao, N. Yeung,           |
 |  and T. J. Zuehlsdorff.                                       |
 |                                                               |
 |                                   Copyright (c) 2004-2024     |
 |                                                               |
 |  Please cite:                                                 |
 |  "The ONETEP linear-scaling density functional theory program"|
 |   J. Chem. Phys. 152(17) 174111 (2020)                        |
 |                                                               |
 |          in all publications arising from your use of ONETEP. |
 |                                                               |
 +---------------------------------------------------------------+
 |                                                               |
 |   ONETEP is based on developments described in the following  |
 |   publications:                                               |
 |                                                               |
 |  "Nonorthogonal generalized Wannier function pseudopotential  |
 |   plane-wave method".                                         |
 |   C.-K. Skylaris, A. A. Mostofi, P. D. Haynes, O. Dieguez,    |
 |   M. C. Payne.                                                |
 |   Phys. Rev. B 66 035119 (2002).                              |
 |                                                               |
 |  "Preconditioned iterative minimization for linear-scaling    |
 |   electronic structure calculations".                         |
 |   A. A. Mostofi, P. D. Haynes, C.-K. Skylaris, M. C. Payne.   |
 |   J. Chem. Phys. 119(17), pp.8842-8848 (2003).                |
 |                                                               |
 |  "Total-energy calculations on a real space grid with         |
 |   localized functions and a plane-wave basis".                |
 |   A. A. Mostofi, C.-K. Skylaris, P. D. Haynes, M. C. Payne.   |
 |   Comput. Phys. Commun. 147, pp.788-802 (2002).               |
 |                                                               |
 |  "Accurate kinetic energy evaluation in electronic structure  |
 |   calculations with localized functions on real space grids"  |
 |   C.-K. Skylaris, A. A. Mostofi, P. D. Haynes, C. J. Pickard, |
 |   M. C. Payne.                                                |
 |   Comput. Phys. Commun. 140, pp.315-322 (2001).               |
 |                                                               |
 |  "Accurate ionic forces and geometry optimization in linear-  |
 |   scaling density-functional theory with local orbitals"      |
 |   N. D. M. Hine, M. Robinson, P. D. Haynes, C.-K. Skylaris,   |
 |   M. C. Payne, and A. A. Mostofi.                             |
 |   Phys. Rev. B 83 195102 (2011).                              |
 |                                                               |
 +---------------------------------------------------------------+

Job started: 31-10-2024 21:08 (+0000)
 
Reading parameters from file "Cr2I6_bilayer_HT_AFM_FM_SP.dat" ...... done

If your calculation crashes here, before "Checking processes and threads..."
is displayed, then your stack size is insufficient.
If so, use "ulimit -s unlimited" at runtime.
You can disable this check with "check_stack_size F".

Checking processes and threads...
      Default threads: 16
   Running with 150 MPI processes.
   There are 6 MPI processes running on the same node as the root process.
   Each MPI process is using: 
               1 threads for simulation cell FFTs.
               1 threads for threaded FFT box operations.
              16 threads for loops over batched FFT box operations.
              16 threads in other parallel regions.
   MPI Interface: S1 (use mpi_f08) (-DMPI -DUSE_MPI_F08).
   MPI_ASYNC_PROTECTS_NONBLOCKING: Yes. MPI_SUBARRAYS_SUPPORTED: Yes.
   FFTW Interface: OMP-capable and MODERN. (-DUSE_MODERN_FFTW specified).
   GPU Interface: None.
   GPU FFT Backend: None.
... done

Basic input checks...... done

Reading geometry and species blocks from file "Cr2I6_bilayer_HT_AFM_FM_SP.dat" ...... done


--------------------------------------------------------------------------------
---------------------------------- INPUT FILE ----------------------------------
--------------------------------------------------------------------------------

charge : 0                                                                      
cutoff_energy : 1000 eV                                                         
do_properties : T                                                               
edft : F                                                                        
edft_init_maxit : 5                                                             
elec_energy_tol : 2e-07 Ha                                                      
fine_grid_scale : 4                                                             
forces_output_detail : VERBOSE                                                  
maxit_ngwf_cg : 100                                                             
ngwf_threshold_orig : 1e-06                                                     
ngwfs_spin_polarized : T                                                        
output_detail : NORMAL                                                          
paw : T                                                                         
read_denskern : T                                                               
read_hamiltonian : T                                                            
read_tightbox_ngwfs : T                                                         
spin : 432                                                                      
spin_polarized : T                                                              
task : SinglePoint                                                              
write_denskern : T                                                              
write_forces : T                                                                
write_hamiltonian : T                                                           
write_tightbox_ngwfs : T                                                        
xc_functional : PBE                                                             
%BLOCK LATTICE_CART                                                             
ang                                                                             
41.261892132       0.000000000000000        0.000000000000000                   
-20.630946066       35.733846792             0.000000000000000                  
0.000000000000000   0.0000000000000000       27.507928088                       
%ENDBLOCK LATTICE_CART                                                          
%BLOCK POSITIONS_ABS                                                            
ang                                                                             
Cr       5.73012301       1.98615267      15.61475195                           
Cr       2.29163200       3.96948846      15.61475241                           
I        6.71804295      -0.00001318      14.06395847                           
I        3.51661508       2.12334657      14.07089707                           
I        0.07814689       3.83230774      14.07089707                           
I        4.74445508      -0.00001140      17.15723785                           
I        4.50489604       3.83201918      17.15707434                           
I        1.06642478       2.12363336      17.15707434                           
Cr       3.43917878       1.98613277       9.03123330                           
Cr       0.00068777       3.96950836       9.03123376                           
I        4.42486276      -0.00001318       7.48874545                           
I        1.22590088       2.12363241       7.48890841                           
I       -2.21256731       3.83202190       7.48890841                           
I        2.45126709      -0.00001140      10.58202506                           
I        2.21418512       3.83230199      10.57507890                           
I       -1.22428614       2.12335055      10.57507890                           
Cr       2.29163200       7.94179381      15.61475195                           
Cr      -1.14685901       9.92512959      15.61475241                           
I        3.27955194       5.95562795      14.06395847                           
I        0.07812407       8.07898770      14.07089707                           
I       -3.36034412       9.78794887      14.07089707                           
I        1.30596407       5.95562973      17.15723785                           
I        1.06640503       9.78766031      17.15707434                           
I       -2.37206623       8.07927449      17.15707434                           
Cr       0.00068777       7.94177390       9.03123330                           
Cr      -3.43780324       9.92514949       9.03123376                           
I        0.98637175       5.95562795       7.48874545                           
I       -2.21259013       8.07927354       7.48890841                           
I       -5.65105832       9.78766304       7.48890841                           
I       -0.98722392       5.95562973      10.58202506                           
I       -1.22430589       9.78794313      10.57507890                           
I       -4.66277715       8.07899168      10.57507890                           
Cr      -1.14685901      13.89743494      15.61475195                           
Cr      -4.58535002      15.88077072      15.61475241                           
I       -0.15893907      11.91126908      14.06395847                           
I       -3.36036694      14.03462883      14.07089707                           
I       -6.79883513      15.74359001      14.07089707                           
I       -2.13252694      11.91127086      17.15723785                           
I       -2.37208598      15.74330145      17.15707434                           
I       -5.81055724      14.03491562      17.15707434                           
Cr      -3.43780324      13.89741504       9.03123330                           
Cr      -6.87629425      15.88079062       9.03123376                           
I       -2.45211926      11.91126908       7.48874545                           
I       -5.65108114      14.03491467       7.48890841                           
I       -9.08954933      15.74330417       7.48890841                           
I       -4.42571493      11.91127086      10.58202506                           
I       -4.66279691      15.74358426      10.57507890                           
I       -8.10126817      14.03463281      10.57507890                           
Cr      -4.58535002      19.85307607      15.61475195                           
Cr      -8.02384103      21.83641185      15.61475241                           
I       -3.59743008      17.86691022      14.06395847                           
I       -6.79885795      19.99026996      14.07089707                           
I      -10.23732614      21.69923114      14.07089707                           
I       -5.57101795      17.86691200      17.15723785                           
I       -5.81057699      21.69894258      17.15707434                           
I       -9.24904825      19.99055675      17.15707434                           
Cr      -6.87629425      19.85305617       9.03123330                           
Cr     -10.31478526      21.83643175       9.03123376                           
I       -5.89061027      17.86691022       7.48874545                           
I       -9.08957216      19.99055580       7.48890841                           
I      -12.52804035      21.69894530       7.48890841                           
I       -7.86420594      17.86691200      10.58202506                           
I       -8.10128792      21.69922539      10.57507890                           
I      -11.53975918      19.99027394      10.57507890                           
Cr      -8.02384103      25.80871720      15.61475195                           
Cr     -11.46233204      27.79205298      15.61475241                           
I       -7.03592109      23.82255135      14.06395847                           
I      -10.23734897      25.94591110      14.07089707                           
I      -13.67581716      27.65487227      14.07089707                           
I       -9.00950896      23.82255313      17.15723785                           
I       -9.24906800      27.65458371      17.15707434                           
I      -12.68753926      25.94619789      17.15707434                           
Cr     -10.31478526      25.80869730       9.03123330                           
Cr     -13.75327627      27.79207289       9.03123376                           
I       -9.32910128      23.82255135       7.48874545                           
I      -12.52806317      25.94619693       7.48890841                           
I      -15.96653136      27.65458643       7.48890841                           
I      -11.30269695      23.82255313      10.58202506                           
I      -11.53977893      27.65486652      10.57507890                           
I      -14.97825019      25.94591507      10.57507890                           
Cr     -11.46233205      31.76435833      15.61475195                           
Cr     -14.90082306      33.74769412      15.61475241                           
I      -10.47441210      29.77819248      14.06395847                           
I      -13.67583998      31.90155223      14.07089707                           
I      -17.11430817      33.61051340      14.07089707                           
I      -12.44799997      29.77819426      17.15723785                           
I      -12.68755901      33.61022484      17.15707434                           
I      -16.12603027      31.90183902      17.15707434                           
Cr     -13.75327627      31.76433843       9.03123330                           
Cr     -17.19176728      33.74771402       9.03123376                           
I      -12.76759229      29.77819248       7.48874545                           
I      -15.96655418      31.90183807       7.48890841                           
I      -19.40502237      33.61022756       7.48890841                           
I      -14.74118796      29.77819426      10.58202506                           
I      -14.97826994      33.61050765      10.57507890                           
I      -18.41674120      31.90155621      10.57507890                           
Cr      12.60710503       1.98615267      15.61475195                           
Cr       9.16861402       3.96948846      15.61475241                           
I       13.59502497      -0.00001318      14.06395847                           
I       10.39359710       2.12334657      14.07089707                           
I        6.95512891       3.83230774      14.07089707                           
I       11.62143710      -0.00001140      17.15723785                           
I       11.38187806       3.83201918      17.15707434                           
I        7.94340680       2.12363336      17.15707434                           
Cr      10.31616080       1.98613277       9.03123330                           
Cr       6.87766979       3.96950836       9.03123376                           
I       11.30184479      -0.00001318       7.48874545                           
I        8.10288290       2.12363241       7.48890841                           
I        4.66441471       3.83202190       7.48890841                           
I        9.32824912      -0.00001140      10.58202506                           
I        9.09116714       3.83230199      10.57507890                           
I        5.65269588       2.12335055      10.57507890                           
Cr       9.16861402       7.94179381      15.61475195                           
Cr       5.73012301       9.92512959      15.61475241                           
I       10.15653396       5.95562795      14.06395847                           
I        6.95510609       8.07898770      14.07089707                           
I        3.51663790       9.78794887      14.07089707                           
I        8.18294609       5.95562973      17.15723785                           
I        7.94338705       9.78766031      17.15707434                           
I        4.50491579       8.07927449      17.15707434                           
Cr       6.87766979       7.94177390       9.03123330                           
Cr       3.43917878       9.92514949       9.03123376                           
I        7.86335378       5.95562795       7.48874545                           
I        4.66439189       8.07927354       7.48890841                           
I        1.22592370       9.78766304       7.48890841                           
I        5.88975810       5.95562973      10.58202506                           
I        5.65267613       9.78794313      10.57507890                           
I        2.21420487       8.07899168      10.57507890                           
Cr       5.73012301      13.89743494      15.61475195                           
Cr       2.29163200      15.88077072      15.61475241                           
I        6.71804295      11.91126908      14.06395847                           
I        3.51661508      14.03462883      14.07089707                           
I        0.07814689      15.74359001      14.07089707                           
I        4.74445508      11.91127086      17.15723785                           
I        4.50489604      15.74330145      17.15707434                           
I        1.06642478      14.03491562      17.15707434                           
Cr       3.43917878      13.89741504       9.03123330                           
Cr       0.00068777      15.88079062       9.03123376                           
I        4.42486276      11.91126908       7.48874545                           
I        1.22590088      14.03491467       7.48890841                           
I       -2.21256731      15.74330417       7.48890841                           
I        2.45126709      11.91127086      10.58202506                           
I        2.21418512      15.74358426      10.57507890                           
I       -1.22428614      14.03463281      10.57507890                           
Cr       2.29163200      19.85307607      15.61475195                           
Cr      -1.14685901      21.83641185      15.61475241                           
I        3.27955194      17.86691022      14.06395847                           
I        0.07812407      19.99026996      14.07089707                           
I       -3.36034412      21.69923114      14.07089707                           
I        1.30596407      17.86691200      17.15723785                           
I        1.06640503      21.69894258      17.15707434                           
I       -2.37206623      19.99055675      17.15707434                           
Cr       0.00068777      19.85305617       9.03123330                           
Cr      -3.43780324      21.83643175       9.03123376                           
I        0.98637175      17.86691022       7.48874545                           
I       -2.21259013      19.99055580       7.48890841                           
I       -5.65105832      21.69894530       7.48890841                           
I       -0.98722392      17.86691200      10.58202506                           
I       -1.22430589      21.69922539      10.57507890                           
I       -4.66277715      19.99027394      10.57507890                           
Cr      -1.14685901      25.80871720      15.61475195                           
Cr      -4.58535002      27.79205298      15.61475241                           
I       -0.15893907      23.82255135      14.06395847                           
I       -3.36036694      25.94591110      14.07089707                           
I       -6.79883513      27.65487227      14.07089707                           
I       -2.13252694      23.82255313      17.15723785                           
I       -2.37208598      27.65458371      17.15707434                           
I       -5.81055724      25.94619789      17.15707434                           
Cr      -3.43780324      25.80869730       9.03123330                           
Cr      -6.87629425      27.79207289       9.03123376                           
I       -2.45211926      23.82255135       7.48874545                           
I       -5.65108114      25.94619693       7.48890841                           
I       -9.08954933      27.65458643       7.48890841                           
I       -4.42571493      23.82255313      10.58202506                           
I       -4.66279691      27.65486652      10.57507890                           
I       -8.10126817      25.94591507      10.57507890                           
Cr      -4.58535002      31.76435833      15.61475195                           
Cr      -8.02384103      33.74769412      15.61475241                           
I       -3.59743008      29.77819248      14.06395847                           
I       -6.79885795      31.90155223      14.07089707                           
I      -10.23732614      33.61051340      14.07089707                           
I       -5.57101795      29.77819426      17.15723785                           
I       -5.81057699      33.61022484      17.15707434                           
I       -9.24904825      31.90183902      17.15707434                           
Cr      -6.87629425      31.76433843       9.03123330                           
Cr     -10.31478526      33.74771402       9.03123376                           
I       -5.89061027      29.77819248       7.48874545                           
I       -9.08957216      31.90183807       7.48890841                           
I      -12.52804035      33.61022756       7.48890841                           
I       -7.86420594      29.77819426      10.58202506                           
I       -8.10128792      33.61050765      10.57507890                           
I      -11.53975918      31.90155621      10.57507890                           
Cr      19.48408705       1.98615267      15.61475195                           
Cr      16.04559604       3.96948846      15.61475241                           
I       20.47200700      -0.00001318      14.06395847                           
I       17.27057912       2.12334657      14.07089707                           
I       13.83211093       3.83230774      14.07089707                           
I       18.49841912      -0.00001140      17.15723785                           
I       18.25886009       3.83201918      17.15707434                           
I       14.82038883       2.12363336      17.15707434                           
Cr      17.19314283       1.98613277       9.03123330                           
Cr      13.75465182       3.96950836       9.03123376                           
I       18.17882681      -0.00001318       7.48874545                           
I       14.97986492       2.12363241       7.48890841                           
I       11.54139673       3.83202190       7.48890841                           
I       16.20523114      -0.00001140      10.58202506                           
I       15.96814916       3.83230199      10.57507890                           
I       12.52967790       2.12335055      10.57507890                           
Cr      16.04559604       7.94179381      15.61475195                           
Cr      12.60710503       9.92512959      15.61475241                           
I       17.03351599       5.95562795      14.06395847                           
I       13.83208811       8.07898770      14.07089707                           
I       10.39361992       9.78794887      14.07089707                           
I       15.05992811       5.95562973      17.15723785                           
I       14.82036907       9.78766031      17.15707434                           
I       11.38189781       8.07927449      17.15707434                           
Cr      13.75465181       7.94177390       9.03123330                           
Cr      10.31616080       9.92514949       9.03123376                           
I       14.74033580       5.95562795       7.48874545                           
I       11.54137391       8.07927354       7.48890841                           
I        8.10290572       9.78766304       7.48890841                           
I       12.76674013       5.95562973      10.58202506                           
I       12.52965815       9.78794313      10.57507890                           
I        9.09118689       8.07899168      10.57507890                           
Cr      12.60710503      13.89743494      15.61475195                           
Cr       9.16861402      15.88077072      15.61475241                           
I       13.59502497      11.91126908      14.06395847                           
I       10.39359710      14.03462883      14.07089707                           
I        6.95512891      15.74359001      14.07089707                           
I       11.62143710      11.91127086      17.15723785                           
I       11.38187806      15.74330145      17.15707434                           
I        7.94340680      14.03491562      17.15707434                           
Cr      10.31616080      13.89741504       9.03123330                           
Cr       6.87766979      15.88079062       9.03123376                           
I       11.30184479      11.91126908       7.48874545                           
I        8.10288290      14.03491467       7.48890841                           
I        4.66441471      15.74330417       7.48890841                           
I        9.32824912      11.91127086      10.58202506                           
I        9.09116714      15.74358426      10.57507890                           
I        5.65269588      14.03463281      10.57507890                           
Cr       9.16861402      19.85307607      15.61475195                           
Cr       5.73012301      21.83641185      15.61475241                           
I       10.15653396      17.86691022      14.06395847                           
I        6.95510609      19.99026996      14.07089707                           
I        3.51663790      21.69923114      14.07089707                           
I        8.18294609      17.86691200      17.15723785                           
I        7.94338705      21.69894258      17.15707434                           
I        4.50491579      19.99055675      17.15707434                           
Cr       6.87766979      19.85305617       9.03123330                           
Cr       3.43917878      21.83643175       9.03123376                           
I        7.86335378      17.86691022       7.48874545                           
I        4.66439189      19.99055580       7.48890841                           
I        1.22592370      21.69894530       7.48890841                           
I        5.88975810      17.86691200      10.58202506                           
I        5.65267613      21.69922539      10.57507890                           
I        2.21420487      19.99027394      10.57507890                           
Cr       5.73012301      25.80871720      15.61475195                           
Cr       2.29163200      27.79205298      15.61475241                           
I        6.71804295      23.82255135      14.06395847                           
I        3.51661508      25.94591110      14.07089707                           
I        0.07814689      27.65487227      14.07089707                           
I        4.74445508      23.82255313      17.15723785                           
I        4.50489604      27.65458371      17.15707434                           
I        1.06642478      25.94619789      17.15707434                           
Cr       3.43917878      25.80869730       9.03123330                           
Cr       0.00068777      27.79207289       9.03123376                           
I        4.42486276      23.82255135       7.48874545                           
I        1.22590088      25.94619693       7.48890841                           
I       -2.21256731      27.65458643       7.48890841                           
I        2.45126709      23.82255313      10.58202506                           
I        2.21418512      27.65486652      10.57507890                           
I       -1.22428614      25.94591507      10.57507890                           
Cr       2.29163200      31.76435833      15.61475195                           
Cr      -1.14685901      33.74769412      15.61475241                           
I        3.27955194      29.77819248      14.06395847                           
I        0.07812407      31.90155223      14.07089707                           
I       -3.36034412      33.61051340      14.07089707                           
I        1.30596407      29.77819426      17.15723785                           
I        1.06640503      33.61022484      17.15707434                           
I       -2.37206623      31.90183902      17.15707434                           
Cr       0.00068777      31.76433843       9.03123330                           
Cr      -3.43780324      33.74771402       9.03123376                           
I        0.98637175      29.77819248       7.48874545                           
I       -2.21259013      31.90183807       7.48890841                           
I       -5.65105832      33.61022756       7.48890841                           
I       -0.98722392      29.77819426      10.58202506                           
I       -1.22430589      33.61050765      10.57507890                           
I       -4.66277715      31.90155621      10.57507890                           
Cr      26.36106908       1.98615267      15.61475195                           
Cr      22.92257807       3.96948846      15.61475241                           
I       27.34898902      -0.00001318      14.06395847                           
I       24.14756114       2.12334657      14.07089707                           
I       20.70909295       3.83230774      14.07089707                           
I       25.37540115      -0.00001140      17.15723785                           
I       25.13584211       3.83201918      17.15707434                           
I       21.69737085       2.12363336      17.15707434                           
Cr      24.07012485       1.98613277       9.03123330                           
Cr      20.63163384       3.96950836       9.03123376                           
I       25.05580883      -0.00001318       7.48874545                           
I       21.85684694       2.12363241       7.48890841                           
I       18.41837875       3.83202190       7.48890841                           
I       23.08221316      -0.00001140      10.58202506                           
I       22.84513118       3.83230199      10.57507890                           
I       19.40665992       2.12335055      10.57507890                           
Cr      22.92257806       7.94179381      15.61475195                           
Cr      19.48408705       9.92512959      15.61475241                           
I       23.91049801       5.95562795      14.06395847                           
I       20.70907013       8.07898770      14.07089707                           
I       17.27060194       9.78794887      14.07089707                           
I       21.93691014       5.95562973      17.15723785                           
I       21.69735110       9.78766031      17.15707434                           
I       18.25887984       8.07927449      17.15707434                           
Cr      20.63163384       7.94177390       9.03123330                           
Cr      17.19314283       9.92514949       9.03123376                           
I       21.61731782       5.95562795       7.48874545                           
I       18.41835593       8.07927354       7.48890841                           
I       14.97988774       9.78766304       7.48890841                           
I       19.64372215       5.95562973      10.58202506                           
I       19.40664017       9.78794313      10.57507890                           
I       15.96816891       8.07899168      10.57507890                           
Cr      19.48408705      13.89743494      15.61475195                           
Cr      16.04559604      15.88077072      15.61475241                           
I       20.47200700      11.91126908      14.06395847                           
I       17.27057912      14.03462883      14.07089707                           
I       13.83211093      15.74359001      14.07089707                           
I       18.49841912      11.91127086      17.15723785                           
I       18.25886009      15.74330145      17.15707434                           
I       14.82038883      14.03491562      17.15707434                           
Cr      17.19314283      13.89741504       9.03123330                           
Cr      13.75465182      15.88079062       9.03123376                           
I       18.17882681      11.91126908       7.48874545                           
I       14.97986492      14.03491467       7.48890841                           
I       11.54139673      15.74330417       7.48890841                           
I       16.20523114      11.91127086      10.58202506                           
I       15.96814916      15.74358426      10.57507890                           
I       12.52967790      14.03463281      10.57507890                           
Cr      16.04559604      19.85307607      15.61475195                           
Cr      12.60710503      21.83641185      15.61475241                           
I       17.03351599      17.86691022      14.06395847                           
I       13.83208811      19.99026996      14.07089707                           
I       10.39361992      21.69923114      14.07089707                           
I       15.05992811      17.86691200      17.15723785                           
I       14.82036907      21.69894258      17.15707434                           
I       11.38189781      19.99055675      17.15707434                           
Cr      13.75465181      19.85305617       9.03123330                           
Cr      10.31616080      21.83643175       9.03123376                           
I       14.74033580      17.86691022       7.48874545                           
I       11.54137391      19.99055580       7.48890841                           
I        8.10290572      21.69894530       7.48890841                           
I       12.76674013      17.86691200      10.58202506                           
I       12.52965815      21.69922539      10.57507890                           
I        9.09118689      19.99027394      10.57507890                           
Cr      12.60710503      25.80871720      15.61475195                           
Cr       9.16861402      27.79205298      15.61475241                           
I       13.59502497      23.82255135      14.06395847                           
I       10.39359710      25.94591110      14.07089707                           
I        6.95512891      27.65487227      14.07089707                           
I       11.62143710      23.82255313      17.15723785                           
I       11.38187806      27.65458371      17.15707434                           
I        7.94340680      25.94619789      17.15707434                           
Cr      10.31616080      25.80869730       9.03123330                           
Cr       6.87766979      27.79207289       9.03123376                           
I       11.30184479      23.82255135       7.48874545                           
I        8.10288290      25.94619693       7.48890841                           
I        4.66441471      27.65458643       7.48890841                           
I        9.32824912      23.82255313      10.58202506                           
I        9.09116714      27.65486652      10.57507890                           
I        5.65269588      25.94591507      10.57507890                           
Cr       9.16861402      31.76435833      15.61475195                           
Cr       5.73012301      33.74769412      15.61475241                           
I       10.15653396      29.77819248      14.06395847                           
I        6.95510609      31.90155223      14.07089707                           
I        3.51663790      33.61051340      14.07089707                           
I        8.18294609      29.77819426      17.15723785                           
I        7.94338705      33.61022484      17.15707434                           
I        4.50491579      31.90183902      17.15707434                           
Cr       6.87766979      31.76433843       9.03123330                           
Cr       3.43917878      33.74771402       9.03123376                           
I        7.86335378      29.77819248       7.48874545                           
I        4.66439189      31.90183807       7.48890841                           
I        1.22592370      33.61022756       7.48890841                           
I        5.88975810      29.77819426      10.58202506                           
I        5.65267613      33.61050765      10.57507890                           
I        2.21420487      31.90155621      10.57507890                           
Cr      33.23805110       1.98615267      15.61475195                           
Cr      29.79956009       3.96948846      15.61475241                           
I       34.22597104      -0.00001318      14.06395847                           
I       31.02454317       2.12334657      14.07089707                           
I       27.58607498       3.83230774      14.07089707                           
I       32.25238317      -0.00001140      17.15723785                           
I       32.01282413       3.83201918      17.15707434                           
I       28.57435287       2.12363336      17.15707434                           
Cr      30.94710687       1.98613277       9.03123330                           
Cr      27.50861586       3.96950836       9.03123376                           
I       31.93279085      -0.00001318       7.48874545                           
I       28.73382897       2.12363241       7.48890841                           
I       25.29536078       3.83202190       7.48890841                           
I       29.95919518      -0.00001140      10.58202506                           
I       29.72211320       3.83230199      10.57507890                           
I       26.28364194       2.12335055      10.57507890                           
Cr      29.79956009       7.94179381      15.61475195                           
Cr      26.36106908       9.92512959      15.61475241                           
I       30.78748003       5.95562795      14.06395847                           
I       27.58605216       8.07898770      14.07089707                           
I       24.14758397       9.78794887      14.07089707                           
I       28.81389216       5.95562973      17.15723785                           
I       28.57433312       9.78766031      17.15707434                           
I       25.13586186       8.07927449      17.15707434                           
Cr      27.50861586       7.94177390       9.03123330                           
Cr      24.07012485       9.92514949       9.03123376                           
I       28.49429984       5.95562795       7.48874545                           
I       25.29533795       8.07927354       7.48890841                           
I       21.85686976       9.78766304       7.48890841                           
I       26.52070417       5.95562973      10.58202506                           
I       26.28362219       9.78794313      10.57507890                           
I       22.84515093       8.07899168      10.57507890                           
Cr      26.36106908      13.89743494      15.61475195                           
Cr      22.92257807      15.88077072      15.61475241                           
I       27.34898902      11.91126908      14.06395847                           
I       24.14756114      14.03462883      14.07089707                           
I       20.70909295      15.74359001      14.07089707                           
I       25.37540115      11.91127086      17.15723785                           
I       25.13584211      15.74330145      17.15707434                           
I       21.69737085      14.03491562      17.15707434                           
Cr      24.07012485      13.89741504       9.03123330                           
Cr      20.63163384      15.88079062       9.03123376                           
I       25.05580883      11.91126908       7.48874545                           
I       21.85684694      14.03491467       7.48890841                           
I       18.41837875      15.74330417       7.48890841                           
I       23.08221316      11.91127086      10.58202506                           
I       22.84513118      15.74358426      10.57507890                           
I       19.40665992      14.03463281      10.57507890                           
Cr      22.92257806      19.85307607      15.61475195                           
Cr      19.48408705      21.83641185      15.61475241                           
I       23.91049801      17.86691022      14.06395847                           
I       20.70907013      19.99026996      14.07089707                           
I       17.27060194      21.69923114      14.07089707                           
I       21.93691014      17.86691200      17.15723785                           
I       21.69735110      21.69894258      17.15707434                           
I       18.25887984      19.99055675      17.15707434                           
Cr      20.63163384      19.85305617       9.03123330                           
Cr      17.19314283      21.83643175       9.03123376                           
I       21.61731782      17.86691022       7.48874545                           
I       18.41835593      19.99055580       7.48890841                           
I       14.97988774      21.69894530       7.48890841                           
I       19.64372215      17.86691200      10.58202506                           
I       19.40664017      21.69922539      10.57507890                           
I       15.96816891      19.99027394      10.57507890                           
Cr      19.48408705      25.80871720      15.61475195                           
Cr      16.04559604      27.79205298      15.61475241                           
I       20.47200700      23.82255135      14.06395847                           
I       17.27057912      25.94591110      14.07089707                           
I       13.83211093      27.65487227      14.07089707                           
I       18.49841912      23.82255313      17.15723785                           
I       18.25886009      27.65458371      17.15707434                           
I       14.82038883      25.94619789      17.15707434                           
Cr      17.19314283      25.80869730       9.03123330                           
Cr      13.75465182      27.79207289       9.03123376                           
I       18.17882681      23.82255135       7.48874545                           
I       14.97986492      25.94619693       7.48890841                           
I       11.54139673      27.65458643       7.48890841                           
I       16.20523114      23.82255313      10.58202506                           
I       15.96814916      27.65486652      10.57507890                           
I       12.52967790      25.94591507      10.57507890                           
Cr      16.04559604      31.76435833      15.61475195                           
Cr      12.60710503      33.74769412      15.61475241                           
I       17.03351599      29.77819248      14.06395847                           
I       13.83208811      31.90155223      14.07089707                           
I       10.39361992      33.61051340      14.07089707                           
I       15.05992811      29.77819426      17.15723785                           
I       14.82036907      33.61022484      17.15707434                           
I       11.38189781      31.90183902      17.15707434                           
Cr      13.75465181      31.76433843       9.03123330                           
Cr      10.31616080      33.74771402       9.03123376                           
I       14.74033580      29.77819248       7.48874545                           
I       11.54137391      31.90183807       7.48890841                           
I        8.10290572      33.61022756       7.48890841                           
I       12.76674013      29.77819426      10.58202506                           
I       12.52965815      33.61050765      10.57507890                           
I        9.09118689      31.90155621      10.57507890                           
Cr      40.11503312       1.98615267      15.61475195                           
Cr      36.67654211       3.96948846      15.61475241                           
I       41.10295306      -0.00001318      14.06395847                           
I       37.90152519       2.12334657      14.07089707                           
I       34.46305700       3.83230774      14.07089707                           
I       39.12936519      -0.00001140      17.15723785                           
I       38.88980615       3.83201918      17.15707434                           
I       35.45133489       2.12363336      17.15707434                           
Cr      37.82408889       1.98613277       9.03123330                           
Cr      34.38559788       3.96950836       9.03123376                           
I       38.80977287      -0.00001318       7.48874545                           
I       35.61081099       2.12363241       7.48890841                           
I       32.17234280       3.83202190       7.48890841                           
I       36.83617720      -0.00001140      10.58202506                           
I       36.59909523       3.83230199      10.57507890                           
I       33.16062397       2.12335055      10.57507890                           
Cr      36.67654211       7.94179381      15.61475195                           
Cr      33.23805110       9.92512959      15.61475241                           
I       37.66446205       5.95562795      14.06395847                           
I       34.46303418       8.07898770      14.07089707                           
I       31.02456599       9.78794887      14.07089707                           
I       35.69087418       5.95562973      17.15723785                           
I       35.45131514       9.78766031      17.15707434                           
I       32.01284388       8.07927449      17.15707434                           
Cr      34.38559788       7.94177390       9.03123330                           
Cr      30.94710687       9.92514949       9.03123376                           
I       35.37128186       5.95562795       7.48874545                           
I       32.17231998       8.07927354       7.48890841                           
I       28.73385179       9.78766304       7.48890841                           
I       33.39768619       5.95562973      10.58202506                           
I       33.16060422       9.78794313      10.57507890                           
I       29.72213296       8.07899168      10.57507890                           
Cr      33.23805110      13.89743494      15.61475195                           
Cr      29.79956009      15.88077072      15.61475241                           
I       34.22597104      11.91126908      14.06395847                           
I       31.02454317      14.03462883      14.07089707                           
I       27.58607498      15.74359001      14.07089707                           
I       32.25238317      11.91127086      17.15723785                           
I       32.01282413      15.74330145      17.15707434                           
I       28.57435287      14.03491562      17.15707434                           
Cr      30.94710687      13.89741504       9.03123330                           
Cr      27.50861586      15.88079062       9.03123376                           
I       31.93279085      11.91126908       7.48874545                           
I       28.73382897      14.03491467       7.48890841                           
I       25.29536078      15.74330417       7.48890841                           
I       29.95919518      11.91127086      10.58202506                           
I       29.72211320      15.74358426      10.57507890                           
I       26.28364194      14.03463281      10.57507890                           
Cr      29.79956009      19.85307607      15.61475195                           
Cr      26.36106908      21.83641185      15.61475241                           
I       30.78748003      17.86691022      14.06395847                           
I       27.58605216      19.99026996      14.07089707                           
I       24.14758397      21.69923114      14.07089707                           
I       28.81389216      17.86691200      17.15723785                           
I       28.57433312      21.69894258      17.15707434                           
I       25.13586186      19.99055675      17.15707434                           
Cr      27.50861586      19.85305617       9.03123330                           
Cr      24.07012485      21.83643175       9.03123376                           
I       28.49429984      17.86691022       7.48874545                           
I       25.29533795      19.99055580       7.48890841                           
I       21.85686976      21.69894530       7.48890841                           
I       26.52070417      17.86691200      10.58202506                           
I       26.28362219      21.69922539      10.57507890                           
I       22.84515093      19.99027394      10.57507890                           
Cr      26.36106908      25.80871720      15.61475195                           
Cr      22.92257807      27.79205298      15.61475241                           
I       27.34898902      23.82255135      14.06395847                           
I       24.14756114      25.94591110      14.07089707                           
I       20.70909295      27.65487227      14.07089707                           
I       25.37540115      23.82255313      17.15723785                           
I       25.13584211      27.65458371      17.15707434                           
I       21.69737085      25.94619789      17.15707434                           
Cr      24.07012485      25.80869730       9.03123330                           
Cr      20.63163384      27.79207289       9.03123376                           
I       25.05580883      23.82255135       7.48874545                           
I       21.85684694      25.94619693       7.48890841                           
I       18.41837875      27.65458643       7.48890841                           
I       23.08221316      23.82255313      10.58202506                           
I       22.84513118      27.65486652      10.57507890                           
I       19.40665992      25.94591507      10.57507890                           
Cr      22.92257806      31.76435833      15.61475195                           
Cr      19.48408705      33.74769412      15.61475241                           
I       23.91049801      29.77819248      14.06395847                           
I       20.70907013      31.90155223      14.07089707                           
I       17.27060194      33.61051340      14.07089707                           
I       21.93691014      29.77819426      17.15723785                           
I       21.69735110      33.61022484      17.15707434                           
I       18.25887984      31.90183902      17.15707434                           
Cr      20.63163384      31.76433843       9.03123330                           
Cr      17.19314283      33.74771402       9.03123376                           
I       21.61731782      29.77819248       7.48874545                           
I       18.41835593      31.90183807       7.48890841                           
I       14.97988774      33.61022756       7.48890841                           
I       19.64372215      29.77819426      10.58202506                           
I       19.40664017      33.61050765      10.57507890                           
I       15.96816891      31.90155621      10.57507890                           
%ENDBLOCK POSITIONS_ABS                                                         
%BLOCK SPECIES                                                                  
Cr Cr 24 -1 15                                                                  
I   I  53 -1 15                                                                 
%ENDBLOCK SPECIES                                                               
%BLOCK SPECIES_ATOMIC_SET                                                       
Cr "SOLVE INIT SPIN=3"                                                          
I   "SOLVE"                                                                     
%ENDBLOCK SPECIES_ATOMIC_SET                                                    
%BLOCK HUBBARD                                                                  
Cr  2 2.97 0.0 -10.0 0.00 0.0                                                   
%ENDBLOCK HUBBARD                                                               
%BLOCK SPECIES_LDOS_GROUPS                                                      
Cr                                                                              
I                                                                               
%ENDBLOCK SPECIES_LDOS_GROUPS                                                   
%BLOCK SPECIES_POT                                                              
Cr  "../../../../Cr.PBE-paw.abinit"                                             
I   "../../../../I.PBE-paw.abinit"                                              
%ENDBLOCK SPECIES_POT                                                           

--------------------------------------------------------------------------------
-------------------------------- END INPUT FILE --------------------------------
--------------------------------------------------------------------------------


 
 ESDF WARNING(1): "charge" (esdf_physical) has no units. Assume "e".
<<<<<<<<<<<<<<<<<<<<<<<<<<<<<<<<< Full system >>>>>>>>>>>>>>>>>>>>>>>>>>>>>>>>>>
<<<<<<<<<<<<<<<<<<<<<<<<<<< PAW Dataset information >>>>>>>>>>>>>>>>>>>>>>>>>>>
File: ../../../../Cr.PBE-paw.abinit; rc = 2.11 bohr; shape type =  2; rshape = 1.80 bohr;
  Atomic number: 24;  ionic charge: 14.000000
    Partial Wave 1: l = 0
    Partial Wave 2: l = 0
    Partial Wave 3: l = 1
    Partial Wave 4: l = 1
    Partial Wave 5: l = 2
    Partial Wave 6: l = 2
  Core charge supplied for Nonlinear Core Corrections
File: ../../../../I.PBE-paw.abinit; rc = 2.30 bohr; shape type =  2; rshape = 2.11 bohr;
  Atomic number: 53;  ionic charge:  7.000000
    Partial Wave 1: l = 0
    Partial Wave 2: l = 0
    Partial Wave 3: l = 1
    Partial Wave 4: l = 1
  Core charge supplied for Nonlinear Core Corrections
<<<<<<<<<<<<<<<<<<<<<<<<<<<<<<<<<<<<<<< >>>>>>>>>>>>>>>>>>>>>>>>>>>>>>>>>>>>>>>

-------------------------- Atom counting information ---------------------------
Symbol    Natoms    Nngwfs    Nprojs
  Cr       144      1872      2592
  I        432      1728      3456
.......   ......    ......    ......
Totals:    576      3600      6048
--------------------------------------------------------------------------------

=============================== PSINC grid sizes ===============================
                      Simulation cell:  175 x 175 x 117
                              FFT-box:  175 x 175 x 117
                                  PPD:    5 x   5 x   1
Grid space d1=  0.445563862424a0 (KE cutoff=  38.26345Eh =1041.20135eV)
Grid space d2=  0.445563862400a0 (KE cutoff=  38.26345Eh =1041.20135eV)
Grid space d3=  0.444294449711a0 (KE cutoff=  38.48241Eh =1047.15957eV)
================================================================================

********************* Fourier parallelisation information **********************
       Coarse grid (whole simulation cell) dimensions:    175   175   117
          Real-space ('12') slabs/proc (min max mean):      0     1     0
         Recip-space ('23') slabs/proc (min max mean):      0     1     0
********************************************************************************

********************* Fourier parallelisation information **********************
       Double grid (whole simulation cell) dimensions:    350   350   234
          Real-space ('12') slabs/proc (min max mean):      1     2     1
         Recip-space ('23') slabs/proc (min max mean):      1     2     1
********************************************************************************

********************* Fourier parallelisation information **********************
         Fine grid (whole simulation cell) dimensions:    700   700   468
          Real-space ('12') slabs/proc (min max mean):      3     4     3
         Recip-space ('23') slabs/proc (min max mean):      2     3     2
********************************************************************************

Atom SCF Calculation for Cr : Z (AE atom) =  24 : Z (PS atom) =  14
Config String: 3s2.0 3p6.0 3d5.0 4s1.0 4p0.0 INIT SPIN=3
Orbitals (num,occ):  5     2.00 6.00 5.00 1.00 0.00
Orbitals   (num,l):  5        0    1    2    0    1
Atom SCF converged after  64 iterations to a total energy of    -87.07044631
Adjusting orbital occupancies:
Orbitals (num,spin,occ):  5  1     1.00 3.00 3.50 1.00 0.00
Orbitals   (num,spin,l):  5  1        0    1    2    0    1
Orbitals (num,spin,occ):  5  2     1.00 3.00 1.00 0.50 0.00
Orbitals   (num,spin,l):  5  2        0    1    2    0    1

Atom SCF Calculation for I  : Z (AE atom) =  53 : Z (PS atom) =   7
Config String: 5s2.0 5p5.0
Orbitals (num,occ):  2     2.00 5.00
Orbitals   (num,l):  2        0    1
Atom SCF converged after  28 iterations to a total energy of    -11.61352964

Atom SCF Calculation for Cr : Z (AE atom) =  24 : Z (PS atom) =  14
Config String: 3s2.0 3p6.0 3d5.0 4s1.0 4p0.0 INIT SPIN=3
Orbitals (num,occ):  5     2.00 6.00 5.00 1.00 0.00
Orbitals   (num,l):  5        0    1    2    0    1
Atom SCF converged after  64 iterations to a total energy of    -87.07044631

Atom SCF Calculation for I  : Z (AE atom) =  53 : Z (PS atom) =   7
Config String: 5s2.0 5p5.0
Orbitals (num,occ):  2     2.00 5.00
Orbitals   (num,l):  2        0    1
Atom SCF converged after  28 iterations to a total energy of    -11.61352964

Determining parallel strategy ...... done
Calculating Ewald energy ...            31475.177180 Hartree
Basis initialisation ...
... done

============================= Charge Augmentation ==============================
                           Aug box size:   49 x  49 x  45
================================================================================
Sparse matrix initialisation ...
 done

Reading NGWFs from file "Cr2I6_bilayer_HT_AFM_FM_SP.tightbox_ngwfs" ... done
 done

================================= Core Density =================================
               Core den box size:  125 x 125 x 105
================================================================================

Reading density kernel from file "Cr2I6_bilayer_HT_AFM_FM_SP.dkn" ... done

>>> Optimising kernel for current NGWFs:


>>> Density kernel optimised for the current NGWF basis:
     ~~~~~~~~~~~~~~~~~~~~~~~~~~~~~~~~~~~~~~~~~~~~~~~~~~~~~~~~~~~
     Total energy                =  -1.76276768602289E+04  Eh
     Estimated bandgap (UP spin) =   3.6770E-02  Eh
     Estimated bandgap (DN spin) =   1.1421E-01  Eh
     RMS occupancy error         =   2.8710E-14
     [H,K] commutator            =   9.3177E-07
     UP spin occupancy bounds    = [  0.000:  1.000]
     DN spin occupancy bounds    = [  0.000:  1.000]
     ~~~~~~~~~~~~~~~~~~~~~~~~~~~~~~~~~~~~~~~~~~~~~~~~~~~~~~~~~~~




################################################################################
########################### NGWF CG iteration  001 #############################
################################################################################

>>> Checking for convergence of NGWFs:   NOT CONVERGED
  ========================================================================
         NGWF RMS gradient =  1.9894E-06 >  1.0000E-06  | above tolerance
  ========================================================================

>>> Improving NGWFs using line search:
  ========================================================================
   Predicted total energy    =      -1.76276778908821E+04 Eh
   Predicted gain in energy  =      -1.03065315488493E-03 Eh
  ========================================================================

Writing NGWFs to file "Cr2I6_bilayer_HT_AFM_FM_SP.tightbox_ngwfs".... done

>>> Optimising kernel for current NGWFs:
   iter  |      energy (Eh)       | rms gradient |  commutator  |   dE (Eh)
    1        -1.762767779041E+04     1.9821E-06     1.0096E-06
    2        -1.762767779775E+04     1.8315E-06     9.3432E-07    -7.3366E-06
    3        -1.762767780061E+04     8.4652E-07     4.2420E-07    -2.8580E-06
    4        -1.762767780686E+04     8.0813E-07     4.1754E-07    -6.2501E-06
    5        -1.762767781137E+04     1.8402E-06     9.6248E-07    -4.5123E-06
Finished density kernel iterations (   5)

Writing density kernel to file "Cr2I6_bilayer_HT_AFM_FM_SP.dkn" ... done


>>> Density kernel optimised for the current NGWF basis:
     ~~~~~~~~~~~~~~~~~~~~~~~~~~~~~~~~~~~~~~~~~~~~~~~~~~~~~~~~~~~
     Total energy                =  -1.76276778113688E+04  Eh
     Estimated bandgap (UP spin) =   3.6738E-02  Eh
     Estimated bandgap (DN spin) =   1.1425E-01  Eh
     RMS occupancy error         =   9.9946E-15
     [H,K] commutator            =   9.6248E-07
     UP spin occupancy bounds    = [  0.000:  1.000]
     DN spin occupancy bounds    = [  0.000:  1.000]
     ~~~~~~~~~~~~~~~~~~~~~~~~~~~~~~~~~~~~~~~~~~~~~~~~~~~~~~~~~~~




################################################################################
########################### NGWF CG iteration  002 #############################
################################################################################

>>> Checking for convergence of NGWFs:   NOT CONVERGED
  ========================================================================
         NGWF RMS gradient =  1.1427E-06 >  1.0000E-06  | above tolerance
  Maximum change in energy =  1.6513E-06 >  2.0000E-07  | above tolerance
  ========================================================================

>>> Improving NGWFs using line search:
WARNING in services_line_search_parabola:
  quadratic step (  -54.30446) too large - setting to safe value
value at zero =***********
linear_term=   -3.22272
quadratic_term=   -0.00284
trial_length=    0.30942
pscale= 4064.60600
  ========================================================================
   Predicted total energy    =      -1.76276778114669E+04 Eh
   Predicted gain in energy  =      -9.80908225756139E-08 Eh
  ========================================================================

Writing NGWFs to file "Cr2I6_bilayer_HT_AFM_FM_SP.tightbox_ngwfs".... done

>>> Optimising kernel for current NGWFs:
   iter  |      energy (Eh)       | rms gradient |  commutator  |   dE (Eh)
    1        -1.762767781157E+04     1.8401E-06     9.6242E-07
    2        -1.762767781125E+04     7.1156E-07     3.6101E-07     3.1176E-07
    3        -1.762767781096E+04     5.8978E-07     2.9651E-07     2.9736E-07
    4        -1.762767781079E+04     5.4195E-07     2.7169E-07     1.6297E-07
    5        -1.762767781071E+04     5.1905E-07     2.5997E-07     8.6766E-08
Finished density kernel iterations (   5)

Writing density kernel to file "Cr2I6_bilayer_HT_AFM_FM_SP.dkn" ... done


>>> Density kernel optimised for the current NGWF basis:
     ~~~~~~~~~~~~~~~~~~~~~~~~~~~~~~~~~~~~~~~~~~~~~~~~~~~~~~~~~~~
     Total energy                =  -1.76276778107063E+04  Eh
     Estimated bandgap (UP spin) =   3.6732E-02  Eh
     Estimated bandgap (DN spin) =   1.1432E-01  Eh
     RMS occupancy error         =   4.8229E-16
     [H,K] commutator            =   2.5997E-07
     UP spin occupancy bounds    = [  0.000:  1.000]
     DN spin occupancy bounds    = [ -0.000:  1.000]
     ~~~~~~~~~~~~~~~~~~~~~~~~~~~~~~~~~~~~~~~~~~~~~~~~~~~~~~~~~~~




################################################################################
########################### NGWF CG iteration  003 #############################
################################################################################

>>> Checking for convergence of NGWFs:   NOT CONVERGED
  ========================================================================
         NGWF RMS gradient =  1.1410E-06 >  1.0000E-06  | above tolerance
  Maximum change in energy =  1.6513E-06 >  2.0000E-07  | above tolerance
  ========================================================================

>>> Improving NGWFs using line search:
  ========================================================================
   Predicted total energy    =      -1.76276795999954E+04 Eh
   Predicted gain in energy  =      -1.78928906825604E-03 Eh
  ========================================================================

Writing NGWFs to file "Cr2I6_bilayer_HT_AFM_FM_SP.tightbox_ngwfs".... done

>>> Optimising kernel for current NGWFs:
   iter  |      energy (Eh)       | rms gradient |  commutator  |   dE (Eh)
    1        -1.762767743682E+04     1.5698E-05     7.9360E-06
    2        -1.762767773833E+04     1.0751E-05     5.4227E-06    -3.0151E-04
    3        -1.762767802151E+04     6.2162E-06     3.1586E-06    -2.8318E-04
    4        -1.762767809554E+04     9.1154E-06     4.6665E-06    -7.4025E-05
    5        -1.762767809650E+04     8.8855E-06     4.5487E-06    -9.6821E-07
Finished density kernel iterations (   5)

Writing density kernel to file "Cr2I6_bilayer_HT_AFM_FM_SP.dkn" ... done


>>> Density kernel optimised for the current NGWF basis:
     ~~~~~~~~~~~~~~~~~~~~~~~~~~~~~~~~~~~~~~~~~~~~~~~~~~~~~~~~~~~
     Total energy                =  -1.76276780965032E+04  Eh
     Estimated bandgap (UP spin) =   3.6563E-02  Eh
     Estimated bandgap (DN spin) =   1.1378E-01  Eh
     RMS occupancy error         =   1.5229E-14
     [H,K] commutator            =   4.5487E-06
     UP spin occupancy bounds    = [  0.000:  1.000]
     DN spin occupancy bounds    = [  0.000:  1.000]
     ~~~~~~~~~~~~~~~~~~~~~~~~~~~~~~~~~~~~~~~~~~~~~~~~~~~~~~~~~~~




################################################################################
########################### NGWF CG iteration  004 #############################
################################################################################

>>> Checking for convergence of NGWFs:   NOT CONVERGED
  ========================================================================
         NGWF RMS gradient =  3.1310E-06 >  1.0000E-06  | above tolerance
  Maximum change in energy =  4.9618E-07 >  2.0000E-07  | above tolerance
  ========================================================================

>>> Improving NGWFs using line search:
  ========================================================================
   Predicted total energy    =      -1.76276799160797E+04 Eh
   Predicted gain in energy  =      -1.81957645691000E-03 Eh
  ========================================================================

Writing NGWFs to file "Cr2I6_bilayer_HT_AFM_FM_SP.tightbox_ngwfs".... done

>>> Optimising kernel for current NGWFs:
   iter  |      energy (Eh)       | rms gradient |  commutator  |   dE (Eh)
    1        -1.762767992075E+04     6.2676E-06     3.1906E-06
    2        -1.762767994498E+04     2.2123E-06     1.1208E-06    -2.4231E-05
    3        -1.762767995162E+04     1.8322E-06     9.3180E-07    -6.6423E-06
    4        -1.762767995745E+04     1.1884E-06     5.9629E-07    -5.8264E-06
    5        -1.762767995817E+04     8.6230E-07     4.3444E-07    -7.2250E-07
Finished density kernel iterations (   5)

Writing density kernel to file "Cr2I6_bilayer_HT_AFM_FM_SP.dkn" ... done


>>> Density kernel optimised for the current NGWF basis:
     ~~~~~~~~~~~~~~~~~~~~~~~~~~~~~~~~~~~~~~~~~~~~~~~~~~~~~~~~~~~
     Total energy                =  -1.76276799581727E+04  Eh
     Estimated bandgap (UP spin) =   3.6617E-02  Eh
     Estimated bandgap (DN spin) =   1.1398E-01  Eh
     RMS occupancy error         =   5.9254E-16
     [H,K] commutator            =   4.3444E-07
     UP spin occupancy bounds    = [  0.000:  1.000]
     DN spin occupancy bounds    = [  0.000:  1.000]
     ~~~~~~~~~~~~~~~~~~~~~~~~~~~~~~~~~~~~~~~~~~~~~~~~~~~~~~~~~~~




################################################################################
########################### NGWF CG iteration  005 #############################
################################################################################

>>> Checking for convergence of NGWFs:   NOT CONVERGED
  ========================================================================
         NGWF RMS gradient =  6.7337E-07 <  1.0000E-06  | CONVERGED
  Maximum change in energy =  3.2321E-06 >  2.0000E-07  | above tolerance
  ========================================================================

>>> Improving NGWFs using line search:
WARNING in services_line_search_parabola:
  quadratic step (   14.74470) too large - setting to safe value
value at zero =***********
linear_term=   -3.64739
quadratic_term=    0.00947
trial_length=    0.27677
pscale=12082.63087
  ========================================================================
   Predicted total energy    =      -1.76276799581169E+04 Eh
   Predicted gain in energy  =       5.57956809643656E-08 Eh
  ========================================================================

Writing NGWFs to file "Cr2I6_bilayer_HT_AFM_FM_SP.tightbox_ngwfs".... done

>>> Optimising kernel for current NGWFs:
   iter  |      energy (Eh)       | rms gradient |  commutator  |   dE (Eh)
    1        -1.762767995806E+04     8.6184E-07     4.3421E-07
    2        -1.762767995820E+04     6.7469E-07     3.3799E-07    -1.3808E-07
    3        -1.762767995824E+04     5.6718E-07     2.8271E-07    -3.6729E-08
    4        -1.762767995825E+04     5.0831E-07     2.5261E-07    -5.7335E-09
    5        -1.762767995825E+04     4.6906E-07     2.3266E-07    -4.1364E-09
Finished density kernel iterations (   5)

Writing density kernel to file "Cr2I6_bilayer_HT_AFM_FM_SP.dkn" ... done


>>> Density kernel optimised for the current NGWF basis:
     ~~~~~~~~~~~~~~~~~~~~~~~~~~~~~~~~~~~~~~~~~~~~~~~~~~~~~~~~~~~
     Total energy                =  -1.76276799582492E+04  Eh
     Estimated bandgap (UP spin) =   3.6580E-02  Eh
     Estimated bandgap (DN spin) =   1.1387E-01  Eh
     RMS occupancy error         =   5.1599E-16
     [H,K] commutator            =   2.3266E-07
     UP spin occupancy bounds    = [  0.000:  1.000]
     DN spin occupancy bounds    = [  0.000:  1.000]
     ~~~~~~~~~~~~~~~~~~~~~~~~~~~~~~~~~~~~~~~~~~~~~~~~~~~~~~~~~~~




################################################################################
########################### NGWF CG iteration  006 #############################
################################################################################

>>> Checking for convergence of NGWFs:   NOT CONVERGED
  ========================================================================
         NGWF RMS gradient =  6.7926E-07 <  1.0000E-06  | CONVERGED
  Maximum change in energy =  3.2321E-06 >  2.0000E-07  | above tolerance
  ========================================================================

>>> Improving NGWFs using line search:
WARNING in services_line_search_parabola:
  quadratic step (  330.21818) too large - setting to safe value
value at zero =***********
linear_term=   -3.61468
quadratic_term=    0.00042
trial_length=    0.27677
pscale= 5852.39568
WARNING in services_line_search_parabola:
  quadratic step (  330.21818) too large - setting to safe value
value at zero =***********
linear_term=   -3.61468
quadratic_term=    0.00042
trial_length=    0.27677
pscale= 5852.39568
  ========================================================================
   Predicted total energy    =      -1.76276817176116E+04 Eh
   Predicted gain in energy  =      -1.75936243613251E-03 Eh
  ========================================================================

Writing NGWFs to file "Cr2I6_bilayer_HT_AFM_FM_SP.tightbox_ngwfs".... done

>>> Optimising kernel for current NGWFs:
   iter  |      energy (Eh)       | rms gradient |  commutator  |   dE (Eh)
    1        -1.762767580776E+04     3.2541E-05     1.6429E-05
    2        -1.762767776502E+04     2.0657E-05     1.0343E-05    -1.9573E-03
    3        -1.762767869628E+04     1.5115E-05     7.4754E-06    -9.3126E-04
    4        -1.762767902336E+04     8.7823E-06     4.3537E-06    -3.2709E-04
    5        -1.762767911050E+04     4.5788E-06     2.2727E-06    -8.7138E-05
Finished density kernel iterations (   5)

Writing density kernel to file "Cr2I6_bilayer_HT_AFM_FM_SP.dkn" ... done


>>> Density kernel optimised for the current NGWF basis:
     ~~~~~~~~~~~~~~~~~~~~~~~~~~~~~~~~~~~~~~~~~~~~~~~~~~~~~~~~~~~
     Total energy                =  -1.76276791105019E+04  Eh
     Estimated bandgap (UP spin) =   3.6492E-02  Eh
     Estimated bandgap (DN spin) =   1.1334E-01  Eh
     RMS occupancy error         =   4.1599E-12
     [H,K] commutator            =   2.2727E-06
     UP spin occupancy bounds    = [  0.000:  1.000]
     DN spin occupancy bounds    = [  0.000:  1.000]
     ~~~~~~~~~~~~~~~~~~~~~~~~~~~~~~~~~~~~~~~~~~~~~~~~~~~~~~~~~~~




################################################################################
########################### NGWF CG iteration  007 #############################
################################################################################

>>> Checking for convergence of NGWFs:   NOT CONVERGED
  ========================================================================
         NGWF RMS gradient =  2.8270E-06 >  1.0000E-06  | above tolerance
  Maximum change in energy =  1.4718E-06 >  2.0000E-07  | above tolerance
  ========================================================================

>>> Improving NGWFs using line search:
  ========================================================================
   Predicted total energy    =      -1.76276807537103E+04 Eh
   Predicted gain in energy  =      -1.64320840121945E-03 Eh
  ========================================================================

Writing NGWFs to file "Cr2I6_bilayer_HT_AFM_FM_SP.tightbox_ngwfs".... done

>>> Optimising kernel for current NGWFs:
[...]
*    Cr    433      0.00011227  -0.00015039  -0.00009000 *
*    Cr    434     -0.00007112   0.00021859  -0.00009596 *
*    I     435      0.00565374   0.00001176  -0.00803646 *
*    I     436     -0.00311383  -0.00511787  -0.00735740 *
*    I     437     -0.00312240   0.00514782  -0.00735340 *
*    I     438     -0.00585295  -0.00000677   0.01012115 *
*    I     439      0.00290868   0.00508457   0.01012157 *
*    I     440      0.00291141  -0.00510952   0.01011805 *
*    Cr    441      0.00005988  -0.00024015   0.00009832 *
*    Cr    442      0.00003336   0.00021008   0.00010153 *
*    I     443      0.00584327   0.00000876  -0.01011917 *
*    I     444     -0.00291164  -0.00508144  -0.01011974 *
*    I     445     -0.00292241   0.00510271  -0.01011509 *
*    I     446     -0.00566215  -0.00001300   0.00803670 *
*    I     447      0.00310960   0.00511644   0.00735580 *
*    I     448      0.00310981  -0.00515458   0.00735434 *
*    Cr    449      0.00011477  -0.00013163  -0.00008781 *
*    Cr    450     -0.00007117   0.00021275  -0.00009849 *
*    I     451      0.00565433   0.00001265  -0.00803637 *
*    I     452     -0.00311336  -0.00511574  -0.00735895 *
*    I     453     -0.00312291   0.00514823  -0.00735322 *
*    I     454     -0.00585300  -0.00000778   0.01012124 *
*    I     455      0.00290861   0.00508285   0.01012122 *
*    I     456      0.00291157  -0.00510857   0.01011722 *
*    Cr    457      0.00005533  -0.00022443   0.00009772 *
*    Cr    458      0.00003804   0.00021180   0.00009445 *
*    I     459      0.00584515   0.00001209  -0.01012132 *
*    I     460     -0.00291293  -0.00507973  -0.01012014 *
*    I     461     -0.00292113   0.00510753  -0.01011748 *
*    I     462     -0.00566188  -0.00001267   0.00803761 *
*    I     463      0.00310794   0.00511534   0.00735725 *
*    I     464      0.00311270  -0.00514888   0.00735269 *
*    Cr    465      0.00011120  -0.00013378  -0.00008801 *
*    Cr    466      0.00009399   0.00012028  -0.00009471 *
*    I     467      0.00565677   0.00001584  -0.00803697 *
*    I     468     -0.00311104  -0.00511767  -0.00735985 *
*    I     469     -0.00312130   0.00515063  -0.00735416 *
*    I     470     -0.00585590  -0.00001129   0.01012237 *
*    I     471      0.00291099   0.00508218   0.01012253 *
*    I     472      0.00291004  -0.00511306   0.01011880 *
*    Cr    473      0.00005779  -0.00022083   0.00009945 *
*    Cr    474      0.00002990   0.00022291   0.00009864 *
*    I     475      0.00584619   0.00001291  -0.01012186 *
*    I     476     -0.00291394  -0.00507947  -0.01012097 *
*    I     477     -0.00291996   0.00510870  -0.01011761 *
*    I     478     -0.00566068  -0.00001027   0.00803666 *
*    I     479      0.00310816   0.00511542   0.00735754 *
*    I     480      0.00311323  -0.00514723   0.00735177 *
*    Cr    481     -0.00005594  -0.00022213  -0.00010093 *
*    Cr    482      0.00012059   0.00010464  -0.00009315 *
*    I     483      0.00565745   0.00001615  -0.00803766 *
*    I     484     -0.00311119  -0.00511630  -0.00736026 *
*    I     485     -0.00312128   0.00515181  -0.00735625 *
*    I     486     -0.00585385  -0.00000513   0.01011808 *
*    I     487      0.00290993   0.00507979   0.01012117 *
*    I     488      0.00291479  -0.00510876   0.01011896 *
*    Cr    489      0.00005709  -0.00021346   0.00010115 *
*    Cr    490      0.00003785   0.00022944   0.00010069 *
*    I     491      0.00584278   0.00000815  -0.01012046 *
*    I     492     -0.00291366  -0.00508030  -0.01012013 *
*    I     493     -0.00292370   0.00510425  -0.01011730 *
*    I     494     -0.00566004  -0.00001073   0.00803651 *
*    I     495      0.00310884   0.00511564   0.00735712 *
*    I     496      0.00311170  -0.00515045   0.00735351 *
*    Cr    497     -0.00004783  -0.00022141  -0.00009787 *
*    Cr    498     -0.00006280   0.00022215  -0.00009763 *
*    I     499      0.00565649   0.00001584  -0.00803718 *
*    I     500     -0.00311176  -0.00511758  -0.00735754 *
*    I     501     -0.00312231   0.00515049  -0.00735535 *
*    I     502     -0.00585348  -0.00000424   0.01012041 *
*    I     503      0.00290864   0.00507824   0.01012042 *
*    I     504      0.00291197  -0.00510793   0.01011521 *
*    Cr    505      0.00005255  -0.00019924   0.00009440 *
*    Cr    506      0.00003476   0.00023319   0.00010086 *
*    I     507      0.00584423   0.00000711  -0.01012117 *
*    I     508     -0.00291335  -0.00507996  -0.01012080 *
*    I     509     -0.00292449   0.00510505  -0.01011621 *
*    I     510     -0.00566213  -0.00001157   0.00803729 *
*    I     511      0.00310818   0.00511377   0.00735679 *
*    I     512      0.00311282  -0.00515054   0.00735310 *
*    Cr    513     -0.00003934  -0.00023403  -0.00009613 *
*    Cr    514     -0.00006603   0.00023077  -0.00009815 *
*    I     515      0.00565307   0.00001404  -0.00803418 *
*    I     516     -0.00311188  -0.00511877  -0.00735752 *
*    I     517     -0.00312416   0.00514770  -0.00735464 *
*    I     518     -0.00585412  -0.00000716   0.01012084 *
*    I     519      0.00290997   0.00508081   0.01011998 *
*    I     520      0.00291128  -0.00511098   0.01011905 *
*    Cr    521      0.00004359  -0.00020277   0.00010016 *
*    Cr    522      0.00006419   0.00022210   0.00009545 *
*    I     523      0.00584304   0.00000848  -0.01011966 *
*    I     524     -0.00291401  -0.00508043  -0.01012099 *
*    I     525     -0.00292551   0.00510584  -0.01011594 *
*    I     526     -0.00566439  -0.00001396   0.00803754 *
*    I     527      0.00310750   0.00511542   0.00735697 *
*    I     528      0.00311067  -0.00515521   0.00735371 *
*    Cr    529     -0.00004898  -0.00025244  -0.00009822 *
*    Cr    530     -0.00007274   0.00021305  -0.00010122 *
*    I     531      0.00565234   0.00001291  -0.00803627 *
*    I     532     -0.00311325  -0.00511810  -0.00735745 *
*    I     533     -0.00312289   0.00514910  -0.00735588 *
*    I     534     -0.00585311  -0.00000745   0.01012185 *
*    I     535      0.00290897   0.00508055   0.01012207 *
*    I     536      0.00291118  -0.00510937   0.01011862 *
*    Cr    537      0.00006136  -0.00023278   0.00009939 *
*    Cr    538      0.00005135   0.00021268   0.00009599 *
*    I     539      0.00584721   0.00001182  -0.01012145 *
*    I     540     -0.00291260  -0.00508031  -0.01012021 *
*    I     541     -0.00292068   0.00510905  -0.01011786 *
*    I     542     -0.00566414  -0.00001304   0.00803855 *
*    I     543      0.00310777   0.00511469   0.00735565 *
*    I     544      0.00311121  -0.00515187   0.00735221 *
*    Cr    545     -0.00004976  -0.00023873  -0.00009895 *
*    Cr    546     -0.00007490   0.00020989  -0.00010130 *
*    I     547      0.00565384   0.00001721  -0.00803735 *
*    I     548     -0.00311457  -0.00511550  -0.00735769 *
*    I     549     -0.00312155   0.00514983  -0.00735471 *
*    I     550     -0.00585533  -0.00001087   0.01012254 *
*    I     551      0.00290901   0.00508065   0.01012138 *
*    I     552      0.00290918  -0.00511232   0.01012061 *
*    Cr    553      0.00006836  -0.00022593   0.00009847 *
*    Cr    554      0.00004010   0.00021331   0.00010190 *
*    I     555      0.00584594   0.00001381  -0.01012138 *
*    I     556     -0.00291238  -0.00508021  -0.01012125 *
*    I     557     -0.00292078   0.00510908  -0.01011829 *
*    I     558     -0.00565979  -0.00000841   0.00803516 *
*    I     559      0.00310778   0.00511513   0.00735720 *
*    I     560      0.00311171  -0.00514890   0.00735173 *
*    Cr    561     -0.00005773  -0.00022290  -0.00010369 *
*    Cr    562     -0.00007501   0.00021191  -0.00010013 *
*    I     563      0.00565515   0.00001796  -0.00803756 *
*    I     564     -0.00311323  -0.00511491  -0.00735809 *
*    I     565     -0.00312005   0.00515451  -0.00735783 *
*    I     566     -0.00585284  -0.00000776   0.01012042 *
*    I     567      0.00290855   0.00508030   0.01012075 *
*    I     568      0.00291286  -0.00510815   0.01011768 *
*    Cr    569      0.00006328  -0.00021847   0.00010234 *
*    Cr    570      0.00003828   0.00022337   0.00010133 *
*    I     571      0.00584390   0.00001063  -0.01012067 *
*    I     572     -0.00291274  -0.00507930  -0.01012085 *
*    I     573     -0.00292179   0.00510551  -0.01011684 *
*    I     574     -0.00566081  -0.00000871   0.00803735 *
*    I     575      0.00310879   0.00511681   0.00735589 *
*    I     576      0.00311404  -0.00514848   0.00735326 *
*                                                        *
**********************************************************
* TOTAL:            0.00000000   0.00000000  -0.00000000 *
**********************************************************
 
 
***********************************************************
********** Summary of Forces (values in Eh/a) *************
*                                                         *
* ---------------------- Minimum ------------------------ *
* Atom:       466, |F|min =    0.00017964                 *
* Components:     Fx|min       Fy|min       Fz|min        *
*               0.00009399   0.00012028  -0.00009471      *
*                                                         *
* ---------------------- Maximum ------------------------ *
* Atom:        61, |F|max =    0.01170590                 *
* Components:     Fx|max       Fy|max       Fz|max        *
*              -0.00292161   0.00511160  -0.01011750      *
*                                                         *
* ---------------- Root Mean Square Force --------------- *
*                  |F|rms =    0.00926911                 *
* Components:     Fx|rms       Fy|rms       Fz|rms        *
*               0.00358129   0.00361750   0.00774625      *
***********************************************************
 

------------------------------ TIMING INFORMATION ------------------------------
AVERAGE TIME:   22265.719s on    150 proc(s)                                    
TOTAL TIME:     22265.720s on    150 proc(s)                                    
==================== AVERAGE TIMINGS FROM ALL PROCS (CUMULATIVE) =====================
|| TAG                                         #calls     cpu time   %total  Gflops ||
|| hubbard_species_proj                       :     1        0.00s   0.000%  ------ ||
|| sw_bessel_init_cpu                         :     1        0.01s   0.000%  ------ || (1 procs only)
|| density_fftbox_interp_mult_imbal           :  7850        0.00s   0.000%  ------ ||
|| hubbard_projector_character                :     1        0.00s   0.000%  ------ ||
|| hubbard_ngwf_select                        :     1        0.00s   0.000%  ------ ||
|| hubbard_ngwf_on_grid                       :     1        0.00s   0.000%  ------ ||
|| linalg_invert_sym_matrix                   :     4        0.01s   0.000%  ------ || (144 procs only)
|| sparse_spam3toblacs_real_fast_imbal        :    10        0.01s   0.000%  ------ ||
|| hubbard_tensorial_correction               :     2        0.01s   0.000%  ------ ||
|| hash_table_free                            :    36        0.02s   0.000%  ------ ||
|| onetep.F90 final imbalance                 :     1        0.03s   0.000%  ------ ||
|| linalg_dgemv                               :    25        0.03s   0.000%  ------ ||
|| sparse_spam3toblacs_real_fast_B2           :  1500        0.04s   0.000%  ------ ||
|| ewald_calculate_energy                     :     1        0.04s   0.000%  ------ ||
|| ewald_calculate_forces_realspace           :     1        0.05s   0.000%  ------ ||
|| onetep.F90 main loop imbalance             :     1        0.06s   0.000%  ------ ||
|| sparse_blacstospam3_real_fast_imbal        :    24        0.06s   0.000%  ------ ||
|| ewald_calculate_forces_recipspace          :     1        0.07s   0.000%  ------ ||
|| paw_dij_hartree                            :   169        0.11s   0.000%  ------ ||
|| sw_init                                    :   312        0.13s   0.001%  ------ ||
|| sparse_set_to_garbage                      :   784        0.15s   0.001%  ------ ||
|| pseudo_make_structure_factor               :     1        0.21s   0.001%  ------ ||
|| ewald_calculate_forces                     :     1        0.22s   0.001%  ------ ||
|| basis_extract_function_from_box            :  1488        0.34s   0.002%  ------ ||
|| restart_kernel_read                        :     1        0.36s   0.002%  ------ ||
|| augmentation_density_forces                :     1        0.38s   0.002%  ------ ||
|| restart_hamiltonian_write                  :     1        0.40s   0.002%  ------ ||
|| paw_tcore_hartree_on_grid                  :     1        0.49s   0.002%  ------ ||
|| paw_tcore_hartree_calc_forces              :     1        0.92s   0.004%  ------ ||
|| sparse_spam3toblacs_real_fast_B1           :  1500        1.19s   0.005%  ------ ||
|| sparse_spam3toblacs_real_fast              :    10        1.34s   0.006%  ------ ||
|| paw_tcore_density                          :     1        1.74s   0.008%  ------ ||
|| dense_eigensolve                           :     2        1.87s   0.008%  ------ ||
|| paw_nlcc_calculate_forces                  :     1        1.99s   0.009%  ------ ||
|| ngwfs_initialise_from_radial               :     2        2.10s   0.009%  ------ ||
|| paw_dataset_init                           :     2        2.16s   0.010%  ------ ||
|| hubbard_projection_mtx                     :    38        2.24s   0.010%  ------ ||
|| sparse_init                                :     1        2.46s   0.011%  ------ ||
|| paw_sphere_density_on_grid                 :     1        2.94s   0.013%  ------ ||
|| hubbard_ham_matrix                         :    72        3.40s   0.015%  ------ ||
|| nonsc_forces_ngwfs_calc                    :     1        3.78s   0.017%  ------ ||
|| hubbard_projector_ham                      :    72        3.81s   0.017%  ------ ||
|| sparse_blacstospam3_real_fast              :    24        5.37s   0.024%  ------ ||
|| restart_kernel_write                       :    14        6.36s   0.029%  ------ ||
|| paw_species_calc_proj_prec_mat             :     1        9.12s   0.041%  ------ ||
|| restart_ngwfs_tightbox_input               :     1        9.14s   0.041%  ------ ||
|| fourier_filter_cell                        :   174       12.41s   0.056% 248.635 ||
|| sparse_embed_array_hotelling_invert        :    36       12.68s   0.057%  ------ ||
|| hubbard_energy_total                       :   153       14.90s   0.067%  ------ ||
|| hartree_on_grid_single                     :   155       15.44s   0.069%  ------ ||
|| basis_copy_function_to_box                 : 14025       16.50s   0.074%  ------ ||
|| sparse_trace                               :  4860       17.28s   0.078%  ------ ||
|| ngwf_gradient_coeffs                       :    15       19.73s   0.089%  ------ ||
|| energy_and_force_init_cell                 :     1       21.71s   0.098%  ------ ||
|| hubbard_calculate_forces                   :     1       25.08s   0.113%  ------ ||
|| fourier_apply_box_pair                     :  2369       25.43s   0.114%  5.452k ||
|| integrals_grad_spam3                       :     4       28.38s   0.127%  ------ ||
|| kernel_fix                                 :    70       29.73s   0.134%  ------ ||
|| fourier_interpolate_cell                   :   314       31.08s   0.140% 179.186 ||
|| kernel_purify                              :   237       33.78s   0.152%  ------ ||
|| lnv_gradient_norm                          :    70       34.29s   0.154%  ------ ||
|| hubbard_projector_update                   :     1       38.79s   0.174%  ------ ||
|| projectors_func_grad_ovlp_box_spam3        :     6       46.47s   0.209%  ------ ||
|| aug_nl_calculate_forces                    :     1       48.25s   0.217%  ------ ||
|| hamiltonian_energy_components              :     1       49.85s   0.224%  ------ ||
|| augmentation_screen_dij_spam3              :   154       51.18s   0.230%  ------ ||
|| paw_dij_xc                                 :   169       61.11s   0.274%  ------ ||
|| eigenstates_calculate                      :     1       61.72s   0.277%  ------ ||
|| fourier_apply_cell_backward                :  1396       64.80s   0.291% 343.638 ||
|| aug_nonlocal_mat_spam3_embed_array         :   153       65.04s   0.292%  ------ ||
|| fourier_apply_cell_forward                 :  1396       70.41s   0.316% 316.290 ||
|| cell_grid_deposit_box_real                 : 10352       95.56s   0.429%  ------ ||
|| aug_density_on_grid_spam3                  :   157      123.46s   0.554%  ------ ||
|| fourier_filter                             :  2517      123.92s   0.557%  ------ ||
|| xc_energy_potential                        :   155      142.34s   0.639%  ------ ||
|| forces_calculate                           :     1      168.89s   0.758%  ------ ||
|| fourier_interpolate                        :  2517      182.13s   0.818%  ------ ||
|| projectors_init_fftbox_recip               :   337      190.40s   0.855%  ------ ||
|| sparse_product                             : 10350      207.41s   0.932%  ------ ||
|| restart_ngwfs_tightbox_output              :    14      217.96s   0.979%  ------ ||
|| cell_grid_extract_box_real                 :  6396      307.93s   1.383%  ------ ||
|| function_ops_brappd_ketppd_spam3           :   148      387.87s   1.742%  ------ ||
|| density_fftbox_deposit_to_cell             :  7850      608.33s   2.732%  ------ ||
|| projectors_func_ovlp_box_spam3             :   150      680.94s   3.058%  ------ ||
|| properties_calculate                       :     1      734.70s   3.300%  ------ ||
|| integrals_kinetic_spam3                    :    72      910.69s   4.090%  ------ ||
|| basis_dot_function_with_box                : 8.991M     912.85s   4.100%  ------ ||
|| potential_apply_to_ngwf_batch              :   288     1022.29s   4.591%  ------ ||
|| projectors_gradient_batch                  :   120     1313.77s   5.900%  ------ ||
|| fourier_apply_box                          : 43444     1556.31s   6.990%  5.241k ||
|| fourier_interpolate_product                :  7536     1559.35s   7.003%  ------ ||
|| density_fftbox_interpolate_multiply        :  7850     1613.74s   7.248%  ------ ||
|| integrals_locpot_mat_els_batch             :   288     1827.02s   8.206%  ------ ||
|| basis_add_function_to_box                  : 18.37M    2102.42s   9.442%  ------ ||
|| integrals_locpot_dbl_grid                  :   144     2862.27s  12.855%  ------ ||
|| density_batch_interp_deposit               :   628     3003.91s  13.491%  ------ ||
|| projectors_grad_precond_batch              :    60     3209.21s  14.413%  ------ ||
|| density_batch_row_sums                     :   628     3674.30s  16.502%  ------ ||
|| ngwf_gradient_build_batch                  :    60     5243.74s  23.551%  ------ ||
|| density_on_dbl_grid                        :   314     6788.55s  30.489%  ------ ||
|| hamiltonian_lhxc_calculate                 :   153     7057.94s  31.699%  ------ ||
|| ngwf_gradient_batch                        :    60     8038.81s  36.104%  ------ ||
|| ngwf_gradient_lnv                          :    15     8605.87s  38.651%  ------ ||
|| lnv_denskernel_optimise_cg                 :    14     8967.03s  40.273%  ------ ||
|| ngwf_cg_optimise                           :     1    21200.65s  95.217%  ------ ||
|| energy_and_forces                          :     1    22242.01s  99.894%  ------ ||
|| total_time                                 :     1    22265.72s 100.000%  ------ ||
======================================================================================
Overhead of generating timer report: 
- 2 ms averaging over threads,
- 15 ms ensuring consistency across MPI ranks,
- 40 ms printing in order.

Job completed: 01-11-2024 03:19 (+0000)

onetep_launcher: ONETEP seems to have finished correctly (zero exit code).
                 Brought to you by PID 143838 on nid001214.
