==================================================================================
It's Mon 14 Apr 2025 03:04:44 PM BST.
*** Starting onetep_launcher (node nid005733, PIDs 127519 127520 127521 127522 127523 127524 127525)...
    - ONETEP arguments: Cr2I6_bilayer_HT_AFM_AFM_SP.dat
    - Current directory: /mnt/lustre/a2fs-work3/work/e89/e89/phsmea/CrI3_onetep_U/U_2.97/HT_AFM/HT_AFM_AFM/sp-ngwfs
    - Launcher executable directory: /mnt/lustre/a2fs-work3/work/e89/e89/phsmea/CrI3_onetep_U/U_2.97/HT_AFM/HT_AFM_AFM/sp-ngwfs
    - (-e) ONETEP executable specified through command-line: /work/e89/e89/phsmea/onetep.archer2_2024_cray
      ... trying /work/e89/e89/phsmea/onetep.archer2_2024_cray
          -> looks OK
*** Setting up environment...
    - (-s) Process stack size: unlimited
    - (-t) OMP_NUM_THREADS: 16
    - (-o) OMP_STACKSIZE: 64M
    - (-c) Maximum core file size: 2048000
    - (-d) decfort_dump_flag: n
    - (-m) I_MPI_OFA_TRANSLATION_CACHE: 0
    - (-m) I_MPI_DAPL_TRANSLATION_CACHE: 0
    - (-m) I_MPI_DAPL_UD_TRANSLATION_CACHE: 0
*** Starting ONETEP...
    - /work/e89/e89/phsmea/onetep.archer2_2024_cray Cr2I6_bilayer_HT_AFM_AFM_SP.dat
=================================================================================
_________________________________________________________________________________
 +---------------------------------------------------------------+
 |                                                               |
 |        ####### #     # ####### ####### ####### ######         |
 |        #     # ##    # #          #    #       #     #        |
 |        #     # # #   # #          #    #       #     #        |
 |        #     # #  #  # #####      #    #####   ######         |
 |        #     # #   # # #          #    #       #              |
 |        #     # #    ## #          #    #       #              |
 |        ####### #     # #######    #    ####### #              |
 |                                                               |
 |        Linear-Scaling Ab Initio Total Energy Program          |
 |                                                               |
 |          Release for academic collaborators of ODG            |
 |                                             Version 7.3.0     |
 | Remote: git@github.com:Miesaz/onetep_mea.git                  |
 | Local branch: master                                          |
 | Commit ID: 4af45e89288c8df5499704252eec3e032ee3d0c8           |
 | Date: Tue Aug 6 11:28:44 2024 +0100                           |
 | Working tree clean                                            |
 |                                                               |
 +---------------------------------------------------------------+
 |                                                               |
 |  Authors:                                                     |
 |  Jacek Dziedzic, Peter D. Haynes, Nicholas D. M. Hine,        |
 |  Arash A. Mostofi, Mike C. Payne and Chris-Kriton Skylaris    |
 |                                                               |
 |  Contributors:                                                |
 |  J. Aarons, L. Andrinopoulos, P. W. Avraam, R. A. Bell,       |
 |  A. Bhandari, G. A. Bramley, R. J. Charlton, S. J. Clark,     |
 |  R. J. Clements, G. C. Constantinescu, F. Corsetti,           |
 |  N. Corsini, O. Dieguez, S. M. M. Dubois, K. K. B. Duff,      |
 |  J. M. Escartin, M. Escobar Azor, A. Greco,                   |
 |  H. Helal, Q. O. Hill, L. P. Lee, J.-H. Li,                   |
 |  T. Li, E. B. Linscott, G. Moynihan, D. D. O`Regan,           |
 |  O. K. Okan, E. Parkinson, M. J. S. Phipps,                   |
 |  C. J. Pickard, J. C. A. Prentice, M. I. J. Probert,          |
 |  L. E. Ratcliff, M. Robinson, A. Ruiz Serrano,                |
 |  M. dos Santos Dias, J. S. Spencer, E. W. Tait,               |
 |  G. Teobaldi, D. Turban, V. Vitale, K. A. Wilkinson,          |
 |  C. Weber, J. C. Womack, Chengcheng Xiao, N. Yeung,           |
 |  and T. J. Zuehlsdorff.                                       |
 |                                                               |
 |                                   Copyright (c) 2004-2024     |
 |                                                               |
 |  Please cite:                                                 |
 |  "The ONETEP linear-scaling density functional theory program"|
 |   J. Chem. Phys. 152(17) 174111 (2020)                        |
 |                                                               |
 |          in all publications arising from your use of ONETEP. |
 |                                                               |
 +---------------------------------------------------------------+
 |                                                               |
 |   ONETEP is based on developments described in the following  |
 |   publications:                                               |
 |                                                               |
 |  "Nonorthogonal generalized Wannier function pseudopotential  |
 |   plane-wave method".                                         |
 |   C.-K. Skylaris, A. A. Mostofi, P. D. Haynes, O. Dieguez,    |
 |   M. C. Payne.                                                |
 |   Phys. Rev. B 66 035119 (2002).                              |
 |                                                               |
 |  "Preconditioned iterative minimization for linear-scaling    |
 |   electronic structure calculations".                         |
 |   A. A. Mostofi, P. D. Haynes, C.-K. Skylaris, M. C. Payne.   |
 |   J. Chem. Phys. 119(17), pp.8842-8848 (2003).                |
 |                                                               |
 |  "Total-energy calculations on a real space grid with         |
 |   localized functions and a plane-wave basis".                |
 |   A. A. Mostofi, C.-K. Skylaris, P. D. Haynes, M. C. Payne.   |
 |   Comput. Phys. Commun. 147, pp.788-802 (2002).               |
 |                                                               |
 |  "Accurate kinetic energy evaluation in electronic structure  |
 |   calculations with localized functions on real space grids"  |
 |   C.-K. Skylaris, A. A. Mostofi, P. D. Haynes, C. J. Pickard, |
 |   M. C. Payne.                                                |
 |   Comput. Phys. Commun. 140, pp.315-322 (2001).               |
 |                                                               |
 |  "Accurate ionic forces and geometry optimization in linear-  |
 |   scaling density-functional theory with local orbitals"      |
 |   N. D. M. Hine, M. Robinson, P. D. Haynes, C.-K. Skylaris,   |
 |   M. C. Payne, and A. A. Mostofi.                             |
 |   Phys. Rev. B 83 195102 (2011).                              |
 |                                                               |
 +---------------------------------------------------------------+

Job started: 14-04-2025 15:04 (+0100)
 
Reading parameters from file "Cr2I6_bilayer_HT_AFM_AFM_SP.dat" ...... done

If your calculation crashes here, before "Checking processes and threads..."
is displayed, then your stack size is insufficient.
If so, use "ulimit -s unlimited" at runtime.
You can disable this check with "check_stack_size F".

Checking processes and threads...
      Default threads: 16
   Running with 175 MPI processes.
   There are 7 MPI processes running on the same node as the root process.
   Each MPI process is using: 
               1 threads for simulation cell FFTs.
               1 threads for threaded FFT box operations.
              16 threads for loops over batched FFT box operations.
              16 threads in other parallel regions.
   MPI Interface: S1 (use mpi_f08) (-DMPI -DUSE_MPI_F08).
   MPI_ASYNC_PROTECTS_NONBLOCKING: Yes. MPI_SUBARRAYS_SUPPORTED: Yes.
   FFTW Interface: OMP-capable and MODERN. (-DUSE_MODERN_FFTW specified).
   GPU Interface: None.
   GPU FFT Backend: None.
... done

Basic input checks...... done

Reading geometry and species blocks from file "Cr2I6_bilayer_HT_AFM_AFM_SP.dat" ...... done


--------------------------------------------------------------------------------
---------------------------------- INPUT FILE ----------------------------------
--------------------------------------------------------------------------------

charge : 0                                                                      
cutoff_energy : 1000 eV                                                         
do_properties : T                                                               
delta_e_conv : F                                                                
edft : F                                                                        
edft_init_maxit : 15                                                            
elec_energy_tol : 1e-07 Ha                                                      
fine_grid_scale : 4                                                             
forces_output_detail : VERBOSE                                                  
maxit_ngwf_cg : 100                                                             
MAXIT_LNV     : 15                                                              
MINIT_LNV     : 5                                                               
ngwf_threshold_orig : 1e-07                                                     
ngwfs_spin_polarized : T                                                        
output_detail : NORMAL                                                          
paw : T                                                                         
read_denskern : F                                                               
read_hamiltonian : F                                                            
read_tightbox_ngwfs : F                                                         
spin : 0                                                                        
spin_polarized : T                                                              
task : SinglePoint                                                              
write_denskern : T                                                              
write_forces : T                                                                
write_hamiltonian : T                                                           
write_tightbox_ngwfs : T                                                        
xc_functional : PBE                                                             
%BLOCK LATTICE_CART                                                             
ang                                                                             
41.261892132       0.000000000000000        0.000000000000000                   
-20.630946066       35.733846792             0.000000000000000                  
0.000000000000000   0.0000000000000000       27.507928088                       
%ENDBLOCK LATTICE_CART                                                          
%BLOCK POSITIONS_ABS                                                            
ang                                                                             
Cr       5.73012301       1.98615267      15.61475195                           
Cr       2.29163200       3.96948846      15.61475241                           
I        6.71804295      -0.00001318      14.06395847                           
I        3.51661508       2.12334657      14.07089707                           
I        0.07814689       3.83230774      14.07089707                           
I        4.74445508      -0.00001140      17.15723785                           
I        4.50489604       3.83201918      17.15707434                           
I        1.06642478       2.12363336      17.15707434                           
Cr1      3.43917878       1.98613277       9.03123330                           
Cr1      0.00068777       3.96950836       9.03123376                           
I        4.42486276      -0.00001318       7.48874545                           
I        1.22590088       2.12363241       7.48890841                           
I       -2.21256731       3.83202190       7.48890841                           
I        2.45126709      -0.00001140      10.58202506                           
I        2.21418512       3.83230199      10.57507890                           
I       -1.22428614       2.12335055      10.57507890                           
Cr       2.29163200       7.94179381      15.61475195                           
Cr      -1.14685901       9.92512959      15.61475241                           
I        3.27955194       5.95562795      14.06395847                           
I        0.07812407       8.07898770      14.07089707                           
I       -3.36034412       9.78794887      14.07089707                           
I        1.30596407       5.95562973      17.15723785                           
I        1.06640503       9.78766031      17.15707434                           
I       -2.37206623       8.07927449      17.15707434                           
Cr1      0.00068777       7.94177390       9.03123330                           
Cr1     -3.43780324       9.92514949       9.03123376                           
I        0.98637175       5.95562795       7.48874545                           
I       -2.21259013       8.07927354       7.48890841                           
I       -5.65105832       9.78766304       7.48890841                           
I       -0.98722392       5.95562973      10.58202506                           
I       -1.22430589       9.78794313      10.57507890                           
I       -4.66277715       8.07899168      10.57507890                           
Cr      -1.14685901      13.89743494      15.61475195                           
Cr      -4.58535002      15.88077072      15.61475241                           
I       -0.15893907      11.91126908      14.06395847                           
I       -3.36036694      14.03462883      14.07089707                           
I       -6.79883513      15.74359001      14.07089707                           
I       -2.13252694      11.91127086      17.15723785                           
I       -2.37208598      15.74330145      17.15707434                           
I       -5.81055724      14.03491562      17.15707434                           
Cr1     -3.43780324      13.89741504       9.03123330                           
Cr1     -6.87629425      15.88079062       9.03123376                           
I       -2.45211926      11.91126908       7.48874545                           
I       -5.65108114      14.03491467       7.48890841                           
I       -9.08954933      15.74330417       7.48890841                           
I       -4.42571493      11.91127086      10.58202506                           
I       -4.66279691      15.74358426      10.57507890                           
I       -8.10126817      14.03463281      10.57507890                           
Cr      -4.58535002      19.85307607      15.61475195                           
Cr      -8.02384103      21.83641185      15.61475241                           
I       -3.59743008      17.86691022      14.06395847                           
I       -6.79885795      19.99026996      14.07089707                           
I      -10.23732614      21.69923114      14.07089707                           
I       -5.57101795      17.86691200      17.15723785                           
I       -5.81057699      21.69894258      17.15707434                           
I       -9.24904825      19.99055675      17.15707434                           
Cr1     -6.87629425      19.85305617       9.03123330                           
Cr1    -10.31478526      21.83643175       9.03123376                           
I       -5.89061027      17.86691022       7.48874545                           
I       -9.08957216      19.99055580       7.48890841                           
I      -12.52804035      21.69894530       7.48890841                           
I       -7.86420594      17.86691200      10.58202506                           
I       -8.10128792      21.69922539      10.57507890                           
I      -11.53975918      19.99027394      10.57507890                           
Cr      -8.02384103      25.80871720      15.61475195                           
Cr     -11.46233204      27.79205298      15.61475241                           
I       -7.03592109      23.82255135      14.06395847                           
I      -10.23734897      25.94591110      14.07089707                           
I      -13.67581716      27.65487227      14.07089707                           
I       -9.00950896      23.82255313      17.15723785                           
I       -9.24906800      27.65458371      17.15707434                           
I      -12.68753926      25.94619789      17.15707434                           
Cr1    -10.31478526      25.80869730       9.03123330                           
Cr1    -13.75327627      27.79207289       9.03123376                           
I       -9.32910128      23.82255135       7.48874545                           
I      -12.52806317      25.94619693       7.48890841                           
I      -15.96653136      27.65458643       7.48890841                           
I      -11.30269695      23.82255313      10.58202506                           
I      -11.53977893      27.65486652      10.57507890                           
I      -14.97825019      25.94591507      10.57507890                           
Cr     -11.46233205      31.76435833      15.61475195                           
Cr     -14.90082306      33.74769412      15.61475241                           
I      -10.47441210      29.77819248      14.06395847                           
I      -13.67583998      31.90155223      14.07089707                           
I      -17.11430817      33.61051340      14.07089707                           
I      -12.44799997      29.77819426      17.15723785                           
I      -12.68755901      33.61022484      17.15707434                           
I      -16.12603027      31.90183902      17.15707434                           
Cr1    -13.75327627      31.76433843       9.03123330                           
Cr1    -17.19176728      33.74771402       9.03123376                           
I      -12.76759229      29.77819248       7.48874545                           
I      -15.96655418      31.90183807       7.48890841                           
I      -19.40502237      33.61022756       7.48890841                           
I      -14.74118796      29.77819426      10.58202506                           
I      -14.97826994      33.61050765      10.57507890                           
I      -18.41674120      31.90155621      10.57507890                           
Cr      12.60710503       1.98615267      15.61475195                           
Cr       9.16861402       3.96948846      15.61475241                           
I       13.59502497      -0.00001318      14.06395847                           
I       10.39359710       2.12334657      14.07089707                           
I        6.95512891       3.83230774      14.07089707                           
I       11.62143710      -0.00001140      17.15723785                           
I       11.38187806       3.83201918      17.15707434                           
I        7.94340680       2.12363336      17.15707434                           
Cr1     10.31616080       1.98613277       9.03123330                           
Cr1      6.87766979       3.96950836       9.03123376                           
I       11.30184479      -0.00001318       7.48874545                           
I        8.10288290       2.12363241       7.48890841                           
I        4.66441471       3.83202190       7.48890841                           
I        9.32824912      -0.00001140      10.58202506                           
I        9.09116714       3.83230199      10.57507890                           
I        5.65269588       2.12335055      10.57507890                           
Cr       9.16861402       7.94179381      15.61475195                           
Cr       5.73012301       9.92512959      15.61475241                           
I       10.15653396       5.95562795      14.06395847                           
I        6.95510609       8.07898770      14.07089707                           
I        3.51663790       9.78794887      14.07089707                           
I        8.18294609       5.95562973      17.15723785                           
I        7.94338705       9.78766031      17.15707434                           
I        4.50491579       8.07927449      17.15707434                           
Cr1      6.87766979       7.94177390       9.03123330                           
Cr1      3.43917878       9.92514949       9.03123376                           
I        7.86335378       5.95562795       7.48874545                           
I        4.66439189       8.07927354       7.48890841                           
I        1.22592370       9.78766304       7.48890841                           
I        5.88975810       5.95562973      10.58202506                           
I        5.65267613       9.78794313      10.57507890                           
I        2.21420487       8.07899168      10.57507890                           
Cr       5.73012301      13.89743494      15.61475195                           
Cr       2.29163200      15.88077072      15.61475241                           
I        6.71804295      11.91126908      14.06395847                           
I        3.51661508      14.03462883      14.07089707                           
I        0.07814689      15.74359001      14.07089707                           
I        4.74445508      11.91127086      17.15723785                           
I        4.50489604      15.74330145      17.15707434                           
I        1.06642478      14.03491562      17.15707434                           
Cr1      3.43917878      13.89741504       9.03123330                           
Cr1      0.00068777      15.88079062       9.03123376                           
I        4.42486276      11.91126908       7.48874545                           
I        1.22590088      14.03491467       7.48890841                           
I       -2.21256731      15.74330417       7.48890841                           
I        2.45126709      11.91127086      10.58202506                           
I        2.21418512      15.74358426      10.57507890                           
I       -1.22428614      14.03463281      10.57507890                           
Cr       2.29163200      19.85307607      15.61475195                           
Cr      -1.14685901      21.83641185      15.61475241                           
I        3.27955194      17.86691022      14.06395847                           
I        0.07812407      19.99026996      14.07089707                           
I       -3.36034412      21.69923114      14.07089707                           
I        1.30596407      17.86691200      17.15723785                           
I        1.06640503      21.69894258      17.15707434                           
I       -2.37206623      19.99055675      17.15707434                           
Cr1      0.00068777      19.85305617       9.03123330                           
Cr1     -3.43780324      21.83643175       9.03123376                           
I        0.98637175      17.86691022       7.48874545                           
I       -2.21259013      19.99055580       7.48890841                           
I       -5.65105832      21.69894530       7.48890841                           
I       -0.98722392      17.86691200      10.58202506                           
I       -1.22430589      21.69922539      10.57507890                           
I       -4.66277715      19.99027394      10.57507890                           
Cr      -1.14685901      25.80871720      15.61475195                           
Cr      -4.58535002      27.79205298      15.61475241                           
I       -0.15893907      23.82255135      14.06395847                           
I       -3.36036694      25.94591110      14.07089707                           
I       -6.79883513      27.65487227      14.07089707                           
I       -2.13252694      23.82255313      17.15723785                           
I       -2.37208598      27.65458371      17.15707434                           
I       -5.81055724      25.94619789      17.15707434                           
Cr1     -3.43780324      25.80869730       9.03123330                           
Cr1     -6.87629425      27.79207289       9.03123376                           
I       -2.45211926      23.82255135       7.48874545                           
I       -5.65108114      25.94619693       7.48890841                           
I       -9.08954933      27.65458643       7.48890841                           
I       -4.42571493      23.82255313      10.58202506                           
I       -4.66279691      27.65486652      10.57507890                           
I       -8.10126817      25.94591507      10.57507890                           
Cr      -4.58535002      31.76435833      15.61475195                           
Cr      -8.02384103      33.74769412      15.61475241                           
I       -3.59743008      29.77819248      14.06395847                           
I       -6.79885795      31.90155223      14.07089707                           
I      -10.23732614      33.61051340      14.07089707                           
I       -5.57101795      29.77819426      17.15723785                           
I       -5.81057699      33.61022484      17.15707434                           
I       -9.24904825      31.90183902      17.15707434                           
Cr1     -6.87629425      31.76433843       9.03123330                           
Cr1    -10.31478526      33.74771402       9.03123376                           
I       -5.89061027      29.77819248       7.48874545                           
I       -9.08957216      31.90183807       7.48890841                           
I      -12.52804035      33.61022756       7.48890841                           
I       -7.86420594      29.77819426      10.58202506                           
I       -8.10128792      33.61050765      10.57507890                           
I      -11.53975918      31.90155621      10.57507890                           
Cr      19.48408705       1.98615267      15.61475195                           
Cr      16.04559604       3.96948846      15.61475241                           
I       20.47200700      -0.00001318      14.06395847                           
I       17.27057912       2.12334657      14.07089707                           
I       13.83211093       3.83230774      14.07089707                           
I       18.49841912      -0.00001140      17.15723785                           
I       18.25886009       3.83201918      17.15707434                           
I       14.82038883       2.12363336      17.15707434                           
Cr1     17.19314283       1.98613277       9.03123330                           
Cr1     13.75465182       3.96950836       9.03123376                           
I       18.17882681      -0.00001318       7.48874545                           
I       14.97986492       2.12363241       7.48890841                           
I       11.54139673       3.83202190       7.48890841                           
I       16.20523114      -0.00001140      10.58202506                           
I       15.96814916       3.83230199      10.57507890                           
I       12.52967790       2.12335055      10.57507890                           
Cr      16.04559604       7.94179381      15.61475195                           
Cr      12.60710503       9.92512959      15.61475241                           
I       17.03351599       5.95562795      14.06395847                           
I       13.83208811       8.07898770      14.07089707                           
I       10.39361992       9.78794887      14.07089707                           
I       15.05992811       5.95562973      17.15723785                           
I       14.82036907       9.78766031      17.15707434                           
I       11.38189781       8.07927449      17.15707434                           
Cr1     13.75465181       7.94177390       9.03123330                           
Cr1     10.31616080       9.92514949       9.03123376                           
I       14.74033580       5.95562795       7.48874545                           
I       11.54137391       8.07927354       7.48890841                           
I        8.10290572       9.78766304       7.48890841                           
I       12.76674013       5.95562973      10.58202506                           
I       12.52965815       9.78794313      10.57507890                           
I        9.09118689       8.07899168      10.57507890                           
Cr      12.60710503      13.89743494      15.61475195                           
Cr       9.16861402      15.88077072      15.61475241                           
I       13.59502497      11.91126908      14.06395847                           
I       10.39359710      14.03462883      14.07089707                           
I        6.95512891      15.74359001      14.07089707                           
I       11.62143710      11.91127086      17.15723785                           
I       11.38187806      15.74330145      17.15707434                           
I        7.94340680      14.03491562      17.15707434                           
Cr1     10.31616080      13.89741504       9.03123330                           
Cr1      6.87766979      15.88079062       9.03123376                           
I       11.30184479      11.91126908       7.48874545                           
I        8.10288290      14.03491467       7.48890841                           
I        4.66441471      15.74330417       7.48890841                           
I        9.32824912      11.91127086      10.58202506                           
I        9.09116714      15.74358426      10.57507890                           
I        5.65269588      14.03463281      10.57507890                           
Cr       9.16861402      19.85307607      15.61475195                           
Cr       5.73012301      21.83641185      15.61475241                           
I       10.15653396      17.86691022      14.06395847                           
I        6.95510609      19.99026996      14.07089707                           
I        3.51663790      21.69923114      14.07089707                           
I        8.18294609      17.86691200      17.15723785                           
I        7.94338705      21.69894258      17.15707434                           
I        4.50491579      19.99055675      17.15707434                           
Cr1      6.87766979      19.85305617       9.03123330                           
Cr1      3.43917878      21.83643175       9.03123376                           
I        7.86335378      17.86691022       7.48874545                           
I        4.66439189      19.99055580       7.48890841                           
I        1.22592370      21.69894530       7.48890841                           
I        5.88975810      17.86691200      10.58202506                           
I        5.65267613      21.69922539      10.57507890                           
I        2.21420487      19.99027394      10.57507890                           
Cr       5.73012301      25.80871720      15.61475195                           
Cr       2.29163200      27.79205298      15.61475241                           
I        6.71804295      23.82255135      14.06395847                           
I        3.51661508      25.94591110      14.07089707                           
I        0.07814689      27.65487227      14.07089707                           
I        4.74445508      23.82255313      17.15723785                           
I        4.50489604      27.65458371      17.15707434                           
I        1.06642478      25.94619789      17.15707434                           
Cr1      3.43917878      25.80869730       9.03123330                           
Cr1      0.00068777      27.79207289       9.03123376                           
I        4.42486276      23.82255135       7.48874545                           
I        1.22590088      25.94619693       7.48890841                           
I       -2.21256731      27.65458643       7.48890841                           
I        2.45126709      23.82255313      10.58202506                           
I        2.21418512      27.65486652      10.57507890                           
I       -1.22428614      25.94591507      10.57507890                           
Cr       2.29163200      31.76435833      15.61475195                           
Cr      -1.14685901      33.74769412      15.61475241                           
I        3.27955194      29.77819248      14.06395847                           
I        0.07812407      31.90155223      14.07089707                           
I       -3.36034412      33.61051340      14.07089707                           
I        1.30596407      29.77819426      17.15723785                           
I        1.06640503      33.61022484      17.15707434                           
I       -2.37206623      31.90183902      17.15707434                           
Cr1      0.00068777      31.76433843       9.03123330                           
Cr1     -3.43780324      33.74771402       9.03123376                           
I        0.98637175      29.77819248       7.48874545                           
I       -2.21259013      31.90183807       7.48890841                           
I       -5.65105832      33.61022756       7.48890841                           
I       -0.98722392      29.77819426      10.58202506                           
I       -1.22430589      33.61050765      10.57507890                           
I       -4.66277715      31.90155621      10.57507890                           
Cr      26.36106908       1.98615267      15.61475195                           
Cr      22.92257807       3.96948846      15.61475241                           
I       27.34898902      -0.00001318      14.06395847                           
I       24.14756114       2.12334657      14.07089707                           
I       20.70909295       3.83230774      14.07089707                           
I       25.37540115      -0.00001140      17.15723785                           
I       25.13584211       3.83201918      17.15707434                           
I       21.69737085       2.12363336      17.15707434                           
Cr1     24.07012485       1.98613277       9.03123330                           
Cr1     20.63163384       3.96950836       9.03123376                           
I       25.05580883      -0.00001318       7.48874545                           
I       21.85684694       2.12363241       7.48890841                           
I       18.41837875       3.83202190       7.48890841                           
I       23.08221316      -0.00001140      10.58202506                           
I       22.84513118       3.83230199      10.57507890                           
I       19.40665992       2.12335055      10.57507890                           
Cr      22.92257806       7.94179381      15.61475195                           
Cr      19.48408705       9.92512959      15.61475241                           
I       23.91049801       5.95562795      14.06395847                           
I       20.70907013       8.07898770      14.07089707                           
I       17.27060194       9.78794887      14.07089707                           
I       21.93691014       5.95562973      17.15723785                           
I       21.69735110       9.78766031      17.15707434                           
I       18.25887984       8.07927449      17.15707434                           
Cr1     20.63163384       7.94177390       9.03123330                           
Cr1     17.19314283       9.92514949       9.03123376                           
I       21.61731782       5.95562795       7.48874545                           
I       18.41835593       8.07927354       7.48890841                           
I       14.97988774       9.78766304       7.48890841                           
I       19.64372215       5.95562973      10.58202506                           
I       19.40664017       9.78794313      10.57507890                           
I       15.96816891       8.07899168      10.57507890                           
Cr      19.48408705      13.89743494      15.61475195                           
Cr      16.04559604      15.88077072      15.61475241                           
I       20.47200700      11.91126908      14.06395847                           
I       17.27057912      14.03462883      14.07089707                           
I       13.83211093      15.74359001      14.07089707                           
I       18.49841912      11.91127086      17.15723785                           
I       18.25886009      15.74330145      17.15707434                           
I       14.82038883      14.03491562      17.15707434                           
Cr1     17.19314283      13.89741504       9.03123330                           
Cr1     13.75465182      15.88079062       9.03123376                           
I       18.17882681      11.91126908       7.48874545                           
I       14.97986492      14.03491467       7.48890841                           
I       11.54139673      15.74330417       7.48890841                           
I       16.20523114      11.91127086      10.58202506                           
I       15.96814916      15.74358426      10.57507890                           
I       12.52967790      14.03463281      10.57507890                           
Cr      16.04559604      19.85307607      15.61475195                           
Cr      12.60710503      21.83641185      15.61475241                           
I       17.03351599      17.86691022      14.06395847                           
I       13.83208811      19.99026996      14.07089707                           
I       10.39361992      21.69923114      14.07089707                           
I       15.05992811      17.86691200      17.15723785                           
I       14.82036907      21.69894258      17.15707434                           
I       11.38189781      19.99055675      17.15707434                           
Cr1     13.75465181      19.85305617       9.03123330                           
Cr1     10.31616080      21.83643175       9.03123376                           
I       14.74033580      17.86691022       7.48874545                           
I       11.54137391      19.99055580       7.48890841                           
I        8.10290572      21.69894530       7.48890841                           
I       12.76674013      17.86691200      10.58202506                           
I       12.52965815      21.69922539      10.57507890                           
I        9.09118689      19.99027394      10.57507890                           
Cr      12.60710503      25.80871720      15.61475195                           
Cr       9.16861402      27.79205298      15.61475241                           
I       13.59502497      23.82255135      14.06395847                           
I       10.39359710      25.94591110      14.07089707                           
I        6.95512891      27.65487227      14.07089707                           
I       11.62143710      23.82255313      17.15723785                           
I       11.38187806      27.65458371      17.15707434                           
I        7.94340680      25.94619789      17.15707434                           
Cr1     10.31616080      25.80869730       9.03123330                           
Cr1      6.87766979      27.79207289       9.03123376                           
I       11.30184479      23.82255135       7.48874545                           
I        8.10288290      25.94619693       7.48890841                           
I        4.66441471      27.65458643       7.48890841                           
I        9.32824912      23.82255313      10.58202506                           
I        9.09116714      27.65486652      10.57507890                           
I        5.65269588      25.94591507      10.57507890                           
Cr       9.16861402      31.76435833      15.61475195                           
Cr       5.73012301      33.74769412      15.61475241                           
I       10.15653396      29.77819248      14.06395847                           
I        6.95510609      31.90155223      14.07089707                           
I        3.51663790      33.61051340      14.07089707                           
I        8.18294609      29.77819426      17.15723785                           
I        7.94338705      33.61022484      17.15707434                           
I        4.50491579      31.90183902      17.15707434                           
Cr1      6.87766979      31.76433843       9.03123330                           
Cr1      3.43917878      33.74771402       9.03123376                           
I        7.86335378      29.77819248       7.48874545                           
I        4.66439189      31.90183807       7.48890841                           
I        1.22592370      33.61022756       7.48890841                           
I        5.88975810      29.77819426      10.58202506                           
I        5.65267613      33.61050765      10.57507890                           
I        2.21420487      31.90155621      10.57507890                           
Cr      33.23805110       1.98615267      15.61475195                           
Cr      29.79956009       3.96948846      15.61475241                           
I       34.22597104      -0.00001318      14.06395847                           
I       31.02454317       2.12334657      14.07089707                           
I       27.58607498       3.83230774      14.07089707                           
I       32.25238317      -0.00001140      17.15723785                           
I       32.01282413       3.83201918      17.15707434                           
I       28.57435287       2.12363336      17.15707434                           
Cr1     30.94710687       1.98613277       9.03123330                           
Cr1     27.50861586       3.96950836       9.03123376                           
I       31.93279085      -0.00001318       7.48874545                           
I       28.73382897       2.12363241       7.48890841                           
I       25.29536078       3.83202190       7.48890841                           
I       29.95919518      -0.00001140      10.58202506                           
I       29.72211320       3.83230199      10.57507890                           
I       26.28364194       2.12335055      10.57507890                           
Cr      29.79956009       7.94179381      15.61475195                           
Cr      26.36106908       9.92512959      15.61475241                           
I       30.78748003       5.95562795      14.06395847                           
I       27.58605216       8.07898770      14.07089707                           
I       24.14758397       9.78794887      14.07089707                           
I       28.81389216       5.95562973      17.15723785                           
I       28.57433312       9.78766031      17.15707434                           
I       25.13586186       8.07927449      17.15707434                           
Cr1     27.50861586       7.94177390       9.03123330                           
Cr1     24.07012485       9.92514949       9.03123376                           
I       28.49429984       5.95562795       7.48874545                           
I       25.29533795       8.07927354       7.48890841                           
I       21.85686976       9.78766304       7.48890841                           
I       26.52070417       5.95562973      10.58202506                           
I       26.28362219       9.78794313      10.57507890                           
I       22.84515093       8.07899168      10.57507890                           
Cr      26.36106908      13.89743494      15.61475195                           
Cr      22.92257807      15.88077072      15.61475241                           
I       27.34898902      11.91126908      14.06395847                           
I       24.14756114      14.03462883      14.07089707                           
I       20.70909295      15.74359001      14.07089707                           
I       25.37540115      11.91127086      17.15723785                           
I       25.13584211      15.74330145      17.15707434                           
I       21.69737085      14.03491562      17.15707434                           
Cr1     24.07012485      13.89741504       9.03123330                           
Cr1     20.63163384      15.88079062       9.03123376                           
I       25.05580883      11.91126908       7.48874545                           
I       21.85684694      14.03491467       7.48890841                           
I       18.41837875      15.74330417       7.48890841                           
I       23.08221316      11.91127086      10.58202506                           
I       22.84513118      15.74358426      10.57507890                           
I       19.40665992      14.03463281      10.57507890                           
Cr      22.92257806      19.85307607      15.61475195                           
Cr      19.48408705      21.83641185      15.61475241                           
I       23.91049801      17.86691022      14.06395847                           
I       20.70907013      19.99026996      14.07089707                           
I       17.27060194      21.69923114      14.07089707                           
I       21.93691014      17.86691200      17.15723785                           
I       21.69735110      21.69894258      17.15707434                           
I       18.25887984      19.99055675      17.15707434                           
Cr1     20.63163384      19.85305617       9.03123330                           
Cr1     17.19314283      21.83643175       9.03123376                           
I       21.61731782      17.86691022       7.48874545                           
I       18.41835593      19.99055580       7.48890841                           
I       14.97988774      21.69894530       7.48890841                           
I       19.64372215      17.86691200      10.58202506                           
I       19.40664017      21.69922539      10.57507890                           
I       15.96816891      19.99027394      10.57507890                           
Cr      19.48408705      25.80871720      15.61475195                           
Cr      16.04559604      27.79205298      15.61475241                           
I       20.47200700      23.82255135      14.06395847                           
I       17.27057912      25.94591110      14.07089707                           
I       13.83211093      27.65487227      14.07089707                           
I       18.49841912      23.82255313      17.15723785                           
I       18.25886009      27.65458371      17.15707434                           
I       14.82038883      25.94619789      17.15707434                           
Cr1     17.19314283      25.80869730       9.03123330                           
Cr1     13.75465182      27.79207289       9.03123376                           
I       18.17882681      23.82255135       7.48874545                           
I       14.97986492      25.94619693       7.48890841                           
I       11.54139673      27.65458643       7.48890841                           
I       16.20523114      23.82255313      10.58202506                           
I       15.96814916      27.65486652      10.57507890                           
I       12.52967790      25.94591507      10.57507890                           
Cr      16.04559604      31.76435833      15.61475195                           
Cr      12.60710503      33.74769412      15.61475241                           
I       17.03351599      29.77819248      14.06395847                           
I       13.83208811      31.90155223      14.07089707                           
I       10.39361992      33.61051340      14.07089707                           
I       15.05992811      29.77819426      17.15723785                           
I       14.82036907      33.61022484      17.15707434                           
I       11.38189781      31.90183902      17.15707434                           
Cr1     13.75465181      31.76433843       9.03123330                           
Cr1     10.31616080      33.74771402       9.03123376                           
I       14.74033580      29.77819248       7.48874545                           
I       11.54137391      31.90183807       7.48890841                           
I        8.10290572      33.61022756       7.48890841                           
I       12.76674013      29.77819426      10.58202506                           
I       12.52965815      33.61050765      10.57507890                           
I        9.09118689      31.90155621      10.57507890                           
Cr      40.11503312       1.98615267      15.61475195                           
Cr      36.67654211       3.96948846      15.61475241                           
I       41.10295306      -0.00001318      14.06395847                           
I       37.90152519       2.12334657      14.07089707                           
I       34.46305700       3.83230774      14.07089707                           
I       39.12936519      -0.00001140      17.15723785                           
I       38.88980615       3.83201918      17.15707434                           
I       35.45133489       2.12363336      17.15707434                           
Cr1     37.82408889       1.98613277       9.03123330                           
Cr1     34.38559788       3.96950836       9.03123376                           
I       38.80977287      -0.00001318       7.48874545                           
I       35.61081099       2.12363241       7.48890841                           
I       32.17234280       3.83202190       7.48890841                           
I       36.83617720      -0.00001140      10.58202506                           
I       36.59909523       3.83230199      10.57507890                           
I       33.16062397       2.12335055      10.57507890                           
Cr      36.67654211       7.94179381      15.61475195                           
Cr      33.23805110       9.92512959      15.61475241                           
I       37.66446205       5.95562795      14.06395847                           
I       34.46303418       8.07898770      14.07089707                           
I       31.02456599       9.78794887      14.07089707                           
I       35.69087418       5.95562973      17.15723785                           
I       35.45131514       9.78766031      17.15707434                           
I       32.01284388       8.07927449      17.15707434                           
Cr1     34.38559788       7.94177390       9.03123330                           
Cr1     30.94710687       9.92514949       9.03123376                           
I       35.37128186       5.95562795       7.48874545                           
I       32.17231998       8.07927354       7.48890841                           
I       28.73385179       9.78766304       7.48890841                           
I       33.39768619       5.95562973      10.58202506                           
I       33.16060422       9.78794313      10.57507890                           
I       29.72213296       8.07899168      10.57507890                           
Cr      33.23805110      13.89743494      15.61475195                           
Cr      29.79956009      15.88077072      15.61475241                           
I       34.22597104      11.91126908      14.06395847                           
I       31.02454317      14.03462883      14.07089707                           
I       27.58607498      15.74359001      14.07089707                           
I       32.25238317      11.91127086      17.15723785                           
I       32.01282413      15.74330145      17.15707434                           
I       28.57435287      14.03491562      17.15707434                           
Cr1     30.94710687      13.89741504       9.03123330                           
Cr1     27.50861586      15.88079062       9.03123376                           
I       31.93279085      11.91126908       7.48874545                           
I       28.73382897      14.03491467       7.48890841                           
I       25.29536078      15.74330417       7.48890841                           
I       29.95919518      11.91127086      10.58202506                           
I       29.72211320      15.74358426      10.57507890                           
I       26.28364194      14.03463281      10.57507890                           
Cr      29.79956009      19.85307607      15.61475195                           
Cr      26.36106908      21.83641185      15.61475241                           
I       30.78748003      17.86691022      14.06395847                           
I       27.58605216      19.99026996      14.07089707                           
I       24.14758397      21.69923114      14.07089707                           
I       28.81389216      17.86691200      17.15723785                           
I       28.57433312      21.69894258      17.15707434                           
I       25.13586186      19.99055675      17.15707434                           
Cr1     27.50861586      19.85305617       9.03123330                           
Cr1     24.07012485      21.83643175       9.03123376                           
I       28.49429984      17.86691022       7.48874545                           
I       25.29533795      19.99055580       7.48890841                           
I       21.85686976      21.69894530       7.48890841                           
I       26.52070417      17.86691200      10.58202506                           
I       26.28362219      21.69922539      10.57507890                           
I       22.84515093      19.99027394      10.57507890                           
Cr      26.36106908      25.80871720      15.61475195                           
Cr      22.92257807      27.79205298      15.61475241                           
I       27.34898902      23.82255135      14.06395847                           
I       24.14756114      25.94591110      14.07089707                           
I       20.70909295      27.65487227      14.07089707                           
I       25.37540115      23.82255313      17.15723785                           
I       25.13584211      27.65458371      17.15707434                           
I       21.69737085      25.94619789      17.15707434                           
Cr1     24.07012485      25.80869730       9.03123330                           
Cr1     20.63163384      27.79207289       9.03123376                           
I       25.05580883      23.82255135       7.48874545                           
I       21.85684694      25.94619693       7.48890841                           
I       18.41837875      27.65458643       7.48890841                           
I       23.08221316      23.82255313      10.58202506                           
I       22.84513118      27.65486652      10.57507890                           
I       19.40665992      25.94591507      10.57507890                           
Cr      22.92257806      31.76435833      15.61475195                           
Cr      19.48408705      33.74769412      15.61475241                           
I       23.91049801      29.77819248      14.06395847                           
I       20.70907013      31.90155223      14.07089707                           
I       17.27060194      33.61051340      14.07089707                           
I       21.93691014      29.77819426      17.15723785                           
I       21.69735110      33.61022484      17.15707434                           
I       18.25887984      31.90183902      17.15707434                           
Cr1     20.63163384      31.76433843       9.03123330                           
Cr1     17.19314283      33.74771402       9.03123376                           
I       21.61731782      29.77819248       7.48874545                           
I       18.41835593      31.90183807       7.48890841                           
I       14.97988774      33.61022756       7.48890841                           
I       19.64372215      29.77819426      10.58202506                           
I       19.40664017      33.61050765      10.57507890                           
I       15.96816891      31.90155621      10.57507890                           
%ENDBLOCK POSITIONS_ABS                                                         
%BLOCK SPECIES                                                                  
Cr Cr 24 -1 15                                                                  
I   I  53 -1 15                                                                 
Cr1 Cr 24 -1 15                                                                 
%ENDBLOCK SPECIES                                                               
%BLOCK SPECIES_ATOMIC_SET                                                       
Cr "SOLVE INIT SPIN=3"                                                          
I   "SOLVE"                                                                     
Cr1 "SOLVE INIT SPIN=-3"                                                        
%ENDBLOCK SPECIES_ATOMIC_SET                                                    
%BLOCK HUBBARD                                                                  
Cr  2 2.97 0.0 -10.0 0.00 0.0                                                   
Cr1 2 2.97 0.0 -10.0 0.00 0.0                                                   
%ENDBLOCK HUBBARD                                                               
%BLOCK SPECIES_LDOS_GROUPS                                                      
Cr                                                                              
I                                                                               
Cr1                                                                             
%ENDBLOCK SPECIES_LDOS_GROUPS                                                   
%BLOCK SPECIES_POT                                                              
Cr  "../../../../Cr.PBE-paw.abinit"                                             
I   "../../../../I.PBE-paw.abinit"                                              
Cr1 "../../../../Cr.PBE-paw.abinit"                                             
%ENDBLOCK SPECIES_POT                                                           

--------------------------------------------------------------------------------
-------------------------------- END INPUT FILE --------------------------------
--------------------------------------------------------------------------------


 
 ESDF WARNING(1): "charge" (esdf_physical) has no units. Assume "e".
<<<<<<<<<<<<<<<<<<<<<<<<<<<<<<<<< Full system >>>>>>>>>>>>>>>>>>>>>>>>>>>>>>>>>>
<<<<<<<<<<<<<<<<<<<<<<<<<<< PAW Dataset information >>>>>>>>>>>>>>>>>>>>>>>>>>>
File: ../../../../Cr.PBE-paw.abinit; rc = 2.11 bohr; shape type =  2; rshape = 1.80 bohr;
  Atomic number: 24;  ionic charge: 14.000000
    Partial Wave 1: l = 0
    Partial Wave 2: l = 0
    Partial Wave 3: l = 1
    Partial Wave 4: l = 1
    Partial Wave 5: l = 2
    Partial Wave 6: l = 2
  Core charge supplied for Nonlinear Core Corrections
File: ../../../../I.PBE-paw.abinit; rc = 2.30 bohr; shape type =  2; rshape = 2.11 bohr;
  Atomic number: 53;  ionic charge:  7.000000
    Partial Wave 1: l = 0
    Partial Wave 2: l = 0
    Partial Wave 3: l = 1
    Partial Wave 4: l = 1
  Core charge supplied for Nonlinear Core Corrections
<<<<<<<<<<<<<<<<<<<<<<<<<<<<<<<<<<<<<<< >>>>>>>>>>>>>>>>>>>>>>>>>>>>>>>>>>>>>>>

-------------------------- Atom counting information ---------------------------
Symbol    Natoms    Nngwfs    Nprojs
  Cr       144      1872      2592
  I        432      1728      3456
.......   ......    ......    ......
Totals:    576      3600      6048
--------------------------------------------------------------------------------

=============================== PSINC grid sizes ===============================
                      Simulation cell:  175 x 175 x 117
                              FFT-box:  175 x 175 x 117
                                  PPD:    5 x   5 x   1
Grid space d1=  0.445563862424a0 (KE cutoff=  38.26345Eh =1041.20135eV)
Grid space d2=  0.445563862400a0 (KE cutoff=  38.26345Eh =1041.20135eV)
Grid space d3=  0.444294449711a0 (KE cutoff=  38.48241Eh =1047.15957eV)
================================================================================

********************* Fourier parallelisation information **********************
       Coarse grid (whole simulation cell) dimensions:    175   175   117
          Real-space ('12') slabs/proc (min max mean):      0     1     0
         Recip-space ('23') slabs/proc (min max mean):      0     1     0
********************************************************************************

********************* Fourier parallelisation information **********************
       Double grid (whole simulation cell) dimensions:    350   350   234
          Real-space ('12') slabs/proc (min max mean):      1     2     1
         Recip-space ('23') slabs/proc (min max mean):      1     2     1
********************************************************************************

********************* Fourier parallelisation information **********************
         Fine grid (whole simulation cell) dimensions:    700   700   468
          Real-space ('12') slabs/proc (min max mean):      2     3     2
         Recip-space ('23') slabs/proc (min max mean):      2     3     2
********************************************************************************
energy_and_force_init_cell: WARNING in internal_setup_spin:
        even number of electrons in cell and zero spin
        but continuing with spin-polarised calculation

Atom SCF Calculation for Cr : Z (AE atom) =  24 : Z (PS atom) =  14
Config String: 3s2.0 3p6.0 3d5.0 4s1.0 4p0.0 INIT SPIN=3
Orbitals (num,occ):  5     2.00 6.00 5.00 1.00 0.00
Orbitals   (num,l):  5        0    1    2    0    1
Atom SCF converged after  64 iterations to a total energy of    -87.07044631
Adjusting orbital occupancies:
Orbitals (num,spin,occ):  5  1     1.00 3.00 3.50 1.00 0.00
Orbitals   (num,spin,l):  5  1        0    1    2    0    1
Orbitals (num,spin,occ):  5  2     1.00 3.00 1.00 0.50 0.00
Orbitals   (num,spin,l):  5  2        0    1    2    0    1

Atom SCF Calculation for I  : Z (AE atom) =  53 : Z (PS atom) =   7
Config String: 5s2.0 5p5.0
Orbitals (num,occ):  2     2.00 5.00
Orbitals   (num,l):  2        0    1
Atom SCF converged after  28 iterations to a total energy of    -11.61352964

Atom SCF Calculation for Cr : Z (AE atom) =  24 : Z (PS atom) =  14
Config String: 3s2.0 3p6.0 3d5.0 4s1.0 4p0.0 INIT SPIN=-3
Orbitals (num,occ):  5     2.00 6.00 5.00 1.00 0.00
Orbitals   (num,l):  5        0    1    2    0    1
Atom SCF converged after  64 iterations to a total energy of    -87.07044631
Adjusting orbital occupancies:
Orbitals (num,spin,occ):  5  1     1.00 3.00 1.00 0.50 0.00
Orbitals   (num,spin,l):  5  1        0    1    2    0    1
Orbitals (num,spin,occ):  5  2     1.00 3.00 3.50 1.00 0.00
Orbitals   (num,spin,l):  5  2        0    1    2    0    1

Atom SCF Calculation for Cr : Z (AE atom) =  24 : Z (PS atom) =  14
Config String: 3s2.0 3p6.0 3d5.0 4s1.0 4p0.0 INIT SPIN=3
Orbitals (num,occ):  5     2.00 6.00 5.00 1.00 0.00
Orbitals   (num,l):  5        0    1    2    0    1
Atom SCF converged after  64 iterations to a total energy of    -87.07044631

Atom SCF Calculation for I  : Z (AE atom) =  53 : Z (PS atom) =   7
Config String: 5s2.0 5p5.0
Orbitals (num,occ):  2     2.00 5.00
Orbitals   (num,l):  2        0    1
Atom SCF converged after  28 iterations to a total energy of    -11.61352964

Atom SCF Calculation for Cr : Z (AE atom) =  24 : Z (PS atom) =  14
Config String: 3s2.0 3p6.0 3d5.0 4s1.0 4p0.0 INIT SPIN=-3
Orbitals (num,occ):  5     2.00 6.00 5.00 1.00 0.00
Orbitals   (num,l):  5        0    1    2    0    1
Atom SCF converged after  64 iterations to a total energy of    -87.07044631

Determining parallel strategy ...... done
Calculating Ewald energy ...            31475.177180 Hartree
Basis initialisation ...
... done

============================= Charge Augmentation ==============================
                           Aug box size:   49 x  49 x  45
================================================================================
Sparse matrix initialisation ...
 done
NGWF initialisation ... done
 done

================================= Core Density =================================
               Core den box size:  125 x 125 x 105
================================================================================
Density kernel initialisation

--------------------------- Ensemble-DFT optimisation --------------------------
Running ScaLAPACK on  175 processor(s).
With smearing scheme: FERMIDIRAC                                                                      

--------------------------------------------------------------------------------
  Iter                              Commutator    Free_energy(A=E-TS)     DeltaA
#    0                          0.006174090132  -17457.29175650884280  -1.75E+04
#    1                          0.001669826200  -17597.85991230660510  -1.41E+02
#    2                          0.000293466375  -17613.09438631568990  -1.52E+01
#    3                          0.000155773423  -17613.61986514304230  -5.25E-01
#    4                          0.000182470551  -17613.95722156564810  -3.37E-01
#    5                          0.000082746076  -17614.16092049553120  -2.04E-01
#    6                          0.000096321565  -17614.27446744643020  -1.14E-01
#    7                          0.000048160407  -17614.33712973037840  -6.27E-02
#    8                          0.000058680806  -17614.37398889402900  -3.69E-02
#    9                          0.000030266543  -17614.39855057792370  -2.46E-02
#   10                          0.000036192322  -17614.41316642874880  -1.46E-02
#   11                          0.000020663445  -17614.42345564050990  -1.03E-02
#   12                          0.000023497788  -17614.42964818885230  -6.19E-03
#   13                          0.000015512602  -17614.43447467845910  -4.83E-03
#   14                          0.000015347196  -17614.43734973229580  -2.88E-03
#   15                          0.000012541001  -17614.43982334473550  -2.47E-03
Finished EDFT density kernel iterations (  15)


Writing density kernel to file "Cr2I6_bilayer_HT_AFM_AFM_SP.dkn" ... done

Writing Hamiltonian to file "Cr2I6_bilayer_HT_AFM_AFM_SP.ham" ... done

Writing density kernel to file "Cr2I6_bilayer_HT_AFM_AFM_SP.dkn" ... done

>>> Optimising kernel for current NGWFs:
   iter  |      energy (Eh)       | rms gradient |  commutator  |   dE (Eh)
    1        -1.761443920436E+04     2.3945E-05     1.2094E-05
    2        -1.761444023436E+04     2.5873E-05     1.3068E-05    -1.0300E-03
    3        -1.761444109754E+04     5.2169E-05     2.6350E-05    -8.6317E-04
    4        -1.761444144761E+04     5.4373E-05     2.7462E-05    -3.5007E-04
    5        -1.761444366884E+04     5.5934E-05     2.8251E-05    -2.2212E-03
Finished density kernel iterations (   5)

Writing density kernel to file "Cr2I6_bilayer_HT_AFM_AFM_SP.dkn" ... done


>>> Density kernel optimised for the current NGWF basis:
     ~~~~~~~~~~~~~~~~~~~~~~~~~~~~~~~~~~~~~~~~~~~~~~~~~~~~~~~~~~~
     Total energy                =  -1.76144436688409E+04  Eh
     Estimated bandgap (UP spin) =   4.1040E-02  Eh
     Estimated bandgap (DN spin) =   4.1116E-02  Eh
     RMS occupancy error         =   2.8403E-09
     [H,K] commutator            =   2.8251E-05
     UP spin occupancy bounds    = [ -0.000:  1.000]
     DN spin occupancy bounds    = [ -0.000:  1.000]
     ~~~~~~~~~~~~~~~~~~~~~~~~~~~~~~~~~~~~~~~~~~~~~~~~~~~~~~~~~~~




################################################################################
########################### NGWF CG iteration  001 #############################
################################################################################

>>> Checking for convergence of NGWFs:   NOT CONVERGED
  ========================================================================
         NGWF RMS gradient =  1.0231E-04 >  1.0000E-07  | above tolerance
  ========================================================================

>>> Improving NGWFs using line search:
  ========================================================================
   Predicted total energy    =      -1.76224138779843E+04 Eh
   Predicted gain in energy  =      -7.97020914331006E+00 Eh
  ========================================================================

Writing NGWFs to file "Cr2I6_bilayer_HT_AFM_AFM_SP.tightbox_ngwfs".... done

>>> Optimising kernel for current NGWFs:
   iter  |      energy (Eh)       | rms gradient |  commutator  |   dE (Eh)
    1        -1.762239945752E+04     5.2856E-04     2.6696E-04
    2        -1.762276151446E+04     2.2077E-04     1.1151E-04    -3.6206E-01
    3        -1.762280345037E+04     9.5777E-05     4.8375E-05    -4.1936E-02
    4        -1.762281620771E+04     6.4542E-05     3.2599E-05    -1.2757E-02
    5        -1.762282295474E+04     2.9381E-05     1.4840E-05    -6.7470E-03
Finished density kernel iterations (   5)

Writing density kernel to file "Cr2I6_bilayer_HT_AFM_AFM_SP.dkn" ... done


>>> Density kernel optimised for the current NGWF basis:
     ~~~~~~~~~~~~~~~~~~~~~~~~~~~~~~~~~~~~~~~~~~~~~~~~~~~~~~~~~~~
     Total energy                =  -1.76228229547361E+04  Eh
     Estimated bandgap (UP spin) =   4.7999E-02  Eh
     Estimated bandgap (DN spin) =   4.8008E-02  Eh
     RMS occupancy error         =   7.3775E-10
     [H,K] commutator            =   1.4840E-05
     UP spin occupancy bounds    = [ -0.000:  1.000]
     DN spin occupancy bounds    = [ -0.000:  1.000]
     ~~~~~~~~~~~~~~~~~~~~~~~~~~~~~~~~~~~~~~~~~~~~~~~~~~~~~~~~~~~




################################################################################
########################### NGWF CG iteration  002 #############################
################################################################################

>>> Checking for convergence of NGWFs:   NOT CONVERGED
  ========================================================================
         NGWF RMS gradient =  6.8953E-05 >  1.0000E-07  | above tolerance
  Maximum change in energy =  1.4547E-02 >  1.0000E-07  | above tolerance
  ========================================================================

>>> Improving NGWFs using line search:
  ========================================================================
   Predicted total energy    =      -1.76254551694859E+04 Eh
   Predicted gain in energy  =      -2.63221474983948E+00 Eh
  ========================================================================

Writing NGWFs to file "Cr2I6_bilayer_HT_AFM_AFM_SP.tightbox_ngwfs".... done

>>> Optimising kernel for current NGWFs:
   iter  |      energy (Eh)       | rms gradient |  commutator  |   dE (Eh)
    1        -1.762544488388E+04     2.0384E-04     1.0295E-04
    2        -1.762550755054E+04     5.6489E-05     2.8531E-05    -6.2667E-02
    3        -1.762551149535E+04     5.1270E-05     2.5895E-05    -3.9448E-03
    4        -1.762551690217E+04     3.1944E-05     1.6134E-05    -5.4068E-03
    5        -1.762551846633E+04     2.6970E-05     1.3622E-05    -1.5642E-03
Finished density kernel iterations (   5)

Writing density kernel to file "Cr2I6_bilayer_HT_AFM_AFM_SP.dkn" ... done


>>> Density kernel optimised for the current NGWF basis:
     ~~~~~~~~~~~~~~~~~~~~~~~~~~~~~~~~~~~~~~~~~~~~~~~~~~~~~~~~~~~
     Total energy                =  -1.76255184663306E+04  Eh
     Estimated bandgap (UP spin) =   4.7279E-02  Eh
     Estimated bandgap (DN spin) =   4.7358E-02  Eh
     RMS occupancy error         =   1.2195E-10
     [H,K] commutator            =   1.3622E-05
     UP spin occupancy bounds    = [ -0.000:  1.000]
     DN spin occupancy bounds    = [ -0.000:  1.000]
     ~~~~~~~~~~~~~~~~~~~~~~~~~~~~~~~~~~~~~~~~~~~~~~~~~~~~~~~~~~~




################################################################################
########################### NGWF CG iteration  003 #############################
################################################################################

>>> Checking for convergence of NGWFs:   NOT CONVERGED
  ========================================================================
         NGWF RMS gradient =  4.2449E-05 >  1.0000E-07  | above tolerance
  Maximum change in energy =  1.4547E-02 >  1.0000E-07  | above tolerance
  ========================================================================

>>> Improving NGWFs using line search:
  ========================================================================
   Predicted total energy    =      -1.76266080063508E+04 Eh
   Predicted gain in energy  =      -1.08954002016981E+00 Eh
  ========================================================================

Writing NGWFs to file "Cr2I6_bilayer_HT_AFM_AFM_SP.tightbox_ngwfs".... done

>>> Optimising kernel for current NGWFs:
   iter  |      energy (Eh)       | rms gradient |  commutator  |   dE (Eh)
    1        -1.762659753107E+04     1.9975E-04     1.0089E-04
    2        -1.762664152132E+04     9.4410E-05     4.7684E-05    -4.3990E-02
    3        -1.762664912465E+04     3.3255E-05     1.6796E-05    -7.6033E-03
    4        -1.762665085004E+04     2.8243E-05     1.4265E-05    -1.7254E-03
    5        -1.762665246562E+04     1.3854E-05     6.9972E-06    -1.6156E-03
Finished density kernel iterations (   5)

Writing density kernel to file "Cr2I6_bilayer_HT_AFM_AFM_SP.dkn" ... done


>>> Density kernel optimised for the current NGWF basis:
     ~~~~~~~~~~~~~~~~~~~~~~~~~~~~~~~~~~~~~~~~~~~~~~~~~~~~~~~~~~~
     Total energy                =  -1.76266524656200E+04  Eh
     Estimated bandgap (UP spin) =   4.7193E-02  Eh
     Estimated bandgap (DN spin) =   4.7291E-02  Eh
     RMS occupancy error         =   1.5111E-10
     [H,K] commutator            =   6.9972E-06
     UP spin occupancy bounds    = [  0.000:  1.000]
     DN spin occupancy bounds    = [  0.000:  1.000]
     ~~~~~~~~~~~~~~~~~~~~~~~~~~~~~~~~~~~~~~~~~~~~~~~~~~~~~~~~~~~




################################################################################
########################### NGWF CG iteration  004 #############################
################################################################################

>>> Checking for convergence of NGWFs:   NOT CONVERGED
  ========================================================================
         NGWF RMS gradient =  2.9407E-05 >  1.0000E-07  | above tolerance
  Maximum change in energy =  4.6797E-03 >  1.0000E-07  | above tolerance
  ========================================================================

>>> Improving NGWFs using line search:
  ========================================================================
   Predicted total energy    =      -1.76272267581286E+04 Eh
   Predicted gain in energy  =      -5.74292508626968E-01 Eh
  ========================================================================

Writing NGWFs to file "Cr2I6_bilayer_HT_AFM_AFM_SP.tightbox_ngwfs".... done

>>> Optimising kernel for current NGWFs:
   iter  |      energy (Eh)       | rms gradient |  commutator  |   dE (Eh)
    1        -1.762721587703E+04     8.3692E-05     4.2271E-05
    2        -1.762722503690E+04     3.8750E-05     1.9572E-05    -9.1599E-03
    3        -1.762722679787E+04     2.3146E-05     1.1691E-05    -1.7610E-03
    4        -1.762722792564E+04     2.5099E-05     1.2677E-05    -1.1278E-03
    5        -1.762722857717E+04     1.3014E-05     6.5732E-06    -6.5152E-04
Finished density kernel iterations (   5)

Writing density kernel to file "Cr2I6_bilayer_HT_AFM_AFM_SP.dkn" ... done


>>> Density kernel optimised for the current NGWF basis:
     ~~~~~~~~~~~~~~~~~~~~~~~~~~~~~~~~~~~~~~~~~~~~~~~~~~~~~~~~~~~
     Total energy                =  -1.76272285771668E+04  Eh
     Estimated bandgap (UP spin) =   4.6207E-02  Eh
     Estimated bandgap (DN spin) =   4.6216E-02  Eh
     RMS occupancy error         =   8.3411E-11
     [H,K] commutator            =   6.5732E-06
     UP spin occupancy bounds    = [  0.000:  1.000]
     DN spin occupancy bounds    = [  0.000:  1.000]
     ~~~~~~~~~~~~~~~~~~~~~~~~~~~~~~~~~~~~~~~~~~~~~~~~~~~~~~~~~~~




################################################################################
########################### NGWF CG iteration  005 #############################
################################################################################

>>> Checking for convergence of NGWFs:   NOT CONVERGED
  ========================================================================
         NGWF RMS gradient =  2.0472E-05 >  1.0000E-07  | above tolerance
  Maximum change in energy =  1.9687E-03 >  1.0000E-07  | above tolerance
  ========================================================================

>>> Improving NGWFs using line search:
  ========================================================================
   Predicted total energy    =      -1.76273851346964E+04 Eh
   Predicted gain in energy  =      -1.56557529600832E-01 Eh
  ========================================================================

Writing NGWFs to file "Cr2I6_bilayer_HT_AFM_AFM_SP.tightbox_ngwfs".... done

>>> Optimising kernel for current NGWFs:
   iter  |      energy (Eh)       | rms gradient |  commutator  |   dE (Eh)
    1        -1.762738442651E+04     1.0559E-05     5.3332E-06
    2        -1.762738462830E+04     1.5169E-05     7.6613E-06    -2.0180E-04
    3        -1.762738488686E+04     1.8378E-05     9.2821E-06    -2.5856E-04
    4        -1.762738511538E+04     1.5543E-05     7.8505E-06    -2.2852E-04
    5        -1.762738523769E+04     2.5433E-05     1.2846E-05    -1.2231E-04
Finished density kernel iterations (   5)

Writing density kernel to file "Cr2I6_bilayer_HT_AFM_AFM_SP.dkn" ... done


>>> Density kernel optimised for the current NGWF basis:
     ~~~~~~~~~~~~~~~~~~~~~~~~~~~~~~~~~~~~~~~~~~~~~~~~~~~~~~~~~~~
     Total energy                =  -1.76273852376938E+04  Eh
     Estimated bandgap (UP spin) =   4.6118E-02  Eh
     Estimated bandgap (DN spin) =   4.5985E-02  Eh
     RMS occupancy error         =   1.7337E-10
     [H,K] commutator            =   1.2846E-05
     UP spin occupancy bounds    = [ -0.000:  1.000]
     DN spin occupancy bounds    = [ -0.000:  1.000]
[...]

>>> Improving NGWFs using line search:
Resetting NGWF CG
  ========================================================================
   Predicted total energy    =      -1.76276813550660E+04 Eh
   Predicted gain in energy  =       3.62713944923598E-05 Eh
  ========================================================================

Writing NGWFs to file "Cr2I6_bilayer_HT_AFM_AFM_SP.tightbox_ngwfs".... done

>>> Optimising kernel for current NGWFs:
   iter  |      energy (Eh)       | rms gradient |  commutator  |   dE (Eh)
    1        -1.762768126993E+04     3.4959E-06     1.7657E-06
    2        -1.762768128944E+04     2.3004E-06     1.1619E-06    -1.9517E-05
    3        -1.762768128982E+04     3.8926E-06     1.9661E-06    -3.8214E-07
    4        -1.762768130070E+04     2.1212E-06     1.0714E-06    -1.0875E-05
    5        -1.762768130324E+04     1.0301E-06     5.2029E-07    -2.5435E-06
    6        -1.762768130349E+04     6.7238E-07     3.3960E-07    -2.4346E-07
    7        -1.762768130359E+04     4.9119E-07     2.4809E-07    -1.0378E-07
    8        -1.762768130420E+04     2.8060E-07     1.4173E-07    -6.1381E-07
    9        -1.762768130472E+04     1.0804E-07     5.4568E-08    -5.1733E-07
   10        -1.762768130508E+04     5.7770E-08     2.9178E-08    -3.6095E-07
   11        -1.762768130508E+04     4.4856E-08     2.2655E-08     1.7535E-09
   12        -1.762768130508E+04     4.3559E-08     2.2001E-08     2.5539E-09
   13        -1.762768130508E+04     4.3223E-08     2.1831E-08     8.5856E-10
   14        -1.762768130508E+04     4.3205E-08     2.1822E-08     1.0186E-10
   15        -1.762768130508E+04     4.3198E-08     2.1818E-08     3.6380E-11
Finished density kernel iterations (  15)

Writing density kernel to file "Cr2I6_bilayer_HT_AFM_AFM_SP.dkn" ... done


>>> Density kernel optimised for the current NGWF basis:
     ~~~~~~~~~~~~~~~~~~~~~~~~~~~~~~~~~~~~~~~~~~~~~~~~~~~~~~~~~~~
     Total energy                =  -1.76276813050775E+04  Eh
     Estimated bandgap (UP spin) =   4.0826E-02  Eh
     Estimated bandgap (DN spin) =   4.0908E-02  Eh
     RMS occupancy error         =   2.5631E-16
     [H,K] commutator            =   2.1818E-08
     UP spin occupancy bounds    = [  0.000:  1.000]
     DN spin occupancy bounds    = [  0.000:  1.000]
     ~~~~~~~~~~~~~~~~~~~~~~~~~~~~~~~~~~~~~~~~~~~~~~~~~~~~~~~~~~~




################################################################################
########################### NGWF CG iteration  041 #############################
################################################################################

>>> Checking for convergence of NGWFs:   NOT CONVERGED
  ========================================================================
         NGWF RMS gradient =  3.0820E-07 >  1.0000E-07  | above tolerance
  Maximum change in energy =  1.4976E-07 >  1.0000E-07  | above tolerance
  ========================================================================

>>> Improving NGWFs using line search:
WARNING in services_line_search_parabola:
  quadratic step (   25.20197) too large - setting to safe value
value at zero =***********
linear_term=   -7.43137
quadratic_term=    0.00268
trial_length=    0.13493
pscale=49210.29073
  ========================================================================
   Predicted total energy    =      -1.76276813050747E+04 Eh
   Predicted gain in energy  =       2.77213985100389E-09 Eh
  ========================================================================

Writing NGWFs to file "Cr2I6_bilayer_HT_AFM_AFM_SP.tightbox_ngwfs".... done

>>> Optimising kernel for current NGWFs:
   iter  |      energy (Eh)       | rms gradient |  commutator  |   dE (Eh)
    1        -1.762768130507E+04     4.3222E-08     2.1830E-08
    2        -1.762768130507E+04     4.3221E-08     2.1830E-08    -4.0018E-11
    3        -1.762768130507E+04     4.3221E-08     2.1830E-08     4.0018E-11
    4        -1.762768130507E+04     4.3221E-08     2.1830E-08     4.7294E-11
    5        -1.762768130507E+04     4.3221E-08     2.1830E-08    -2.5466E-11
    6        -1.762768130507E+04     4.3221E-08     2.1830E-08    -4.3656E-11
    7        -1.762768130507E+04     4.3221E-08     2.1830E-08     0.0000E+00
    8        -1.762768130507E+04     4.3221E-08     2.1830E-08     0.0000E+00
    9        -1.762768130507E+04     4.3221E-08     2.1830E-08     3.6380E-12
   10        -1.762768130507E+04     4.3221E-08     2.1830E-08     1.8190E-11
   11        -1.762768130507E+04     4.3221E-08     2.1830E-08    -4.0018E-11
   12        -1.762768130507E+04     4.3221E-08     2.1830E-08     3.6380E-12
   13        -1.762768130507E+04     4.3221E-08     2.1830E-08     1.4552E-11
   14        -1.762768130507E+04     4.3221E-08     2.1830E-08    -1.0914E-11
   15        -1.762768130502E+04     3.2507E-08     1.6419E-08     5.3045E-08
Finished density kernel iterations (  15)

Writing density kernel to file "Cr2I6_bilayer_HT_AFM_AFM_SP.dkn" ... done


>>> Density kernel optimised for the current NGWF basis:
     ~~~~~~~~~~~~~~~~~~~~~~~~~~~~~~~~~~~~~~~~~~~~~~~~~~~~~~~~~~~
     Total energy                =  -1.76276813050193E+04  Eh
     Estimated bandgap (UP spin) =   4.0855E-02  Eh
     Estimated bandgap (DN spin) =   4.0866E-02  Eh
     RMS occupancy error         =   3.9072E-16
     [H,K] commutator            =   1.6419E-08
     UP spin occupancy bounds    = [  0.000:  1.000]
     DN spin occupancy bounds    = [  0.000:  1.000]
     ~~~~~~~~~~~~~~~~~~~~~~~~~~~~~~~~~~~~~~~~~~~~~~~~~~~~~~~~~~~




################################################################################
########################### NGWF CG iteration  042 #############################
################################################################################

>>> Checking for convergence of NGWFs:   NOT CONVERGED
  ========================================================================
         NGWF RMS gradient =  3.0806E-07 >  1.0000E-07  | above tolerance
  Maximum change in energy =  1.4976E-07 >  1.0000E-07  | above tolerance
  ========================================================================

>>> Improving NGWFs using line search:
WARNING in services_line_search_parabola:
  quadratic step (   30.53541) too large - setting to safe value
value at zero =***********
linear_term=   -7.42789
quadratic_term=    0.00221
trial_length=    0.13493
pscale=34699.73505
  ========================================================================
   Predicted total energy    =      -1.76276813050168E+04 Eh
   Predicted gain in energy  =       2.49565346166492E-09 Eh
  ========================================================================

Writing NGWFs to file "Cr2I6_bilayer_HT_AFM_AFM_SP.tightbox_ngwfs".... done

>>> Optimising kernel for current NGWFs:
   iter  |      energy (Eh)       | rms gradient |  commutator  |   dE (Eh)
    1        -1.762768130501E+04     3.2539E-08     1.6435E-08
    2        -1.762768130501E+04     3.2539E-08     1.6435E-08     0.0000E+00
    3        -1.762768130501E+04     3.2539E-08     1.6435E-08     1.8190E-11
    4        -1.762768130496E+04     2.5718E-08     1.2989E-08     5.6982E-08
    5        -1.762768130496E+04     2.5718E-08     1.2989E-08    -1.0914E-11
    6        -1.762768130496E+04     2.5718E-08     1.2989E-08     3.6380E-12
    7        -1.762768130496E+04     2.5718E-08     1.2989E-08     0.0000E+00
    8        -1.762768130496E+04     2.5718E-08     1.2989E-08    -3.6380E-12
    9        -1.762768130494E+04     2.2289E-08     1.1258E-08     1.4468E-08
   10        -1.762768130494E+04     2.2289E-08     1.1258E-08     1.0914E-11
   11        -1.762768130494E+04     2.2289E-08     1.1258E-08    -7.2760E-12
   12        -1.762768130494E+04     2.2289E-08     1.1258E-08    -7.2760E-12
   13        -1.762768130494E+04     2.2289E-08     1.1258E-08    -2.1828E-11
   14        -1.762768130494E+04     2.2289E-08     1.1258E-08     3.6380E-12
   15        -1.762768130494E+04     2.2289E-08     1.1258E-08    -1.4552E-11
Finished density kernel iterations (  15)

Writing density kernel to file "Cr2I6_bilayer_HT_AFM_AFM_SP.dkn" ... done


>>> Density kernel optimised for the current NGWF basis:
     ~~~~~~~~~~~~~~~~~~~~~~~~~~~~~~~~~~~~~~~~~~~~~~~~~~~~~~~~~~~
     Total energy                =  -1.76276813049432E+04  Eh
     Estimated bandgap (UP spin) =   4.0850E-02  Eh
     Estimated bandgap (DN spin) =   4.0862E-02  Eh
     RMS occupancy error         =   2.4352E-16
     [H,K] commutator            =   1.1258E-08
     UP spin occupancy bounds    = [  0.000:  1.000]
     DN spin occupancy bounds    = [  0.000:  1.000]
     ~~~~~~~~~~~~~~~~~~~~~~~~~~~~~~~~~~~~~~~~~~~~~~~~~~~~~~~~~~~




################################################################################
########################### NGWF CG iteration  043 #############################
################################################################################

>>> Checking for convergence of NGWFs:   NOT CONVERGED
  ========================================================================
         NGWF RMS gradient =  3.0782E-07 >  1.0000E-07  | above tolerance
  Maximum change in energy =  1.3207E-10 <  1.0000E-07  | CONVERGED
  ========================================================================

>>> Improving NGWFs using line search:
WARNING in services_line_search_parabola:
  quadratic step (   15.92715) too large - setting to safe value
value at zero =***********
linear_term=   -7.44300
quadratic_term=    0.00425
trial_length=    0.13493
pscale=26900.43582
  ========================================================================
   Predicted total energy    =      -1.76276813049313E+04 Eh
   Predicted gain in energy  =       1.18452589958906E-08 Eh
  ========================================================================

Writing NGWFs to file "Cr2I6_bilayer_HT_AFM_AFM_SP.tightbox_ngwfs".... done

>>> Optimising kernel for current NGWFs:
   iter  |      energy (Eh)       | rms gradient |  commutator  |   dE (Eh)
    1        -1.762768130492E+04     2.2436E-08     1.1332E-08
    2        -1.762768130492E+04     2.2436E-08     1.1332E-08     2.1828E-11
    3        -1.762768130492E+04     2.2436E-08     1.1332E-08     0.0000E+00
    4        -1.762768130492E+04     2.2436E-08     1.1332E-08     2.1828E-11
    5        -1.762768130488E+04     2.4172E-08     1.2209E-08     3.8217E-08
    6        -1.762768130488E+04     2.4172E-08     1.2209E-08     3.6380E-12
    7        -1.762768130488E+04     2.4172E-08     1.2209E-08     3.6380E-12
    8        -1.762768130488E+04     2.4172E-08     1.2209E-08     3.6380E-12
    9        -1.762768130488E+04     2.4172E-08     1.2209E-08    -1.0914E-11
   10        -1.762768130488E+04     2.4172E-08     1.2209E-08     0.0000E+00
   11        -1.762768130488E+04     2.4172E-08     1.2209E-08     3.6380E-12
   12        -1.762768130488E+04     2.4172E-08     1.2209E-08     7.2760E-12
   13        -1.762768130488E+04     2.4172E-08     1.2209E-08    -3.6380E-12
   14        -1.762768130488E+04     1.6418E-08     8.2922E-09     1.8190E-09
   15        -1.762768130488E+04     1.6418E-08     8.2922E-09    -3.6380E-12
Finished density kernel iterations (  15)

Writing density kernel to file "Cr2I6_bilayer_HT_AFM_AFM_SP.dkn" ... done


>>> Density kernel optimised for the current NGWF basis:
     ~~~~~~~~~~~~~~~~~~~~~~~~~~~~~~~~~~~~~~~~~~~~~~~~~~~~~~~~~~~
     Total energy                =  -1.76276813048808E+04  Eh
     Estimated bandgap (UP spin) =   4.0810E-02  Eh
     Estimated bandgap (DN spin) =   4.0908E-02  Eh
     RMS occupancy error         =   2.5668E-16
     [H,K] commutator            =   8.2922E-09
     UP spin occupancy bounds    = [ -0.000:  1.000]
     DN spin occupancy bounds    = [ -0.000:  1.000]
     ~~~~~~~~~~~~~~~~~~~~~~~~~~~~~~~~~~~~~~~~~~~~~~~~~~~~~~~~~~~




################################################################################
########################### NGWF CG iteration  044 #############################
################################################################################

>>> Checking for convergence of NGWFs:   NOT CONVERGED
  ========================================================================
         NGWF RMS gradient =  3.0776E-07 >  1.0000E-07  | above tolerance
  Maximum change in energy =  1.3207E-10 <  1.0000E-07  | CONVERGED
  ========================================================================

>>> Improving NGWFs using line search:
  ========================================================================
   Predicted total energy    =      -1.76276813388419E+04 Eh
   Predicted gain in energy  =      -3.39611651725136E-05 Eh
  ========================================================================

Writing NGWFs to file "Cr2I6_bilayer_HT_AFM_AFM_SP.tightbox_ngwfs".... done

>>> Optimising kernel for current NGWFs:
   iter  |      energy (Eh)       | rms gradient |  commutator  |   dE (Eh)
    1        -1.762768132598E+04     2.4250E-06     1.2248E-06
    2        -1.762768132598E+04     2.4250E-06     1.2248E-06    -2.1828E-11
    3        -1.762768132598E+04     2.4250E-06     1.2248E-06     7.2760E-12
    4        -1.762768132598E+04     2.4250E-06     1.2248E-06    -4.0018E-11
    5        -1.762768132598E+04     2.4250E-06     1.2248E-06     7.2760E-12
    6        -1.762768132598E+04     2.4250E-06     1.2248E-06     0.0000E+00
    7        -1.762768132598E+04     2.4250E-06     1.2248E-06     0.0000E+00
    8        -1.762768132598E+04     2.4250E-06     1.2248E-06     3.6380E-12
    9        -1.762768132598E+04     2.4250E-06     1.2248E-06    -3.6380E-12
   10        -1.762768132598E+04     2.4250E-06     1.2248E-06     3.2742E-11
   11        -1.762768132598E+04     2.4250E-06     1.2248E-06    -1.8190E-11
   12        -1.762768132598E+04     2.4250E-06     1.2248E-06    -2.5466E-11
   13        -1.762768132598E+04     2.4250E-06     1.2248E-06    -7.2760E-12
   14        -1.762768132598E+04     2.4250E-06     1.2248E-06     2.1828E-11
   15        -1.762768132598E+04     2.4250E-06     1.2248E-06     1.4552E-11
Finished density kernel iterations (  15)

Writing density kernel to file "Cr2I6_bilayer_HT_AFM_AFM_SP.dkn" ... done


>>> Density kernel optimised for the current NGWF basis:
     ~~~~~~~~~~~~~~~~~~~~~~~~~~~~~~~~~~~~~~~~~~~~~~~~~~~~~~~~~~~
     Total energy                =  -1.76276813259764E+04  Eh
     Estimated bandgap (UP spin) =   4.0889E-02  Eh
     Estimated bandgap (DN spin) =   4.0862E-02  Eh
     RMS occupancy error         =   2.3878E-16
     [H,K] commutator            =   1.2248E-06
     UP spin occupancy bounds    = [  0.000:  1.000]
     DN spin occupancy bounds    = [ -0.000:  1.000]
     ~~~~~~~~~~~~~~~~~~~~~~~~~~~~~~~~~~~~~~~~~~~~~~~~~~~~~~~~~~~




################################################################################
########################### NGWF CG iteration  045 #############################
################################################################################

>>> Checking for convergence of NGWFs:   NOT CONVERGED
  ========================================================================
         NGWF RMS gradient =  1.5801E-07 >  1.0000E-07  | above tolerance
  Maximum change in energy =  3.6624E-08 <  1.0000E-07  | CONVERGED
  ========================================================================

>>> Improving NGWFs using line search:
WARNING: Cubic fit was unsuccessful.
  ========================================================================
   Predicted total energy    =       0.00000000000000E+00 Eh
   Predicted gain in energy  =       1.76276813259764E+04 Eh
  ========================================================================

Writing NGWFs to file "Cr2I6_bilayer_HT_AFM_AFM_SP.tightbox_ngwfs".... done

>>> Optimising kernel for current NGWFs:
   iter  |      energy (Eh)       | rms gradient |  commutator  |   dE (Eh)
    1        -1.762768132632E+04     2.7709E-06     1.3995E-06
    2        -1.762768132632E+04     2.7709E-06     1.3995E-06     7.2760E-12
    3        -1.762768133658E+04     1.8011E-06     9.0969E-07    -1.0258E-05
    4        -1.762768133658E+04     1.8011E-06     9.0969E-07     1.4552E-11
    5        -1.762768133658E+04     1.8011E-06     9.0969E-07     0.0000E+00
    6        -1.762768133658E+04     1.8011E-06     9.0969E-07    -1.4552E-11
    7        -1.762768133658E+04     1.8011E-06     9.0969E-07     3.6380E-12
    8        -1.762768133658E+04     1.8011E-06     9.0969E-07    -1.0914E-11
    9        -1.762768133658E+04     1.8011E-06     9.0969E-07    -7.2760E-12
   10        -1.762768133658E+04     1.8011E-06     9.0969E-07     7.2760E-12
   11        -1.762768133658E+04     1.8011E-06     9.0969E-07     7.2760E-12
   12        -1.762768133658E+04     1.8011E-06     9.0969E-07     1.4552E-11
   13        -1.762768133658E+04     1.8011E-06     9.0969E-07     0.0000E+00
   14        -1.762768133954E+04     1.5527E-06     7.8421E-07    -2.9581E-06
   15        -1.762768133954E+04     1.5527E-06     7.8421E-07     1.8190E-11
Finished density kernel iterations (  15)

Writing density kernel to file "Cr2I6_bilayer_HT_AFM_AFM_SP.dkn" ... done


>>> Density kernel optimised for the current NGWF basis:
     ~~~~~~~~~~~~~~~~~~~~~~~~~~~~~~~~~~~~~~~~~~~~~~~~~~~~~~~~~~~
     Total energy                =  -1.76276813395406E+04  Eh
     Estimated bandgap (UP spin) =   4.0792E-02  Eh
     Estimated bandgap (DN spin) =   4.0851E-02  Eh
     RMS occupancy error         =   2.8090E-16
     [H,K] commutator            =   7.8421E-07
     UP spin occupancy bounds    = [  0.000:  1.000]
     DN spin occupancy bounds    = [  0.000:  1.000]
     ~~~~~~~~~~~~~~~~~~~~~~~~~~~~~~~~~~~~~~~~~~~~~~~~~~~~~~~~~~~




################################################################################
########################### NGWF CG iteration  046 #############################
################################################################################

>>> Checking for convergence of NGWFs:   NOT CONVERGED
  ========================================================================
         NGWF RMS gradient =  1.8338E-07 >  1.0000E-07  | above tolerance
  Maximum change in energy =  3.6624E-08 <  1.0000E-07  | CONVERGED
  ========================================================================

>>> Improving NGWFs using line search:
Resetting NGWF CG
  ========================================================================
   Predicted total energy    =      -1.76276813486229E+04 Eh
   Predicted gain in energy  =      -9.08235961105675E-06 Eh
  ========================================================================

Writing NGWFs to file "Cr2I6_bilayer_HT_AFM_AFM_SP.tightbox_ngwfs".... done

>>> Optimising kernel for current NGWFs:
   iter  |      energy (Eh)       | rms gradient |  commutator  |   dE (Eh)
    1        -1.762768133609E+04     3.1371E-06     1.5845E-06
    2        -1.762768133609E+04     3.1371E-06     1.5845E-06    -1.4552E-11
    3        -1.762768133609E+04     3.1371E-06     1.5845E-06     0.0000E+00
    4        -1.762768133609E+04     3.1371E-06     1.5845E-06    -3.2742E-11
    5        -1.762768133609E+04     3.1371E-06     1.5845E-06     2.5466E-11
    6        -1.762768133609E+04     3.1371E-06     1.5845E-06    -2.5466E-11
    7        -1.762768133609E+04     3.1371E-06     1.5845E-06    -1.4552E-11
    8        -1.762768133609E+04     3.1371E-06     1.5845E-06     1.8190E-11
    9        -1.762768133609E+04     3.1371E-06     1.5845E-06     7.2760E-12
   10        -1.762768133609E+04     3.1371E-06     1.5845E-06    -3.6380E-12
   11        -1.762768136139E+04     1.6667E-06     8.4179E-07    -2.5298E-05
   12        -1.762768136139E+04     1.6667E-06     8.4179E-07    -1.0914E-11

onetep_launcher: !!! ONETEP finished with an error

************************************************
*** onetep_launcher terminated               ***
************************************************
