
     Program PWSCF v.7.3 starts on 15Oct2025 at 13:56:33 

     This program is part of the open-source Quantum ESPRESSO suite
     for quantum simulation of materials; please cite
         "P. Giannozzi et al., J. Phys.:Condens. Matter 21 395502 (2009);
         "P. Giannozzi et al., J. Phys.:Condens. Matter 29 465901 (2017);
         "P. Giannozzi et al., J. Chem. Phys. 152 154105 (2020);
          URL http://www.quantum-espresso.org", 
     in publications or presentations arising from this work. More details at
     http://www.quantum-espresso.org/quote

     Parallel version (MPI), running on    24 processors

     MPI processes distributed on     1 nodes
     60305 MiB available memory on the printing compute node when the environment starts

     Reading input from ht_afm_fm_qe.scf.in
Warning: card &CELL ignored
Warning: card / ignored

     Current dimensions of program PWSCF are:
     Max number of different atomic species (ntypx) = 10
     Max number of k-points (npk) =  40000
     Max angular momentum in pseudopotentials (lmaxx) =  4
read_pp_mesh; mismatch in mesh size, discarding the one in header
read_pp_mesh; mismatch in mesh size, discarding the one in header
     file Cr.GGA-PBE-paw.UPF: wavefunction(s)  3S 4S 3P 4P 3D 4D renormalized
     file I.GGA-PBE-paw.UPF: wavefunction(s)  6S 6P renormalized

     IMPORTANT: XC functional enforced from input :
     Exchange-correlation= PBE
                           (   1   4   3   4   0   0   0)
     Any further DFT definition will be discarded
     Please, verify this is what you really want

     Message from routine setup:
     using ibrav=0 with symmetry is DISCOURAGED, use correct ibrav instead

     R & G space division:  proc/nbgrp/npool/nimage =      24
     Subspace diagonalization in iterative solution of the eigenvalue problem:
     a serial algorithm will be used


     Parallelization info
     --------------------
     sticks:   dense  smooth     PW     G-vecs:    dense   smooth      PW
     Min         179     174     46                38065    36532    5046
     Max         180     175     47                38082    36557    5059
     Sum        4303    4189   1123               913669   876961  121297

     Using Slab Decomposition



     bravais-lattice index     =            0
     lattice parameter (alat)  =      12.9956  a.u.
     unit-cell volume          =    7602.9282 (a.u.)^3
     number of atoms/cell      =           16
     number of atomic types    =            2
     number of electrons       =       140.00 (up:  76.00, down:  64.00)
     number of Kohn-Sham states=          100
     kinetic-energy cutoff     =      90.0000  Ry
     charge density cutoff     =     370.0000  Ry
     scf convergence threshold =      1.0E-11
     mixing beta               =       0.5000
     number of iterations used =            8  plain     mixing
     Exchange-correlation= PBE
                           (   1   4   3   4   0   0   0)
     Hubbard projectors: ortho-atomic
     Hubbard parameters of DFT+U (Dudarev formulation) in eV:
     U(Cr-3d) =  4.3700

     Internal variables: lda_plus_u =T, lda_plus_u_kind = 0

     celldm(1)=  12.995613  celldm(2)=   0.000000  celldm(3)=   0.000000
     celldm(4)=   0.000000  celldm(5)=   0.000000  celldm(6)=   0.000000

     crystal axes: (cart. coord. in units of alat)
               a(1) = (   1.000000  -0.000000   0.000000 )  
               a(2) = (  -0.500000   0.866025   0.000000 )  
               a(3) = (  -0.000000   0.000000   4.000000 )  

     reciprocal axes: (cart. coord. in units 2 pi/alat)
               b(1) = (  1.000000  0.577350  0.000000 )  
               b(2) = (  0.000000  1.154701  0.000000 )  
               b(3) = ( -0.000000 -0.000000  0.250000 )  


     PseudoPot. # 1 for Cr read from file:
     ../../Cr.GGA-PBE-paw.UPF
     MD5 check sum: 0e9dc003703e132720ff5dfacba66d28
     Pseudo is Projector augmented-wave + core cor, Zval = 14.0
     Generated using ATOMPAW code
     Shape of augmentation charge: SINC**2
     Using radial grid of 2342 points,  6 beta functions with: 
                l(1) =   0
                l(2) =   0
                l(3) =   1
                l(4) =   1
                l(5) =   2
                l(6) =   2
     Q(r) pseudized with 0 coefficients 


     PseudoPot. # 2 for I  read from file:
     ../../I.GGA-PBE-paw.UPF
     MD5 check sum: 736bb4145856fa7ed29d0984862794a4
     Pseudo is Projector augmented-wave + core cor, Zval =  7.0
     Generated using ATOMPAW code
     Shape of augmentation charge: SINC**2
     Using radial grid of 2342 points,  4 beta functions with: 
                l(1) =   0
                l(2) =   0
                l(3) =   1
                l(4) =   1
     Q(r) pseudized with 0 coefficients 


     atomic species   valence    mass     pseudopotential
     Cr               14.00    51.99610     Cr( 1.00)
     I                 7.00   126.90447     I ( 1.00)

     Starting magnetic structure 
     atomic species   magnetization
     Cr              0.214
     I               0.000

      2 Sym. Ops. (no inversion) found



   Cartesian axes

     site n.     atom                  positions (alat units)
         1        Cr     tau(   1) = (   0.8332322   0.2888117   2.2705821  )
         2        Cr     tau(   2) = (   0.3332322   0.5772137   2.2705821  )
         3        I      tau(   3) = (   0.9768883  -0.0000019   2.0450771  )
         4        I      tau(   4) = (   0.5113602   0.3087614   2.0460861  )
         5        I      tau(   5) = (   0.0113635   0.5572659   2.0460861  )
         6        I      tau(   6) = (   0.6899037  -0.0000017   2.4948790  )
         7        I      tau(   7) = (   0.6550688   0.5572240   2.4948552  )
         8        I      tau(   8) = (   0.1550716   0.3088031   2.4948552  )
         9        Cr     tau(   9) = (   0.5001000   0.2888088   1.3132553  )
        10        Cr     tau(  10) = (   0.0001000   0.5772166   1.3132554  )
        11        I      tau(  11) = (   0.6434309  -0.0000019   1.0889581  )
        12        I      tau(  12) = (   0.1782615   0.3088030   1.0889818  )
        13        I      tau(  13) = (  -0.3217352   0.5572244   1.0889818  )
        14        I      tau(  14) = (   0.3564452  -0.0000017   1.5387600  )
        15        I      tau(  15) = (   0.3219705   0.5572651   1.5377500  )
        16        I      tau(  16) = (  -0.1780267   0.3087620   1.5377500  )

     number of k points=    13
                       cart. coord. in units 2pi/alat
        k(    1) = (   0.0000000   0.0000000   0.0000000), wk =   0.0277778
        k(    2) = (   0.0000000   0.1924501   0.0000000), wk =   0.0555556
        k(    3) = (   0.0000000   0.3849002   0.0000000), wk =   0.0555556
        k(    4) = (   0.0000000  -0.5773503   0.0000000), wk =   0.0277778
        k(    5) = (   0.1666667   0.2886751   0.0000000), wk =   0.1111111
        k(    6) = (   0.1666667   0.4811252   0.0000000), wk =   0.1111111
        k(    7) = (   0.3333333   0.5773503   0.0000000), wk =   0.0555556
        k(    8) = (  -0.1666667   0.0962250   0.0000000), wk =   0.1111111
        k(    9) = (  -0.3333333   0.1924501   0.0000000), wk =   0.1111111
        k(   10) = (   0.5000000  -0.2886751   0.0000000), wk =   0.0555556
        k(   11) = (   0.3333333   0.0000000   0.0000000), wk =   0.0555556
        k(   12) = (  -0.3333333   0.3849002   0.0000000), wk =   0.1111111
        k(   13) = (   0.5000000   0.0962250   0.0000000), wk =   0.1111111

     Dense  grid:   913669 G-vectors     FFT dimensions: (  80,  80, 320)

     Smooth grid:   876961 G-vectors     FFT dimensions: (  80,  80, 320)

     Estimated max dynamical RAM per process >     475.55 MB

     Estimated total dynamical RAM >      11.15 GB
 ----2D----2D----2D----2D----2D----2D----2D----2D----2D----2D----2D----2D
  The code is running with the 2D cutoff
  Please refer to:
  Sohier, T., Calandra, M., & Mauri, F. (2017), 
  Density functional perturbation theory for gated two-dimensional heterostructures:
  Theoretical developments and application to flexural phonons in graphene.
  Physical Review B, 96(7), 75448. https://doi.org/10.1103/PhysRevB.96.075448
 ----2D----2D----2D----2D----2D----2D----2D----2D----2D----2D----2D----2D
     Generating pointlists ...
     new r_m :   0.1619 (alat units)  2.1043 (a.u.) for type    1
     new r_m :   0.1619 (alat units)  2.1043 (a.u.) for type    2
     Cannot read rho : file not found

     Initial potential from superposition of free atoms

     starting charge     139.9932, renormalised to     140.0000

     negative rho (up, down):  2.612E-02 2.659E-02

     STARTING HUBBARD OCCUPATIONS:

     =================== HUBBARD OCCUPATIONS ===================
     ------------------------ ATOM    1 ------------------------
     Tr[ns(  1)] (up, down, total) =   5.00000  0.00000  5.00000
     Atomic magnetic moment for atom   1 =   5.00000
     SPIN  1
     eigenvalues:
       1.000  1.000  1.000  1.000  1.000
     eigenvectors (columns):
       1.000  0.000  0.000  0.000  0.000
       0.000  1.000  0.000  0.000  0.000
       0.000  0.000  1.000  0.000  0.000
       0.000  0.000  0.000  1.000  0.000
       0.000  0.000  0.000  0.000  1.000
     occupation matrix ns (before diag.):
       1.000  0.000  0.000  0.000  0.000
       0.000  1.000  0.000  0.000  0.000
       0.000  0.000  1.000  0.000  0.000
       0.000  0.000  0.000  1.000  0.000
       0.000  0.000  0.000  0.000  1.000
     SPIN  2
     eigenvalues:
       0.000  0.000  0.000  0.000  0.000
     eigenvectors (columns):
       1.000  0.000  0.000  0.000  0.000
       0.000  1.000  0.000  0.000  0.000
       0.000  0.000  1.000  0.000  0.000
       0.000  0.000  0.000  1.000  0.000
       0.000  0.000  0.000  0.000  1.000
     occupation matrix ns (before diag.):
       0.000  0.000  0.000  0.000  0.000
       0.000  0.000  0.000  0.000  0.000
       0.000  0.000  0.000  0.000  0.000
       0.000  0.000  0.000  0.000  0.000
       0.000  0.000  0.000  0.000  0.000
     ------------------------ ATOM    2 ------------------------
     Tr[ns(  2)] (up, down, total) =   5.00000  0.00000  5.00000
     Atomic magnetic moment for atom   2 =   5.00000
     SPIN  1
     eigenvalues:
       1.000  1.000  1.000  1.000  1.000
     eigenvectors (columns):
       1.000  0.000  0.000  0.000  0.000
       0.000  1.000  0.000  0.000  0.000
       0.000  0.000  1.000  0.000  0.000
       0.000  0.000  0.000  1.000  0.000
       0.000  0.000  0.000  0.000  1.000
     occupation matrix ns (before diag.):
       1.000  0.000  0.000  0.000  0.000
       0.000  1.000  0.000  0.000  0.000
       0.000  0.000  1.000  0.000  0.000
       0.000  0.000  0.000  1.000  0.000
       0.000  0.000  0.000  0.000  1.000
     SPIN  2
     eigenvalues:
       0.000  0.000  0.000  0.000  0.000
     eigenvectors (columns):
       1.000  0.000  0.000  0.000  0.000
       0.000  1.000  0.000  0.000  0.000
       0.000  0.000  1.000  0.000  0.000
       0.000  0.000  0.000  1.000  0.000
       0.000  0.000  0.000  0.000  1.000
     occupation matrix ns (before diag.):
       0.000  0.000  0.000  0.000  0.000
       0.000  0.000  0.000  0.000  0.000
       0.000  0.000  0.000  0.000  0.000
       0.000  0.000  0.000  0.000  0.000
       0.000  0.000  0.000  0.000  0.000
     ------------------------ ATOM    9 ------------------------
     Tr[ns(  9)] (up, down, total) =   5.00000  0.00000  5.00000
     Atomic magnetic moment for atom   9 =   5.00000
     SPIN  1
     eigenvalues:
       1.000  1.000  1.000  1.000  1.000
     eigenvectors (columns):
       1.000  0.000  0.000  0.000  0.000
       0.000  1.000  0.000  0.000  0.000
       0.000  0.000  1.000  0.000  0.000
       0.000  0.000  0.000  1.000  0.000
       0.000  0.000  0.000  0.000  1.000
     occupation matrix ns (before diag.):
       1.000  0.000  0.000  0.000  0.000
       0.000  1.000  0.000  0.000  0.000
       0.000  0.000  1.000  0.000  0.000
       0.000  0.000  0.000  1.000  0.000
       0.000  0.000  0.000  0.000  1.000
     SPIN  2
     eigenvalues:
       0.000  0.000  0.000  0.000  0.000
     eigenvectors (columns):
       1.000  0.000  0.000  0.000  0.000
       0.000  1.000  0.000  0.000  0.000
       0.000  0.000  1.000  0.000  0.000
       0.000  0.000  0.000  1.000  0.000
       0.000  0.000  0.000  0.000  1.000
     occupation matrix ns (before diag.):
       0.000  0.000  0.000  0.000  0.000
       0.000  0.000  0.000  0.000  0.000
       0.000  0.000  0.000  0.000  0.000
       0.000  0.000  0.000  0.000  0.000
       0.000  0.000  0.000  0.000  0.000
     ------------------------ ATOM   10 ------------------------
     Tr[ns( 10)] (up, down, total) =   5.00000  0.00000  5.00000
     Atomic magnetic moment for atom  10 =   5.00000
     SPIN  1
     eigenvalues:
       1.000  1.000  1.000  1.000  1.000
     eigenvectors (columns):
       1.000  0.000  0.000  0.000  0.000
       0.000  1.000  0.000  0.000  0.000
       0.000  0.000  1.000  0.000  0.000
       0.000  0.000  0.000  1.000  0.000
       0.000  0.000  0.000  0.000  1.000
     occupation matrix ns (before diag.):
       1.000  0.000  0.000  0.000  0.000
       0.000  1.000  0.000  0.000  0.000
       0.000  0.000  1.000  0.000  0.000
       0.000  0.000  0.000  1.000  0.000
       0.000  0.000  0.000  0.000  1.000
     SPIN  2
     eigenvalues:
       0.000  0.000  0.000  0.000  0.000
     eigenvectors (columns):
       1.000  0.000  0.000  0.000  0.000
       0.000  1.000  0.000  0.000  0.000
       0.000  0.000  1.000  0.000  0.000
       0.000  0.000  0.000  1.000  0.000
       0.000  0.000  0.000  0.000  1.000
     occupation matrix ns (before diag.):
       0.000  0.000  0.000  0.000  0.000
       0.000  0.000  0.000  0.000  0.000
       0.000  0.000  0.000  0.000  0.000
       0.000  0.000  0.000  0.000  0.000
       0.000  0.000  0.000  0.000  0.000

     Number of occupied Hubbard levels =   20.0000

     Atomic wfc used for Hubbard projectors are orthogonalized

     Starting wfcs are  168 atomic wfcs
     Checking if some PAW data can be deallocated... 

     total cpu time spent up to now is       34.3 secs

     Self-consistent Calculation

     iteration #  1     ecut=    90.00 Ry     beta= 0.50
     Davidson diagonalization with overlap
     ethr =  1.00E-05,  avg # of iterations =  9.5

     =================== HUBBARD OCCUPATIONS ===================
     ------------------------ ATOM    1 ------------------------
     Tr[ns(  1)] (up, down, total) =   3.48047  0.29803  3.77851
     Atomic magnetic moment for atom   1 =   3.18244
     SPIN  1
     eigenvalues:
       0.406  0.408  0.888  0.888  0.889
     eigenvectors (columns):
      -0.001 -0.000 -0.374  0.029  0.927
      -0.499  0.656  0.437  0.321  0.165
       0.657  0.498 -0.291  0.467 -0.131
       0.340 -0.453  0.635  0.466  0.242
       0.451  0.342  0.426 -0.679  0.194
     occupation matrix ns (before diag.):
       0.889 -0.000  0.000  0.001  0.001
      -0.000  0.562  0.001  0.224  0.001
       0.000  0.001  0.561  0.000 -0.224
       0.001  0.224  0.000  0.734  0.000
       0.001  0.001 -0.224  0.000  0.734
     SPIN  2
     eigenvalues:
       0.032  0.035  0.035  0.098  0.098
     eigenvectors (columns):
       1.000  0.016 -0.008  0.002  0.000
      -0.001  0.264  0.516  0.511 -0.635
      -0.009  0.516 -0.263 -0.636 -0.510
       0.001  0.372  0.725 -0.362  0.452
       0.015 -0.725  0.372 -0.452 -0.362
     occupation matrix ns (before diag.):
       0.032  0.000 -0.000 -0.000 -0.000
       0.000  0.077  0.000 -0.030  0.000
      -0.000  0.000  0.077 -0.000  0.030
      -0.000 -0.030 -0.000  0.056 -0.000
      -0.000  0.000  0.030 -0.000  0.056
     ------------------------ ATOM    2 ------------------------
     Tr[ns(  2)] (up, down, total) =   3.48047  0.29803  3.77851
     Atomic magnetic moment for atom   2 =   3.18244
     SPIN  1
     eigenvalues:
       0.406  0.408  0.888  0.888  0.889
     eigenvectors (columns):
      -0.001 -0.000 -0.374  0.029  0.927
      -0.499  0.656  0.437  0.321  0.165
      -0.657 -0.498  0.291 -0.467  0.131
       0.340 -0.453  0.635  0.466  0.242
      -0.451 -0.342 -0.426  0.679 -0.194
     occupation matrix ns (before diag.):
       0.889 -0.000 -0.000  0.001 -0.001
      -0.000  0.562 -0.001  0.224 -0.001
      -0.000 -0.001  0.561 -0.000 -0.224
       0.001  0.224 -0.000  0.734 -0.000
      -0.001 -0.001 -0.224 -0.000  0.734
     SPIN  2
     eigenvalues:
       0.032  0.035  0.035  0.098  0.098
     eigenvectors (columns):
      -1.000 -0.016 -0.008 -0.002 -0.000
       0.001 -0.264  0.516 -0.511  0.635
      -0.009  0.516  0.263 -0.636 -0.510
      -0.001 -0.372  0.725  0.362 -0.452
       0.015 -0.725 -0.372 -0.452 -0.362
     occupation matrix ns (before diag.):
       0.032  0.000  0.000 -0.000  0.000
       0.000  0.077 -0.000 -0.030 -0.000
       0.000 -0.000  0.077  0.000  0.030
      -0.000 -0.030  0.000  0.056  0.000
       0.000 -0.000  0.030  0.000  0.056
     ------------------------ ATOM    9 ------------------------
     Tr[ns(  9)] (up, down, total) =   3.48047  0.29804  3.77851
     Atomic magnetic moment for atom   9 =   3.18244
     SPIN  1
     eigenvalues:
       0.406  0.408  0.888  0.888  0.889
     eigenvectors (columns):
      -0.001 -0.000 -0.374  0.030  0.927
      -0.499  0.656  0.437  0.321  0.165
      -0.657 -0.498  0.291 -0.467  0.131
       0.340 -0.453  0.635  0.467  0.242
      -0.451 -0.342 -0.427  0.678 -0.194
     occupation matrix ns (before diag.):
       0.889 -0.000 -0.000  0.001 -0.001
      -0.000  0.562 -0.001  0.224 -0.001
      -0.000 -0.001  0.561 -0.000 -0.224
       0.001  0.224 -0.000  0.734 -0.000
      -0.001 -0.001 -0.224 -0.000  0.734
     SPIN  2
     eigenvalues:
       0.032  0.035  0.035  0.098  0.098
     eigenvectors (columns):
      -1.000 -0.016 -0.008 -0.002 -0.000
       0.001 -0.264  0.515 -0.512  0.635
      -0.009  0.516  0.263 -0.635 -0.511
      -0.001 -0.372  0.725  0.362 -0.452
       0.015 -0.725 -0.373 -0.451 -0.363
     occupation matrix ns (before diag.):
       0.032  0.000  0.000 -0.000  0.000
       0.000  0.077 -0.000 -0.030 -0.000
       0.000 -0.000  0.077  0.000  0.030
      -0.000 -0.030  0.000  0.056  0.000
       0.000 -0.000  0.030  0.000  0.056
     ------------------------ ATOM   10 ------------------------
     Tr[ns( 10)] (up, down, total) =   3.48047  0.29804  3.77851
     Atomic magnetic moment for atom  10 =   3.18244
     SPIN  1
     eigenvalues:
       0.406  0.408  0.888  0.888  0.889
     eigenvectors (columns):
      -0.001 -0.000 -0.374  0.030  0.927
      -0.499  0.656  0.437  0.321  0.165
       0.657  0.498 -0.291  0.467 -0.131
       0.340 -0.453  0.635  0.467  0.242
       0.451  0.342  0.427 -0.678  0.194
     occupation matrix ns (before diag.):
       0.889 -0.000  0.000  0.001  0.001
      -0.000  0.562  0.001  0.224  0.001
       0.000  0.001  0.561  0.000 -0.224
       0.001  0.224  0.000  0.734  0.000
       0.001  0.001 -0.224  0.000  0.734
     SPIN  2
     eigenvalues:
       0.032  0.035  0.035  0.098  0.098
     eigenvectors (columns):
       1.000  0.016 -0.008  0.002  0.000
      -0.001  0.264  0.515  0.512 -0.635
      -0.009  0.516 -0.263 -0.635 -0.511
       0.001  0.372  0.725 -0.362  0.452
       0.015 -0.725  0.373 -0.451 -0.363
     occupation matrix ns (before diag.):
       0.032  0.000 -0.000 -0.000 -0.000
       0.000  0.077  0.000 -0.030  0.000
      -0.000  0.000  0.077 -0.000  0.030
      -0.000 -0.030 -0.000  0.056 -0.000
      -0.000  0.000  0.030 -0.000  0.056

     Number of occupied Hubbard levels =   15.1140

     negative rho (up, down):  2.928E-02 3.284E-02

     total cpu time spent up to now is      200.3 secs

     total energy              =   -5538.21676609 Ry
     estimated scf accuracy    <       2.54729436 Ry

     total magnetization       =    12.00 Bohr mag/cell
     absolute magnetization    =    15.56 Bohr mag/cell

     iteration #  2     ecut=    90.00 Ry     beta= 0.50
     Davidson diagonalization with overlap
     ethr =  1.82E-03,  avg # of iterations =  4.2

     negative rho (up, down):  2.728E-02 3.107E-02

     total cpu time spent up to now is      261.4 secs

     total energy              =   -5537.18013410 Ry
     estimated scf accuracy    <      13.88150612 Ry

     total magnetization       =    12.00 Bohr mag/cell
     absolute magnetization    =    15.85 Bohr mag/cell

     iteration #  3     ecut=    90.00 Ry     beta= 0.50
     Davidson diagonalization with overlap
     ethr =  1.82E-03,  avg # of iterations =  2.2

     negative rho (up, down):  2.774E-02 3.372E-02

     total cpu time spent up to now is      308.8 secs

     total energy              =   -5539.39007269 Ry
     estimated scf accuracy    <       0.48893604 Ry

     total magnetization       =    12.00 Bohr mag/cell
     absolute magnetization    =    16.52 Bohr mag/cell

     iteration #  4     ecut=    90.00 Ry     beta= 0.50
     Davidson diagonalization with overlap
     ethr =  3.49E-04,  avg # of iterations =  2.3

     negative rho (up, down):  2.791E-02 3.538E-02

     total cpu time spent up to now is      354.9 secs

     total energy              =   -5539.43185008 Ry
     estimated scf accuracy    <       0.10798127 Ry

     total magnetization       =    12.00 Bohr mag/cell
     absolute magnetization    =    16.72 Bohr mag/cell

     iteration #  5     ecut=    90.00 Ry     beta= 0.50
     Davidson diagonalization with overlap
     ethr =  7.71E-05,  avg # of iterations =  5.1

     negative rho (up, down):  2.787E-02 3.596E-02

     total cpu time spent up to now is      412.8 secs

     total energy              =   -5539.44102460 Ry
     estimated scf accuracy    <       0.06860974 Ry

     total magnetization       =    12.00 Bohr mag/cell
     absolute magnetization    =    16.87 Bohr mag/cell

     iteration #  6     ecut=    90.00 Ry     beta= 0.50
     Davidson diagonalization with overlap
     ethr =  4.90E-05,  avg # of iterations =  5.1

     negative rho (up, down):  2.757E-02 3.599E-02

     total cpu time spent up to now is      464.7 secs

     total energy              =   -5539.45084134 Ry
     estimated scf accuracy    <       0.00130883 Ry

     total magnetization       =    12.00 Bohr mag/cell
     absolute magnetization    =    16.92 Bohr mag/cell

     iteration #  7     ecut=    90.00 Ry     beta= 0.50
     Davidson diagonalization with overlap
     c_bands:  1 eigenvalues not converged
     ethr =  9.35E-07,  avg # of iterations =  8.2

     negative rho (up, down):  2.704E-02 3.614E-02

     total cpu time spent up to now is      559.7 secs

     total energy              =   -5539.45212984 Ry
     estimated scf accuracy    <       0.00180072 Ry

     total magnetization       =    12.00 Bohr mag/cell
     absolute magnetization    =    17.03 Bohr mag/cell

     iteration #  8     ecut=    90.00 Ry     beta= 0.50
     Davidson diagonalization with overlap
     ethr =  9.35E-07,  avg # of iterations =  1.7

     negative rho (up, down):  2.704E-02 3.620E-02

     total cpu time spent up to now is      609.9 secs

     total energy              =   -5539.45204424 Ry
     estimated scf accuracy    <       0.00077059 Ry

     total magnetization       =    12.00 Bohr mag/cell
     absolute magnetization    =    17.10 Bohr mag/cell

     iteration #  9     ecut=    90.00 Ry     beta= 0.50
     Davidson diagonalization with overlap
     ethr =  5.50E-07,  avg # of iterations =  1.0

     negative rho (up, down):  2.704E-02 3.622E-02

     total cpu time spent up to now is      649.1 secs

     total energy              =   -5539.45211405 Ry
     estimated scf accuracy    <       0.00003902 Ry

     total magnetization       =    12.00 Bohr mag/cell
     absolute magnetization    =    17.07 Bohr mag/cell

     iteration # 10     ecut=    90.00 Ry     beta= 0.50
     Davidson diagonalization with overlap
     ethr =  2.79E-08,  avg # of iterations =  3.6

     negative rho (up, down):  2.702E-02 3.623E-02

     total cpu time spent up to now is      703.4 secs

     total energy              =   -5539.45212921 Ry
     estimated scf accuracy    <       0.00001433 Ry

     total magnetization       =    12.00 Bohr mag/cell
     absolute magnetization    =    17.06 Bohr mag/cell

     iteration # 11     ecut=    90.00 Ry     beta= 0.50
     Davidson diagonalization with overlap
     ethr =  1.02E-08,  avg # of iterations =  1.7

     negative rho (up, down):  2.695E-02 3.624E-02

     total cpu time spent up to now is      744.8 secs

     total energy              =   -5539.45213415 Ry
     estimated scf accuracy    <       0.00000333 Ry

     total magnetization       =    12.00 Bohr mag/cell
     absolute magnetization    =    17.06 Bohr mag/cell

     iteration # 12     ecut=    90.00 Ry     beta= 0.50
     Davidson diagonalization with overlap
     ethr =  2.38E-09,  avg # of iterations =  3.0

     negative rho (up, down):  2.694E-02 3.625E-02

     total cpu time spent up to now is      799.6 secs

     total energy              =   -5539.45213470 Ry
     estimated scf accuracy    <       0.00000395 Ry

     total magnetization       =    12.00 Bohr mag/cell
     absolute magnetization    =    17.06 Bohr mag/cell

     iteration # 13     ecut=    90.00 Ry     beta= 0.50
     Davidson diagonalization with overlap
     ethr =  2.38E-09,  avg # of iterations =  1.6

     negative rho (up, down):  2.694E-02 3.625E-02

     total cpu time spent up to now is      841.6 secs

     total energy              =   -5539.45213547 Ry
     estimated scf accuracy    <       0.00000150 Ry

     total magnetization       =    12.00 Bohr mag/cell
     absolute magnetization    =    17.06 Bohr mag/cell

     iteration # 14     ecut=    90.00 Ry     beta= 0.50
     Davidson diagonalization with overlap
     ethr =  1.07E-09,  avg # of iterations =  2.1

     negative rho (up, down):  2.694E-02 3.624E-02

     total cpu time spent up to now is      884.7 secs

     total energy              =   -5539.45213585 Ry
     estimated scf accuracy    <       0.00000008 Ry

     total magnetization       =    12.00 Bohr mag/cell
     absolute magnetization    =    17.05 Bohr mag/cell

     iteration # 15     ecut=    90.00 Ry     beta= 0.50
     Davidson diagonalization with overlap
     ethr =  5.71E-11,  avg # of iterations =  4.2

     negative rho (up, down):  2.694E-02 3.624E-02

     total cpu time spent up to now is      943.5 secs

     total energy              =   -5539.45213593 Ry
     estimated scf accuracy    <       0.00000005 Ry

     total magnetization       =    12.00 Bohr mag/cell
     absolute magnetization    =    17.05 Bohr mag/cell

     iteration # 16     ecut=    90.00 Ry     beta= 0.50
     Davidson diagonalization with overlap
     ethr =  3.32E-11,  avg # of iterations =  2.0

     negative rho (up, down):  2.694E-02 3.624E-02

     total cpu time spent up to now is      985.9 secs

     total energy              =   -5539.45213594 Ry
     estimated scf accuracy    <       0.00000001 Ry

     total magnetization       =    12.00 Bohr mag/cell
     absolute magnetization    =    17.05 Bohr mag/cell

     iteration # 17     ecut=    90.00 Ry     beta= 0.50
     Davidson diagonalization with overlap
     ethr =  7.91E-12,  avg # of iterations =  3.2

     negative rho (up, down):  2.694E-02 3.624E-02

     total cpu time spent up to now is     1041.1 secs

     total energy              =   -5539.45213595 Ry
     estimated scf accuracy    <          4.5E-09 Ry

     total magnetization       =    12.00 Bohr mag/cell
     absolute magnetization    =    17.05 Bohr mag/cell

     iteration # 18     ecut=    90.00 Ry     beta= 0.50
     Davidson diagonalization with overlap
     ethr =  3.19E-12,  avg # of iterations =  1.4

     negative rho (up, down):  2.694E-02 3.624E-02

     total cpu time spent up to now is     1081.1 secs

     total energy              =   -5539.45213595 Ry
     estimated scf accuracy    <          1.4E-09 Ry

     total magnetization       =    12.00 Bohr mag/cell
     absolute magnetization    =    17.05 Bohr mag/cell

     iteration # 19     ecut=    90.00 Ry     beta= 0.50
     Davidson diagonalization with overlap
     ethr =  9.85E-13,  avg # of iterations =  2.5

     negative rho (up, down):  2.694E-02 3.624E-02

     total cpu time spent up to now is     1126.8 secs

     total energy              =   -5539.45213595 Ry
     estimated scf accuracy    <          4.7E-10 Ry

     total magnetization       =    12.00 Bohr mag/cell
     absolute magnetization    =    17.05 Bohr mag/cell

     iteration # 20     ecut=    90.00 Ry     beta= 0.50
     Davidson diagonalization with overlap
     ethr =  3.35E-13,  avg # of iterations =  2.8

     negative rho (up, down):  2.694E-02 3.624E-02

     total cpu time spent up to now is     1177.4 secs

     total energy              =   -5539.45213595 Ry
     estimated scf accuracy    <          1.7E-10 Ry

     total magnetization       =    12.00 Bohr mag/cell
     absolute magnetization    =    17.05 Bohr mag/cell

     iteration # 21     ecut=    90.00 Ry     beta= 0.50
     Davidson diagonalization with overlap
     ethr =  1.19E-13,  avg # of iterations =  2.0

     negative rho (up, down):  2.694E-02 3.624E-02

     total cpu time spent up to now is     1221.8 secs

     total energy              =   -5539.45213595 Ry
     estimated scf accuracy    <          8.2E-11 Ry

     total magnetization       =    12.00 Bohr mag/cell
     absolute magnetization    =    17.05 Bohr mag/cell

     iteration # 22     ecut=    90.00 Ry     beta= 0.50
     Davidson diagonalization with overlap
     ethr =  1.00E-13,  avg # of iterations =  1.3

     negative rho (up, down):  2.694E-02 3.624E-02

     Magnetic moment per site  (integrated on atomic sphere of radius R)
     atom   1 (R=0.162)  charge= 12.3761  magn=  3.3099
     atom   2 (R=0.162)  charge= 12.3761  magn=  3.3099
     atom   3 (R=0.162)  charge=  4.0485  magn= -0.1355
     atom   4 (R=0.162)  charge=  4.0493  magn= -0.1370
     atom   5 (R=0.162)  charge=  4.0493  magn= -0.1370
     atom   6 (R=0.162)  charge=  4.0509  magn= -0.1333
     atom   7 (R=0.162)  charge=  4.0507  magn= -0.1344
     atom   8 (R=0.162)  charge=  4.0507  magn= -0.1344
     atom   9 (R=0.162)  charge= 12.3760  magn=  3.3099
     atom  10 (R=0.162)  charge= 12.3760  magn=  3.3099
     atom  11 (R=0.162)  charge=  4.0508  magn= -0.1333
     atom  12 (R=0.162)  charge=  4.0506  magn= -0.1344
     atom  13 (R=0.162)  charge=  4.0506  magn= -0.1344
     atom  14 (R=0.162)  charge=  4.0484  magn= -0.1355
     atom  15 (R=0.162)  charge=  4.0493  magn= -0.1370
     atom  16 (R=0.162)  charge=  4.0493  magn= -0.1370

     total cpu time spent up to now is     1261.4 secs

     End of self-consistent calculation

     =================== HUBBARD OCCUPATIONS ===================
     ------------------------ ATOM    1 ------------------------
     Tr[ns(  1)] (up, down, total) =   3.76754  0.49751  4.26505
     Atomic magnetic moment for atom   1 =   3.27003
     SPIN  1
     eigenvalues:
       0.508  0.512  0.915  0.915  0.918
     eigenvectors (columns):
      -0.003 -0.000 -0.061  0.004  0.998
      -0.411  0.706  0.447  0.364  0.025
       0.707  0.409 -0.360  0.450 -0.022
       0.288 -0.500  0.634  0.513  0.037
       0.498  0.290  0.514 -0.634  0.035
     occupation matrix ns (before diag.):
       0.918 -0.000  0.001  0.000  0.001
      -0.000  0.645  0.002  0.191  0.001
       0.001  0.002  0.644 -0.000 -0.191
       0.000  0.191 -0.000  0.780  0.000
       0.001  0.001 -0.191  0.000  0.780
     SPIN  2
     eigenvalues:
       0.042  0.046  0.047  0.181  0.181
     eigenvectors (columns):
       1.000  0.028 -0.013  0.002  0.001
      -0.002  0.267  0.505  0.547 -0.612
      -0.016  0.505 -0.265 -0.613 -0.546
      -0.001  0.383  0.726 -0.379  0.427
       0.026 -0.725  0.384 -0.426 -0.380
     occupation matrix ns (before diag.):
       0.042  0.000 -0.000 -0.000 -0.000
       0.000  0.137 -0.000 -0.063  0.000
      -0.000 -0.000  0.137 -0.000  0.063
      -0.000 -0.063 -0.000  0.090 -0.000
      -0.000  0.000  0.063 -0.000  0.090
     ------------------------ ATOM    2 ------------------------
     Tr[ns(  2)] (up, down, total) =   3.76754  0.49751  4.26505
     Atomic magnetic moment for atom   2 =   3.27003
     SPIN  1
     eigenvalues:
       0.508  0.512  0.915  0.915  0.918
     eigenvectors (columns):
      -0.003 -0.000 -0.061  0.004  0.998
      -0.411  0.706  0.447  0.364  0.025
      -0.707 -0.409  0.360 -0.450  0.022
       0.288 -0.500  0.634  0.513  0.037
      -0.498 -0.290 -0.514  0.634 -0.035
     occupation matrix ns (before diag.):
       0.918 -0.000 -0.001  0.000 -0.001
      -0.000  0.645 -0.002  0.191 -0.001
      -0.001 -0.002  0.644  0.000 -0.191
       0.000  0.191  0.000  0.780 -0.000
      -0.001 -0.001 -0.191 -0.000  0.780
     SPIN  2
     eigenvalues:
       0.042  0.046  0.047  0.181  0.181
     eigenvectors (columns):
      -1.000 -0.028 -0.013 -0.002 -0.001
       0.002 -0.267  0.505 -0.547  0.612
      -0.016  0.505  0.265 -0.613 -0.546
       0.001 -0.383  0.726  0.379 -0.427
       0.026 -0.725 -0.384 -0.426 -0.380
     occupation matrix ns (before diag.):
       0.042  0.000  0.000 -0.000  0.000
       0.000  0.137  0.000 -0.063 -0.000
       0.000  0.000  0.137  0.000  0.063
      -0.000 -0.063  0.000  0.090  0.000
       0.000 -0.000  0.063  0.000  0.090
     ------------------------ ATOM    9 ------------------------
     Tr[ns(  9)] (up, down, total) =   3.76754  0.49751  4.26505
     Atomic magnetic moment for atom   9 =   3.27003
     SPIN  1
     eigenvalues:
       0.508  0.512  0.915  0.915  0.918
     eigenvectors (columns):
      -0.003 -0.000 -0.060  0.005  0.998
      -0.411  0.706  0.448  0.362  0.025
      -0.707 -0.409  0.359 -0.451  0.022
       0.288 -0.500  0.636  0.511  0.037
      -0.498 -0.290 -0.512  0.636 -0.035
     occupation matrix ns (before diag.):
       0.918 -0.000 -0.001  0.000 -0.001
      -0.000  0.645 -0.002  0.191 -0.001
      -0.001 -0.002  0.644  0.000 -0.191
       0.000  0.191  0.000  0.780 -0.000
      -0.001 -0.001 -0.191 -0.000  0.780
     SPIN  2
     eigenvalues:
       0.042  0.046  0.047  0.181  0.181
     eigenvectors (columns):
      -1.000 -0.028 -0.013 -0.002 -0.001
       0.002 -0.268  0.504 -0.548  0.611
      -0.016  0.505  0.266 -0.612 -0.547
       0.001 -0.384  0.725  0.380 -0.427
       0.026 -0.724 -0.385 -0.425 -0.381
     occupation matrix ns (before diag.):
       0.042  0.000  0.000 -0.000  0.000
       0.000  0.137  0.000 -0.063 -0.000
       0.000  0.000  0.137  0.000  0.063
      -0.000 -0.063  0.000  0.090  0.000
       0.000 -0.000  0.063  0.000  0.090
     ------------------------ ATOM   10 ------------------------
     Tr[ns( 10)] (up, down, total) =   3.76754  0.49751  4.26505
     Atomic magnetic moment for atom  10 =   3.27003
     SPIN  1
     eigenvalues:
       0.508  0.512  0.915  0.915  0.918
     eigenvectors (columns):
      -0.003 -0.000 -0.060  0.005  0.998
      -0.411  0.706  0.448  0.362  0.025
       0.707  0.409 -0.359  0.451 -0.022
       0.288 -0.500  0.636  0.511  0.037
       0.498  0.290  0.512 -0.636  0.035
     occupation matrix ns (before diag.):
       0.918 -0.000  0.001  0.000  0.001
      -0.000  0.645  0.002  0.191  0.001
       0.001  0.002  0.644 -0.000 -0.191
       0.000  0.191 -0.000  0.780  0.000
       0.001  0.001 -0.191  0.000  0.780
     SPIN  2
     eigenvalues:
       0.042  0.046  0.047  0.181  0.181
     eigenvectors (columns):
       1.000  0.028 -0.013  0.002  0.001
      -0.002  0.268  0.504  0.548 -0.611
      -0.016  0.505 -0.266 -0.612 -0.547
      -0.001  0.384  0.725 -0.380  0.427
       0.026 -0.724  0.385 -0.425 -0.381
     occupation matrix ns (before diag.):
       0.042  0.000 -0.000 -0.000 -0.000
       0.000  0.137 -0.000 -0.063  0.000
      -0.000 -0.000  0.137 -0.000  0.063
      -0.000 -0.063 -0.000  0.090 -0.000
      -0.000  0.000  0.063 -0.000  0.090

     Number of occupied Hubbard levels =   17.0602

 ------ SPIN UP ------------


          k = 0.0000 0.0000 0.0000 (109591 PWs)   bands (ev):

   -78.6507 -78.6507 -78.6497 -78.6496 -49.9866 -49.9866 -49.9853 -49.9853
   -49.9834 -49.9833 -49.9828 -49.9828 -49.9804 -49.9804 -49.9798 -49.9798
   -18.5765 -18.4875 -17.7392 -17.6134 -17.4304 -17.4293 -17.4267 -17.4244
   -17.2824 -17.2818 -17.2790 -17.2776 -10.5031 -10.5027 -10.3974 -10.0873
    -9.8238  -9.8201  -9.7745  -9.7718  -9.7703  -9.7689  -9.7412  -9.7401
    -8.8369  -8.8352  -8.8120  -8.7243  -8.6782  -8.6592  -8.6246  -8.6241
    -8.5731  -8.5728  -8.1956  -8.1723  -8.1686  -8.1526  -7.9506  -7.9454
    -7.9120  -7.9086  -7.4637  -7.3905  -7.3851  -7.3688  -7.3057  -7.1357
    -7.1263  -7.1091  -6.8761  -6.3873  -6.3868  -6.2581  -6.2560  -6.0759
    -5.7470  -5.7319  -5.6909  -5.6739  -4.5980  -4.5955  -4.5459  -4.5203
    -4.1363  -4.1057  -4.0895  -4.0568  -0.8070  -0.8053  -0.6098  -0.1852
    -0.0408  -0.0282   0.6297   0.6326   0.8878   0.9182   1.2774   1.3174
     1.4274   1.5043   1.7808   1.7970

          k = 0.0000 0.1925 0.0000 (109722 PWs)   bands (ev):

   -78.6507 -78.6507 -78.6497 -78.6496 -49.9866 -49.9866 -49.9853 -49.9853
   -49.9833 -49.9833 -49.9827 -49.9827 -49.9806 -49.9806 -49.9797 -49.9797
   -18.5162 -18.4287 -17.7056 -17.5845 -17.5191 -17.5015 -17.4560 -17.4481
   -17.3022 -17.2984 -17.2816 -17.2768 -10.4808 -10.4642 -10.3417 -10.0649
    -9.9358  -9.8919  -9.8642  -9.8358  -9.6501  -9.6430  -9.6087  -9.6035
    -8.8754  -8.8638  -8.7680  -8.7269  -8.7115  -8.6466  -8.6280  -8.6184
    -8.6027  -8.5815  -8.1673  -8.1522  -8.1384  -8.1000  -8.0639  -8.0246
    -7.9149  -7.8512  -7.4621  -7.3844  -7.3427  -7.2705  -7.2360  -7.0573
    -7.0193  -7.0076  -6.7629  -6.4253  -6.3524  -6.3523  -6.2377  -6.1490
    -6.0126  -5.8651  -5.8141  -5.7310  -4.6287  -4.5896  -4.5266  -4.4538
    -4.2939  -4.2604  -4.1750  -4.1005  -0.8071  -0.7222  -0.2717   0.1606
     0.2426   0.3193   0.4354   0.4861   0.8181   1.0370   1.1818   1.3230
     1.5127   1.5989   1.6632   1.8282

          k = 0.0000 0.3849 0.0000 (109616 PWs)   bands (ev):

   -78.6507 -78.6507 -78.6497 -78.6496 -49.9865 -49.9865 -49.9854 -49.9854
   -49.9833 -49.9833 -49.9824 -49.9824 -49.9811 -49.9811 -49.9796 -49.9796
   -18.3523 -18.2692 -17.7334 -17.6942 -17.6165 -17.5132 -17.4980 -17.4840
   -17.3638 -17.3307 -17.3049 -17.2998 -10.5117 -10.4338 -10.1812  -9.9903
    -9.9588  -9.8835  -9.7591  -9.7305  -9.5608  -9.5379  -9.4749  -9.4238
    -8.9979  -8.9820  -8.8942  -8.8523  -8.8183  -8.8029  -8.5746  -8.5543
    -8.5496  -8.5091  -8.3587  -8.2813  -8.1519  -8.1041  -7.8660  -7.8288
    -7.8205  -7.6715  -7.5409  -7.4009  -7.3906  -7.1985  -7.0572  -6.9428
    -6.8708  -6.7886  -6.5895  -6.4770  -6.4455  -6.4454  -6.4246  -6.3212
    -6.3155  -5.9544  -5.9465  -5.7684  -4.6193  -4.6152  -4.5119  -4.4493
    -4.3348  -4.3240  -4.2931  -4.2386  -1.0639  -0.6942  -0.0146   0.0163
     0.4254   0.4524   0.7162   0.8960   0.9287   0.9905   1.0398   1.0473
     1.3141   1.3386   1.4537   1.4788

          k = 0.0000-0.5774 0.0000 (109602 PWs)   bands (ev):

   -78.6507 -78.6507 -78.6497 -78.6497 -49.9865 -49.9865 -49.9854 -49.9854
   -49.9833 -49.9833 -49.9821 -49.9821 -49.9815 -49.9815 -49.9796 -49.9796
   -18.2016 -18.1205 -17.9074 -17.8592 -17.5323 -17.5268 -17.5022 -17.4344
   -17.4299 -17.3787 -17.3274 -17.3103 -10.5510 -10.4548 -10.0607  -9.9527
    -9.8897  -9.8802  -9.6174  -9.6167  -9.4449  -9.4320  -9.3629  -9.2580
    -9.1812  -9.1352  -9.0881  -9.0719  -8.8993  -8.8215  -8.5613  -8.5470
    -8.4831  -8.4719  -8.4466  -8.3483  -8.1874  -8.1166  -7.8556  -7.6137
    -7.6063  -7.6014  -7.5488  -7.4986  -7.3636  -7.3279  -6.9948  -6.9270
    -6.8664  -6.6541  -6.6478  -6.6170  -6.5385  -6.4610  -6.3990  -6.3284
    -6.1490  -6.0822  -6.0351  -5.6959  -4.6292  -4.6218  -4.5119  -4.4183
    -4.3695  -4.3389  -4.2998  -4.2112  -1.3095  -0.8909   0.0161   0.0714
     0.0901   0.4156   0.6112   0.6451   0.8656   1.1349   1.1420   1.1462
     1.3193   1.3382   1.4278   1.4365

          k = 0.1667 0.2887 0.0000 (109615 PWs)   bands (ev):

   -78.6507 -78.6507 -78.6497 -78.6496 -49.9866 -49.9866 -49.9854 -49.9853
   -49.9833 -49.9832 -49.9827 -49.9824 -49.9810 -49.9808 -49.9798 -49.9797
   -18.4020 -18.3187 -17.6557 -17.6446 -17.6276 -17.5311 -17.5073 -17.4948
   -17.3376 -17.3231 -17.2932 -17.2894 -10.4310 -10.3760 -10.2616 -10.1112
   -10.0345  -9.9236  -9.7431  -9.7042  -9.6192  -9.5895  -9.5021  -9.4613
    -8.9229  -8.9152  -8.8919  -8.8572  -8.6963  -8.6829  -8.6522  -8.5980
    -8.5561  -8.5334  -8.3359  -8.2751  -8.0789  -8.0642  -8.0081  -7.9997
    -7.7394  -7.6893  -7.5565  -7.5234  -7.2043  -7.1477  -7.1061  -6.9983
    -6.9429  -6.8829  -6.6273  -6.4565  -6.4290  -6.3912  -6.3551  -6.2882
    -6.2409  -5.9218  -5.8942  -5.8233  -4.6318  -4.5938  -4.5338  -4.4634
    -4.3791  -4.3575  -4.1971  -4.1268  -0.8835  -0.6761  -0.2585  -0.0846
     0.3600   0.5048   0.5954   0.7446   1.0131   1.0533   1.0979   1.2424
     1.3437   1.4464   1.5261   1.5574

          k = 0.1667 0.4811 0.0000 (109606 PWs)   bands (ev):

   -78.6507 -78.6507 -78.6497 -78.6497 -49.9865 -49.9865 -49.9854 -49.9854
   -49.9833 -49.9833 -49.9823 -49.9821 -49.9814 -49.9813 -49.9796 -49.9796
   -18.2148 -18.1363 -17.8596 -17.8234 -17.5642 -17.5513 -17.5363 -17.4468
   -17.4044 -17.3666 -17.3208 -17.3083 -10.4110 -10.3234 -10.0939 -10.0726
    -9.9799  -9.8975  -9.6479  -9.5964  -9.5772  -9.5419  -9.3877  -9.3206
    -9.0969  -9.0656  -8.9302  -8.8990  -8.8751  -8.8509  -8.6015  -8.5775
    -8.5054  -8.5013  -8.4702  -8.4332  -8.1045  -8.0096  -7.9541  -7.8280
    -7.7761  -7.6615  -7.4270  -7.3790  -7.1940  -7.1819  -7.0229  -6.9948
    -6.9498  -6.7862  -6.6567  -6.5657  -6.5195  -6.4472  -6.3214  -6.3095
    -6.1946  -6.0433  -5.9786  -5.7474  -4.6503  -4.5589  -4.5133  -4.4125
    -4.3433  -4.2955  -4.2175  -4.1815  -1.1372  -0.8048  -0.5601  -0.3410
     0.2080   0.4156   0.5298   0.6250   0.8007   0.8185   0.8468   1.0474
     1.1198   1.2231   1.3431   1.4477

          k = 0.3333 0.5774 0.0000 (109542 PWs)   bands (ev):

   -78.6507 -78.6507 -78.6497 -78.6497 -49.9865 -49.9865 -49.9854 -49.9854
   -49.9833 -49.9833 -49.9822 -49.9822 -49.9813 -49.9813 -49.9797 -49.9797
   -18.0391 -18.0179 -17.9750 -17.9642 -17.6140 -17.5899 -17.4705 -17.4528
   -17.4084 -17.3823 -17.3382 -17.3187 -10.1513 -10.1228 -10.1001 -10.0629
   -10.0457 -10.0391  -9.7134  -9.6852  -9.5991  -9.5696  -9.2374  -9.2313
    -9.1791  -9.1321  -8.9214  -8.9126  -8.8244  -8.7119  -8.6712  -8.6610
    -8.6097  -8.5933  -8.4579  -8.4443  -8.0720  -7.9765  -7.9500  -7.8438
    -7.8323  -7.8212  -7.2438  -7.2409  -7.1862  -7.0737  -7.0227  -7.0205
    -6.9472  -6.9289  -6.7823  -6.6249  -6.4502  -6.3917  -6.3117  -6.3094
    -6.1098  -6.0623  -5.9299  -5.7838  -4.6411  -4.5029  -4.4962  -4.3270
    -4.3190  -4.2940  -4.1700  -4.0953  -1.0476  -0.9800  -0.7880  -0.7269
     0.1299   0.2072   0.2275   0.4266   0.4661   0.5979   0.7885   0.8253
     0.9706   1.0722   1.2173   1.2456

          k =-0.1667 0.0962 0.0000 (109722 PWs)   bands (ev):

   -78.6507 -78.6507 -78.6497 -78.6496 -49.9866 -49.9866 -49.9853 -49.9853
   -49.9834 -49.9833 -49.9828 -49.9827 -49.9805 -49.9804 -49.9799 -49.9798
   -18.5156 -18.4287 -17.7055 -17.5851 -17.5267 -17.4977 -17.4578 -17.4431
   -17.3054 -17.2952 -17.2799 -17.2779 -10.5066 -10.4340 -10.3423 -10.0654
    -9.9313  -9.8973  -9.8639  -9.8399  -9.6651  -9.6278  -9.6175  -9.5935
    -8.8951  -8.8376  -8.7611  -8.7494  -8.7053  -8.6463  -8.6210  -8.6153
    -8.5943  -8.5872  -8.2073  -8.1560  -8.1374  -8.1197  -8.0307  -7.9953
    -7.9211  -7.8504  -7.4831  -7.3881  -7.3299  -7.2773  -7.1952  -7.1047
    -7.0431  -6.9530  -6.7576  -6.4371  -6.4231  -6.2867  -6.2352  -6.1621
    -5.9938  -5.8662  -5.8046  -5.7470  -4.6333  -4.5976  -4.5016  -4.4648
    -4.2995  -4.2498  -4.1691  -4.1105  -0.8953  -0.6094  -0.2757   0.0761
     0.2489   0.3733   0.4517   0.4925   0.7959   1.0723   1.1221   1.3355
     1.4564   1.6263   1.7285   1.8316

          k =-0.3333 0.1925 0.0000 (109616 PWs)   bands (ev):

   -78.6507 -78.6507 -78.6497 -78.6496 -49.9866 -49.9866 -49.9854 -49.9853
   -49.9834 -49.9832 -49.9827 -49.9824 -49.9809 -49.9805 -49.9799 -49.9797
   -18.3484 -18.2704 -17.7433 -17.6935 -17.6131 -17.5153 -17.4988 -17.4795
   -17.3670 -17.3236 -17.3105 -17.2965 -10.5200 -10.4246 -10.1784  -9.9898
    -9.9405  -9.8911  -9.7660  -9.7461  -9.5811  -9.5177  -9.4709  -9.4182
    -9.0003  -8.9691  -8.9150  -8.8757  -8.8032  -8.7785  -8.5770  -8.5559
    -8.5422  -8.5115  -8.3724  -8.2703  -8.1647  -8.0948  -7.8578  -7.8350
    -7.8071  -7.7142  -7.5198  -7.4438  -7.3286  -7.2446  -7.0085  -6.9570
    -6.8758  -6.7487  -6.6243  -6.5030  -6.4824  -6.4463  -6.4166  -6.2952
    -6.2594  -5.9504  -5.8954  -5.8713  -4.6494  -4.5846  -4.4429  -4.4158
    -4.3802  -4.3396  -4.3235  -4.2272  -1.1239  -0.6337  -0.0896   0.0863
     0.3621   0.5148   0.7601   0.8504   0.9309   0.9780   1.0432   1.1392
     1.2616   1.3010   1.4016   1.4986

          k = 0.5000-0.2887 0.0000 (109602 PWs)   bands (ev):

   -78.6507 -78.6507 -78.6497 -78.6497 -49.9866 -49.9865 -49.9854 -49.9853
   -49.9834 -49.9832 -49.9827 -49.9822 -49.9812 -49.9806 -49.9799 -49.9797
   -18.1788 -18.1396 -17.9076 -17.8689 -17.5269 -17.5172 -17.4947 -17.4800
   -17.4018 -17.3753 -17.3336 -17.3063 -10.5509 -10.4568 -10.0322  -9.9691
    -9.8935  -9.8777  -9.6688  -9.5716  -9.4475  -9.4413  -9.3581  -9.2546
    -9.1793  -9.1577  -9.0750  -9.0640  -8.8692  -8.8478  -8.5539  -8.5508
    -8.5001  -8.4794  -8.4185  -8.3541  -8.1956  -8.1037  -7.8063  -7.7424
    -7.6139  -7.6041  -7.5092  -7.4293  -7.3901  -7.3337  -7.0345  -6.9698
    -6.7122  -6.7086  -6.6526  -6.5947  -6.5366  -6.5092  -6.3922  -6.3099
    -6.1197  -6.1014  -5.9359  -5.8507  -4.6432  -4.5600  -4.4729  -4.4029
    -4.3757  -4.3613  -4.2929  -4.2476  -1.3621  -0.8614   0.0239   0.0475
     0.1066   0.4247   0.6417   0.6740   0.7819   1.0929   1.1843   1.2279
     1.3038   1.3092   1.3937   1.5438

          k = 0.3333 0.0000 0.0000 (109615 PWs)   bands (ev):

   -78.6507 -78.6507 -78.6497 -78.6496 -49.9866 -49.9866 -49.9853 -49.9853
   -49.9833 -49.9833 -49.9826 -49.9826 -49.9806 -49.9806 -49.9799 -49.9799
   -18.4004 -18.3188 -17.6693 -17.6436 -17.6185 -17.5392 -17.5054 -17.4865
   -17.3459 -17.3133 -17.2966 -17.2877 -10.4554 -10.3426 -10.2620 -10.1324
    -9.9998  -9.9353  -9.7721  -9.6865  -9.6185  -9.5819  -9.5272  -9.4415
    -8.9297  -8.9059  -8.8930  -8.8648  -8.6826  -8.6728  -8.6538  -8.6086
    -8.5505  -8.5311  -8.3764  -8.2573  -8.0849  -8.0673  -7.9979  -7.9933
    -7.7607  -7.6474  -7.6253  -7.4693  -7.2176  -7.1445  -7.0868  -6.9917
    -6.9709  -6.8621  -6.6342  -6.4902  -6.4338  -6.3940  -6.3631  -6.2744
    -6.1866  -5.9226  -5.8972  -5.8535  -4.6437  -4.5997  -4.4796  -4.4644
    -4.3831  -4.3736  -4.2068  -4.1218  -0.9694  -0.5003  -0.3755  -0.0839
     0.3605   0.5031   0.6493   0.7460   0.9259   1.0257   1.1328   1.2788
     1.3418   1.4867   1.5012   1.6447

          k =-0.3333 0.3849 0.0000 (109606 PWs)   bands (ev):

   -78.6507 -78.6507 -78.6497 -78.6497 -49.9866 -49.9865 -49.9854 -49.9854
   -49.9834 -49.9832 -49.9825 -49.9821 -49.9813 -49.9809 -49.9798 -49.9797
   -18.2070 -18.1416 -17.8653 -17.8237 -17.5665 -17.5441 -17.5342 -17.4578
   -17.4001 -17.3609 -17.3270 -17.3047 -10.4124 -10.3241 -10.1066 -10.0284
   -10.0038  -9.8946  -9.6676  -9.5966  -9.5779  -9.5358  -9.3795  -9.3243
    -9.1023  -9.0560  -8.9342  -8.9253  -8.8638  -8.8198  -8.6295  -8.5711
    -8.4961  -8.4928  -8.4662  -8.4467  -8.1108  -8.0027  -7.9625  -7.8103
    -7.7684  -7.6728  -7.4567  -7.3586  -7.2473  -7.1103  -7.0773  -7.0094
    -6.8638  -6.8300  -6.6412  -6.5547  -6.5272  -6.4464  -6.3374  -6.2889
    -6.2187  -5.9942  -5.9316  -5.8517  -4.6272  -4.5777  -4.4930  -4.3744
    -4.3382  -4.3080  -4.2603  -4.1716  -1.1831  -0.7733  -0.5389  -0.3495
     0.1776   0.4507   0.5474   0.6241   0.7431   0.8203   0.8757   1.0757
     1.1059   1.2240   1.3148   1.4052

          k = 0.5000 0.0962 0.0000 (109606 PWs)   bands (ev):

   -78.6507 -78.6507 -78.6497 -78.6497 -49.9866 -49.9866 -49.9854 -49.9853
   -49.9834 -49.9833 -49.9825 -49.9823 -49.9810 -49.9808 -49.9799 -49.9798
   -18.2051 -18.1408 -17.8769 -17.8156 -17.5683 -17.5518 -17.5227 -17.4555
   -17.4112 -17.3454 -17.3360 -17.3037 -10.4153 -10.3226 -10.1104 -10.0473
    -9.9556  -9.9087  -9.6957  -9.5885  -9.5651  -9.5360  -9.3981  -9.2909
    -9.1135  -9.0760  -8.9347  -8.9033  -8.8588  -8.8361  -8.6048  -8.5623
    -8.5411  -8.4937  -8.4785  -8.4170  -8.1100  -8.0046  -7.9584  -7.8472
    -7.7689  -7.6319  -7.4665  -7.3304  -7.2617  -7.1335  -7.0801  -6.9883
    -6.9090  -6.7435  -6.7196  -6.5428  -6.4861  -6.4337  -6.4146  -6.2769
    -6.1297  -6.0303  -5.9403  -5.8741  -4.6292  -4.5543  -4.4642  -4.4190
    -4.3637  -4.2787  -4.2532  -4.1778  -1.1953  -0.7559  -0.5396  -0.3714
     0.1678   0.4455   0.5679   0.6858   0.7305   0.7984   0.8397   0.9970
     1.2124   1.3189   1.3267   1.3911

 ------ SPIN DOWN ----------


          k = 0.0000 0.0000 0.0000 (109591 PWs)   bands (ev):

   -75.1828 -75.1828 -75.1817 -75.1817 -46.5807 -46.5807 -46.5791 -46.5791
   -46.5672 -46.5672 -46.5663 -46.5663 -46.5621 -46.5621 -46.5612 -46.5611
   -18.6521 -18.5590 -17.8722 -17.7477 -17.5396 -17.5386 -17.5351 -17.5330
   -17.3587 -17.3583 -17.3550 -17.3539 -10.0614 -10.0610  -9.7043  -9.2044
    -9.0478  -9.0230  -9.0080  -8.9567  -8.8471  -8.7851  -8.7706  -8.7334
    -8.6492  -8.6487  -7.9892  -7.9318  -7.5913  -7.5596  -7.5165  -7.5066
    -7.3990  -7.3395  -7.2142  -7.2133  -7.1911  -7.0553  -6.9299  -6.3682
    -6.3438  -6.3117  -6.3049  -6.2128  -5.9097  -5.9066  -5.8462  -5.8425
    -2.2677  -2.2641  -2.1894  -2.1867  -2.1729  -2.1563  -2.1501  -2.1016
    -2.0678  -2.0507  -2.0006  -1.9700  -1.8000  -1.7969  -1.7165  -1.7139
    -1.6007  -1.5952  -1.5633  -1.5542  -0.2511  -0.0004   0.0477   0.0506
     0.1547   0.3520   0.9295   0.9331   1.0567   1.0750   1.5569   1.5600
     1.7134   1.7363   1.8660   2.0974

          k = 0.0000 0.1925 0.0000 (109722 PWs)   bands (ev):

   -75.1828 -75.1828 -75.1817 -75.1817 -46.5806 -46.5806 -46.5792 -46.5792
   -46.5673 -46.5673 -46.5660 -46.5660 -46.5625 -46.5625 -46.5609 -46.5609
   -18.5935 -18.5023 -17.8335 -17.7146 -17.6271 -17.6090 -17.5693 -17.5618
   -17.3772 -17.3718 -17.3542 -17.3523 -10.0369 -10.0285  -9.6598  -9.2463
    -9.1563  -9.1413  -9.0337  -8.9170  -8.8498  -8.8178  -8.7608  -8.6721
    -8.3402  -8.2376  -7.8039  -7.7427  -7.6756  -7.6557  -7.5974  -7.4980
    -7.3793  -7.2824  -7.2255  -7.1994  -7.0815  -6.9941  -6.8716  -6.5210
    -6.4314  -6.4226  -6.3680  -6.2579  -6.2417  -6.0892  -5.9959  -5.9326
    -2.2810  -2.2555  -2.2230  -2.1827  -2.1737  -2.1509  -2.1480  -2.1075
    -2.0310  -1.9899  -1.9596  -1.9427  -1.7914  -1.7645  -1.7179  -1.7039
    -1.6957  -1.6615  -1.6475  -1.6126  -0.0472   0.1039   0.1234   0.4331
     0.5408   0.6205   0.7034   0.7666   1.0303   1.2031   1.4024   1.5277
     1.7794   1.8542   1.9155   2.0827

          k = 0.0000 0.3849 0.0000 (109616 PWs)   bands (ev):

   -75.1828 -75.1828 -75.1817 -75.1817 -46.5805 -46.5805 -46.5793 -46.5793
   -46.5673 -46.5673 -46.5654 -46.5654 -46.5632 -46.5632 -46.5607 -46.5607
   -18.4330 -18.3471 -17.8391 -17.7980 -17.7331 -17.6437 -17.6091 -17.6057
   -17.4417 -17.4030 -17.3768 -17.3639  -9.9993  -9.9303  -9.5179  -9.3327
    -9.2791  -9.1754  -9.0592  -8.8592  -8.7794  -8.6156  -8.5491  -8.3437
    -8.1944  -8.0310  -7.8163  -7.7712  -7.6984  -7.5880  -7.4344  -7.4004
    -7.3025  -7.2531  -7.2117  -7.0875  -7.0717  -7.0669  -6.9367  -6.8490
    -6.8032  -6.5947  -6.4876  -6.4402  -6.3454  -6.2035  -6.1352  -5.9639
    -2.3506  -2.2821  -2.2508  -2.2317  -2.1919  -2.1761  -2.1166  -2.1072
    -2.0774  -2.0102  -1.9002  -1.8525  -1.8411  -1.7827  -1.7690  -1.7436
    -1.7181  -1.6692  -1.6438  -1.6308  -0.4896   0.0706   0.5385   0.6625
     0.7398   0.7504   0.9000   1.0761   1.0781   1.2808   1.3090   1.4804
     1.4861   1.6180   1.6757   1.8304

          k = 0.0000-0.5774 0.0000 (109602 PWs)   bands (ev):

   -75.1828 -75.1827 -75.1817 -75.1817 -46.5804 -46.5804 -46.5794 -46.5794
   -46.5674 -46.5674 -46.5648 -46.5648 -46.5638 -46.5638 -46.5606 -46.5606
   -18.2816 -18.1985 -18.0137 -17.9627 -17.6564 -17.6461 -17.6261 -17.5458
   -17.5133 -17.4520 -17.3917 -17.3705  -9.9963  -9.8796  -9.3946  -9.3799
    -9.2717  -9.2111  -8.9045  -8.6581  -8.6260  -8.5605  -8.5377  -8.3731
    -8.2990  -8.0022  -7.8554  -7.8364  -7.6931  -7.5881  -7.4791  -7.4469
    -7.3938  -7.3446  -7.3095  -7.1568  -6.9888  -6.9507  -6.8216  -6.7753
    -6.7690  -6.6050  -6.5690  -6.5427  -6.3773  -6.3410  -6.1162  -5.8728
    -2.4514  -2.3312  -2.3065  -2.2568  -2.2007  -2.1707  -2.1215  -2.1054
    -2.0641  -2.0114  -1.9450  -1.9309  -1.9208  -1.7635  -1.7102  -1.6954
    -1.6788  -1.6402  -1.6203  -1.6202  -0.7614  -0.1326   0.2152   0.5685
     0.8469   0.8644   0.8964   1.0879   1.1627   1.3805   1.4120   1.4400
     1.5756   1.5970   1.6406   1.6680

          k = 0.1667 0.2887 0.0000 (109615 PWs)   bands (ev):

   -75.1828 -75.1828 -75.1817 -75.1817 -46.5806 -46.5805 -46.5793 -46.5792
   -46.5674 -46.5672 -46.5659 -46.5656 -46.5629 -46.5627 -46.5609 -46.5608
   -18.4821 -18.3957 -17.7668 -17.7569 -17.7332 -17.6579 -17.6215 -17.6144
   -17.4155 -17.3976 -17.3645 -17.3566  -9.9871  -9.9135  -9.5868  -9.3143
    -9.2229  -9.1926  -9.0726  -8.9912  -8.8565  -8.6575  -8.5583  -8.4507
    -8.0749  -7.9735  -7.9024  -7.8458  -7.7067  -7.6379  -7.4678  -7.3471
    -7.3175  -7.2822  -7.1887  -7.0968  -7.0554  -7.0007  -6.9645  -6.8410
    -6.5833  -6.5425  -6.4238  -6.4161  -6.3857  -6.1532  -6.0990  -6.0485
    -2.2732  -2.2586  -2.2311  -2.2012  -2.1876  -2.1834  -2.1436  -2.1237
    -2.0928  -2.0804  -1.8380  -1.8343  -1.8162  -1.7965  -1.7515  -1.7253
    -1.7088  -1.6767  -1.6662  -1.6414  -0.2014  -0.0361   0.3742   0.5374
     0.6156   0.7450   0.8601   0.9441   1.1631   1.2188   1.2969   1.4563
     1.6246   1.7060   1.7668   1.8400

          k = 0.1667 0.4811 0.0000 (109606 PWs)   bands (ev):

   -75.1828 -75.1827 -75.1817 -75.1817 -46.5805 -46.5804 -46.5794 -46.5793
   -46.5674 -46.5673 -46.5652 -46.5650 -46.5636 -46.5634 -46.5607 -46.5606
   -18.2977 -18.2172 -17.9597 -17.9213 -17.6929 -17.6663 -17.6556 -17.5572
   -17.4898 -17.4492 -17.3849 -17.3684  -9.8745  -9.7825  -9.4445  -9.3639
    -9.2903  -9.1127  -9.0487  -8.8586  -8.7630  -8.5492  -8.5049  -8.4112
    -8.3211  -8.1713  -7.8265  -7.8011  -7.6553  -7.5935  -7.5345  -7.4388
    -7.3616  -7.3456  -7.1462  -7.0667  -7.0230  -6.8711  -6.8190  -6.7753
    -6.6791  -6.5750  -6.5456  -6.5119  -6.3192  -6.2652  -6.2120  -5.9803
    -2.3666  -2.2820  -2.2481  -2.2336  -2.2178  -2.1756  -2.1577  -2.1464
    -2.0864  -2.0580  -1.9979  -1.9404  -1.8946  -1.7641  -1.7197  -1.7014
    -1.6444  -1.6314  -1.6011  -1.5983  -0.5899  -0.1045   0.0705   0.3043
     0.4364   0.7049   0.7429   0.8997   1.0492   1.2015   1.2537   1.3383
     1.3728   1.4621   1.5865   1.7597

          k = 0.3333 0.5774 0.0000 (109542 PWs)   bands (ev):

   -75.1827 -75.1827 -75.1817 -75.1817 -46.5804 -46.5804 -46.5794 -46.5793
   -46.5674 -46.5674 -46.5653 -46.5653 -46.5632 -46.5632 -46.5608 -46.5608
   -18.1279 -18.1060 -18.0624 -18.0520 -17.7442 -17.7196 -17.5710 -17.5521
   -17.5061 -17.4848 -17.3956 -17.3732  -9.5984  -9.5762  -9.5114  -9.4964
    -9.1008  -9.0778  -9.0653  -8.8851  -8.8778  -8.8215  -8.4564  -8.3969
    -8.3392  -8.2666  -8.1557  -8.0495  -7.6605  -7.5484  -7.4981  -7.4205
    -7.1892  -7.1386  -7.0768  -7.0097  -6.9036  -6.8996  -6.7200  -6.6602
    -6.6602  -6.6123  -6.5723  -6.5134  -6.3143  -6.2295  -6.1950  -6.0947
    -2.2892  -2.2760  -2.2632  -2.2304  -2.2087  -2.1771  -2.1754  -2.1590
    -2.1310  -2.1276  -2.0632  -2.0328  -1.8772  -1.7844  -1.6541  -1.6317
    -1.6194  -1.6127  -1.5734  -1.5709  -0.4446  -0.3811  -0.1797  -0.0928
     0.3345   0.5526   0.5807   0.6254   0.8089   0.8220   1.1101   1.2622
     1.3213   1.3916   1.4866   1.5609

          k =-0.1667 0.0962 0.0000 (109722 PWs)   bands (ev):

   -75.1828 -75.1828 -75.1817 -75.1817 -46.5807 -46.5806 -46.5792 -46.5791
   -46.5673 -46.5672 -46.5662 -46.5661 -46.5622 -46.5621 -46.5612 -46.5611
   -18.5930 -18.5023 -17.8334 -17.7149 -17.6349 -17.6060 -17.5705 -17.5567
   -17.3814 -17.3674 -17.3549 -17.3513 -10.0766  -9.9841  -9.6596  -9.2543
    -9.1588  -9.1162  -9.0565  -8.9272  -8.8606  -8.7841  -8.7383  -8.7077
    -8.3169  -8.2546  -7.8166  -7.7348  -7.6987  -7.6411  -7.5807  -7.5348
    -7.3406  -7.2705  -7.2152  -7.1856  -7.1627  -6.9941  -6.7967  -6.5672
    -6.4496  -6.3905  -6.3600  -6.2935  -6.2342  -6.0745  -5.9865  -5.9412
    -2.2802  -2.2668  -2.2158  -2.1961  -2.1774  -2.1532  -2.1321  -2.0940
    -2.0209  -2.0068  -1.9710  -1.9306  -1.7871  -1.7766  -1.7197  -1.7060
    -1.6777  -1.6692  -1.6431  -1.6164  -0.0879   0.1118   0.1910   0.4309
     0.5585   0.6074   0.6569   0.7257   1.0976   1.2259   1.3209   1.5505
     1.7573   1.8589   1.9668   2.0801

          k =-0.3333 0.1925 0.0000 (109616 PWs)   bands (ev):

   -75.1828 -75.1828 -75.1817 -75.1817 -46.5805 -46.5805 -46.5793 -46.5792
   -46.5674 -46.5672 -46.5660 -46.5657 -46.5626 -46.5622 -46.5613 -46.5610
   -18.4293 -18.3481 -17.8487 -17.7986 -17.7293 -17.6408 -17.6165 -17.5996
   -17.4439 -17.3949 -17.3841 -17.3604 -10.0264  -9.8966  -9.5252  -9.3145
    -9.2777  -9.1804  -9.0557  -8.8524  -8.8092  -8.6230  -8.5421  -8.3378
    -8.1806  -8.0687  -7.7727  -7.7625  -7.7166  -7.6189  -7.4397  -7.3574
    -7.3070  -7.2872  -7.1794  -7.1318  -7.0733  -7.0425  -6.9773  -6.8111
    -6.7447  -6.6497  -6.5128  -6.3919  -6.3629  -6.1928  -6.0881  -6.0176
    -2.3324  -2.2905  -2.2572  -2.2434  -2.1954  -2.1626  -2.1357  -2.1080
    -2.0529  -2.0152  -1.8799  -1.8648  -1.8335  -1.8057  -1.7483  -1.7440
    -1.7150  -1.6904  -1.6517  -1.6156  -0.5098   0.0907   0.4948   0.6224
     0.7030   0.8611   0.9418   1.0782   1.1135   1.2172   1.3552   1.4360
     1.4833   1.6217   1.6929   1.7640

          k = 0.5000-0.2887 0.0000 (109602 PWs)   bands (ev):

   -75.1828 -75.1827 -75.1817 -75.1817 -46.5805 -46.5805 -46.5793 -46.5793
   -46.5674 -46.5672 -46.5659 -46.5654 -46.5628 -46.5623 -46.5613 -46.5610
   -18.2583 -18.2181 -18.0126 -17.9746 -17.6556 -17.6278 -17.6220 -17.5856
   -17.4855 -17.4558 -17.3958 -17.3668 -10.0036  -9.8738  -9.3740  -9.3625
    -9.2973  -9.2179  -8.8317  -8.7445  -8.6092  -8.5775  -8.5170  -8.4681
    -8.1886  -8.0593  -7.8447  -7.8261  -7.6416  -7.6354  -7.4522  -7.4165
    -7.3963  -7.3694  -7.3210  -7.2273  -6.9661  -6.9180  -6.8207  -6.7467
    -6.7397  -6.7081  -6.6071  -6.4701  -6.3773  -6.3267  -6.0134  -5.9787
    -2.4161  -2.3916  -2.2555  -2.2395  -2.2312  -2.1780  -2.1404  -2.1325
    -2.0136  -1.9726  -1.9711  -1.9377  -1.8969  -1.8303  -1.6924  -1.6696
    -1.6645  -1.6480  -1.6283  -1.6269  -0.7833  -0.1288   0.1806   0.5847
     0.8570   0.9082   0.9324   1.0239   1.1952   1.3525   1.4121   1.4883
     1.5217   1.5735   1.6587   1.6931

          k = 0.3333 0.0000 0.0000 (109615 PWs)   bands (ev):

   -75.1828 -75.1828 -75.1817 -75.1817 -46.5806 -46.5806 -46.5792 -46.5792
   -46.5673 -46.5673 -46.5660 -46.5660 -46.5621 -46.5621 -46.5613 -46.5613
   -18.4806 -18.3957 -17.7740 -17.7636 -17.7236 -17.6618 -17.6247 -17.6046
   -17.4256 -17.3780 -17.3775 -17.3531 -10.0198  -9.8722  -9.5857  -9.3324
    -9.2252  -9.1534  -9.1207  -8.9605  -8.8242  -8.6745  -8.6221  -8.4095
    -8.0918  -7.9575  -7.9278  -7.8226  -7.7290  -7.5751  -7.5591  -7.3824
    -7.2665  -7.1973  -7.1484  -7.1464  -7.0823  -7.0283  -6.9876  -6.7905
    -6.6050  -6.5288  -6.4554  -6.3894  -6.3848  -6.1264  -6.0905  -6.0864
    -2.2992  -2.2566  -2.2206  -2.2133  -2.1730  -2.1524  -2.1408  -2.1195
    -2.1049  -2.0793  -1.8416  -1.8376  -1.8260  -1.8020  -1.7612  -1.7354
    -1.6939  -1.6834  -1.6564  -1.6302  -0.2654   0.1192   0.2244   0.5387
     0.6249   0.7484   0.9344   0.9633   1.0746   1.2242   1.2730   1.5108
     1.6119   1.7314   1.7575   1.9202

          k =-0.3333 0.3849 0.0000 (109606 PWs)   bands (ev):

   -75.1828 -75.1827 -75.1817 -75.1817 -46.5805 -46.5805 -46.5793 -46.5793
   -46.5674 -46.5672 -46.5657 -46.5653 -46.5631 -46.5627 -46.5610 -46.5609
   -18.2903 -18.2220 -17.9654 -17.9225 -17.6924 -17.6647 -17.6494 -17.5683
   -17.4830 -17.4486 -17.3877 -17.3661  -9.8862  -9.7687  -9.4566  -9.3425
    -9.2780  -9.1280  -9.0471  -8.8525  -8.7881  -8.5555  -8.4821  -8.4044
    -8.3490  -8.1645  -7.8240  -7.7983  -7.6321  -7.6117  -7.5295  -7.4077
    -7.3993  -7.3447  -7.1645  -7.1293  -6.9282  -6.8795  -6.8278  -6.7331
    -6.7201  -6.6089  -6.5474  -6.4619  -6.3910  -6.2151  -6.1292  -6.0565
    -2.3347  -2.3136  -2.2462  -2.2240  -2.2102  -2.2074  -2.1861  -2.1335
    -2.0686  -2.0445  -1.9750  -1.9490  -1.8720  -1.8229  -1.7120  -1.6802
    -1.6413  -1.6380  -1.6081  -1.5949  -0.6088  -0.0881   0.0584   0.3223
     0.3911   0.7642   0.7860   0.9120   0.9850   1.1147   1.3078   1.3584
     1.4063   1.4522   1.5198   1.7137

          k = 0.5000 0.0962 0.0000 (109606 PWs)   bands (ev):

   -75.1828 -75.1827 -75.1817 -75.1817 -46.5805 -46.5805 -46.5793 -46.5793
   -46.5674 -46.5673 -46.5658 -46.5655 -46.5627 -46.5624 -46.5612 -46.5610
   -18.2882 -18.2212 -17.9767 -17.9150 -17.6966 -17.6682 -17.6379 -17.5684
   -17.4967 -17.4334 -17.3941 -17.3640  -9.8985  -9.7536  -9.4579  -9.3493
    -9.2744  -9.1221  -9.0389  -8.8407  -8.7897  -8.5443  -8.5224  -8.4594
    -8.3184  -8.1083  -7.8674  -7.7973  -7.6454  -7.5657  -7.5466  -7.4349
    -7.3722  -7.3470  -7.1628  -7.1170  -6.9706  -6.8451  -6.8130  -6.7696
    -6.6774  -6.6358  -6.5685  -6.4707  -6.3041  -6.2606  -6.1195  -6.0745
    -2.3510  -2.3013  -2.2445  -2.2117  -2.2089  -2.1917  -2.1803  -2.1446
    -2.0847  -2.0520  -1.9905  -1.9108  -1.8961  -1.8163  -1.7123  -1.6772
    -1.6528  -1.6448  -1.5970  -1.5891  -0.6190  -0.0607   0.0329   0.2571
     0.4264   0.7616   0.8730   0.9156   0.9856   1.0416   1.2718   1.3166
     1.4858   1.5099   1.5978   1.6431

     highest occupied, lowest unoccupied level (ev):    -5.6739   -4.6503

!    total energy              =   -5539.45213595 Ry
     total all-electron energy =     -5539.452136 Ry
     estimated scf accuracy    <          6.9E-12 Ry

     The total energy is the sum of the following terms:
     one-electron contribution =   -9563.65215506 Ry
     hartree contribution      =    4755.24141373 Ry
     xc contribution           =    -165.78667778 Ry
     ewald contribution        =    3977.84444146 Ry
     Hubbard energy            =       0.74274239 Ry
     one-center paw contrib.   =   -4543.84190068 Ry

     total magnetization       =    12.00 Bohr mag/cell
     absolute magnetization    =    17.05 Bohr mag/cell

     convergence has been achieved in  22 iterations

     negative rho (up, down):  2.694E-02 3.624E-02

     Forces acting on atoms (cartesian axes, Ry/au):

     atom    1 type  1   force =    -0.00003610   -0.00049440    0.00023018
     atom    2 type  1   force =    -0.00003610    0.00049440    0.00023018
     atom    3 type  2   force =     0.01312701    0.00000000   -0.02015325
     atom    4 type  2   force =    -0.00716750   -0.01194033   -0.01812369
     atom    5 type  2   force =    -0.00716750    0.01194033   -0.01812369
     atom    6 type  2   force =    -0.01356712    0.00000000    0.02198971
     atom    7 type  2   force =     0.00677545    0.01182888    0.02197733
     atom    8 type  2   force =     0.00677545   -0.01182888    0.02197733
     atom    9 type  1   force =     0.00003598   -0.00049505   -0.00023503
     atom   10 type  1   force =     0.00003598    0.00049505   -0.00023503
     atom   11 type  2   force =     0.01356820    0.00000000   -0.02198804
     atom   12 type  2   force =    -0.00677598   -0.01182697   -0.02197564
     atom   13 type  2   force =    -0.00677598    0.01182697   -0.02197564
     atom   14 type  2   force =    -0.01312783    0.00000000    0.02015869
     atom   15 type  2   force =     0.00716802    0.01194113    0.01812329
     atom   16 type  2   force =     0.00716802   -0.01194113    0.01812329

     Total force =     0.085196     Total SCF correction =     0.000005


     Computing stress (Cartesian axis) and pressure


     negative rho (up, down):  2.694E-02 3.624E-02
          total   stress  (Ry/bohr**3)                   (kbar)     P=       20.67
   0.00014231   0.00000000  -0.00000126           20.94        0.00       -0.18
   0.00000000   0.00014140  -0.00000000            0.00       20.80       -0.00
  -0.00000126  -0.00000000   0.00013776           -0.18       -0.00       20.26


     Writing all to output data dir ./ht_afm_fm_qe/ht_afm_fm_qe.save/ :
     XML data file, charge density, pseudopotentials, collected wavefunctions

     init_run     :     32.99s CPU     33.58s WALL (       1 calls)
     electrons    :   1173.31s CPU   1227.56s WALL (       1 calls)
     forces       :    251.04s CPU    253.63s WALL (       1 calls)
     stress       :   1004.46s CPU   1014.90s WALL (       1 calls)

     Called by init_run:
     wfcinit      :     30.33s CPU     30.75s WALL (       1 calls)
     potinit      :      1.11s CPU      1.17s WALL (       1 calls)
     hinit0       :      0.89s CPU      0.93s WALL (       1 calls)

     Called by electrons:
     c_bands      :    975.29s CPU   1021.00s WALL (      22 calls)
     sum_band     :    164.49s CPU    170.79s WALL (      22 calls)
     v_of_rho     :      5.01s CPU      5.18s WALL (      23 calls)
     newd         :      7.26s CPU      8.49s WALL (      23 calls)
     PAW_pot      :     19.33s CPU     19.67s WALL (      23 calls)
     mix_rho      :      2.47s CPU      2.57s WALL (      22 calls)

     Called by c_bands:
     init_us_2    :     14.31s CPU     14.68s WALL (    1300 calls)
     init_us_2:cp :     14.29s CPU     14.67s WALL (    1300 calls)
     cegterg      :    943.96s CPU    988.72s WALL (     572 calls)

     Called by *egterg:
     cdiaghg      :     97.27s CPU     98.44s WALL (    2414 calls)
     h_psi        :    622.64s CPU    647.22s WALL (    2440 calls)
     s_psi        :     42.13s CPU     42.99s WALL (    2570 calls)
     g_psi        :      5.58s CPU      5.72s WALL (    1842 calls)

     Called by h_psi:
     h_psi:calbec :     43.71s CPU     45.07s WALL (    2440 calls)
     vloc_psi     :    486.91s CPU    500.81s WALL (    2440 calls)
     add_vuspsi   :     36.07s CPU     36.85s WALL (    2440 calls)
     vhpsi        :     46.64s CPU     48.16s WALL (    2440 calls)

     General routines
     calbec       :    245.25s CPU    249.41s WALL (   46506 calls)
     fft          :      3.72s CPU      3.92s WALL (     613 calls)
     ffts         :      0.30s CPU      0.33s WALL (      90 calls)
     fftw         :    446.97s CPU    459.83s WALL (  365192 calls)
     interpolate  :      0.49s CPU      0.54s WALL (      46 calls)

     Parallel routines

     Hubbard U routines
     new_ns       :      8.50s CPU      8.75s WALL (      22 calls)
     vhpsi        :     46.64s CPU     48.16s WALL (    2440 calls)
     force_hub    :    245.82s CPU    248.28s WALL (       1 calls)
                                        0.00s GPU  (       1 calls)
     stres_hub    :    919.06s CPU    928.30s WALL (       1 calls)
                                        0.00s GPU  (       1 calls)

     PWSCF        :  41m 5.51s CPU  42m56.55s WALL


   This run was terminated on:  14:39:29  15Oct2025            

=------------------------------------------------------------------------------=
   JOB DONE.
=------------------------------------------------------------------------------=
