
     Program PWSCF v.7.3 starts on 15Oct2025 at 14:39:30 

     This program is part of the open-source Quantum ESPRESSO suite
     for quantum simulation of materials; please cite
         "P. Giannozzi et al., J. Phys.:Condens. Matter 21 395502 (2009);
         "P. Giannozzi et al., J. Phys.:Condens. Matter 29 465901 (2017);
         "P. Giannozzi et al., J. Chem. Phys. 152 154105 (2020);
          URL http://www.quantum-espresso.org", 
     in publications or presentations arising from this work. More details at
     http://www.quantum-espresso.org/quote

     Parallel version (MPI), running on    24 processors

     MPI processes distributed on     1 nodes
     55582 MiB available memory on the printing compute node when the environment starts

     Reading input from ht_afm_afm_qe.scf.in
Warning: card &CELL ignored
Warning: card / ignored

     Current dimensions of program PWSCF are:
     Max number of different atomic species (ntypx) = 10
     Max number of k-points (npk) =  40000
     Max angular momentum in pseudopotentials (lmaxx) =  4
read_pp_mesh; mismatch in mesh size, discarding the one in header
read_pp_mesh; mismatch in mesh size, discarding the one in header
read_pp_mesh; mismatch in mesh size, discarding the one in header
     file Cr.GGA-PBE-paw.UPF: wavefunction(s)  3S 4S 3P 4P 3D 4D renormalized
     file I.GGA-PBE-paw.UPF: wavefunction(s)  6S 6P renormalized
     file Cr.GGA-PBE-paw.UPF: wavefunction(s)  3S 4S 3P 4P 3D 4D renormalized

     IMPORTANT: XC functional enforced from input :
     Exchange-correlation= PBE
                           (   1   4   3   4   0   0   0)
     Any further DFT definition will be discarded
     Please, verify this is what you really want

     Message from routine setup:
     using ibrav=0 with symmetry is DISCOURAGED, use correct ibrav instead

     R & G space division:  proc/nbgrp/npool/nimage =      24
     Subspace diagonalization in iterative solution of the eigenvalue problem:
     a serial algorithm will be used


     Parallelization info
     --------------------
     sticks:   dense  smooth     PW     G-vecs:    dense   smooth      PW
     Min         179     174     46                38065    36532    5046
     Max         180     175     47                38082    36557    5059
     Sum        4303    4189   1123               913669   876961  121297

     Using Slab Decomposition



     bravais-lattice index     =            0
     lattice parameter (alat)  =      12.9956  a.u.
     unit-cell volume          =    7602.9282 (a.u.)^3
     number of atoms/cell      =           16
     number of atomic types    =            3
     number of electrons       =       140.00 (up:  70.00, down:  70.00)
     number of Kohn-Sham states=          100
     kinetic-energy cutoff     =      90.0000  Ry
     charge density cutoff     =     370.0000  Ry
     scf convergence threshold =      1.0E-11
     mixing beta               =       0.5000
     number of iterations used =            8  plain     mixing
     Exchange-correlation= PBE
                           (   1   4   3   4   0   0   0)
     Hubbard projectors: ortho-atomic
     Hubbard parameters of DFT+U (Dudarev formulation) in eV:
     U(Cr-3d) =  4.3700
     U(Cr1-3d) =  4.3700

     Internal variables: lda_plus_u =T, lda_plus_u_kind = 0

     celldm(1)=  12.995613  celldm(2)=   0.000000  celldm(3)=   0.000000
     celldm(4)=   0.000000  celldm(5)=   0.000000  celldm(6)=   0.000000

     crystal axes: (cart. coord. in units of alat)
               a(1) = (   1.000000  -0.000000   0.000000 )  
               a(2) = (  -0.500000   0.866025   0.000000 )  
               a(3) = (  -0.000000   0.000000   4.000000 )  

     reciprocal axes: (cart. coord. in units 2 pi/alat)
               b(1) = (  1.000000  0.577350  0.000000 )  
               b(2) = (  0.000000  1.154701  0.000000 )  
               b(3) = ( -0.000000 -0.000000  0.250000 )  


     PseudoPot. # 1 for Cr read from file:
     ../../Cr.GGA-PBE-paw.UPF
     MD5 check sum: 0e9dc003703e132720ff5dfacba66d28
     Pseudo is Projector augmented-wave + core cor, Zval = 14.0
     Generated using ATOMPAW code
     Shape of augmentation charge: SINC**2
     Using radial grid of 2342 points,  6 beta functions with: 
                l(1) =   0
                l(2) =   0
                l(3) =   1
                l(4) =   1
                l(5) =   2
                l(6) =   2
     Q(r) pseudized with 0 coefficients 


     PseudoPot. # 2 for I  read from file:
     ../../I.GGA-PBE-paw.UPF
     MD5 check sum: 736bb4145856fa7ed29d0984862794a4
     Pseudo is Projector augmented-wave + core cor, Zval =  7.0
     Generated using ATOMPAW code
     Shape of augmentation charge: SINC**2
     Using radial grid of 2342 points,  4 beta functions with: 
                l(1) =   0
                l(2) =   0
                l(3) =   1
                l(4) =   1
     Q(r) pseudized with 0 coefficients 


     PseudoPot. # 3 for Cr read from file:
     ../../Cr.GGA-PBE-paw.UPF
     MD5 check sum: 0e9dc003703e132720ff5dfacba66d28
     Pseudo is Projector augmented-wave + core cor, Zval = 14.0
     Generated using ATOMPAW code
     Shape of augmentation charge: SINC**2
     Using radial grid of 2342 points,  6 beta functions with: 
                l(1) =   0
                l(2) =   0
                l(3) =   1
                l(4) =   1
                l(5) =   2
                l(6) =   2
     Q(r) pseudized with 0 coefficients 


     atomic species   valence    mass     pseudopotential
     Cr               14.00    51.99610     Cr( 1.00)
     I                 7.00   126.90447     I ( 1.00)
     Cr1              14.00    51.99610     Cr( 1.00)

     Starting magnetic structure 
     atomic species   magnetization
     Cr              0.214
     I               0.000
     Cr1            -0.214

      2 Sym. Ops. (no inversion) found



   Cartesian axes

     site n.     atom                  positions (alat units)
         1        Cr     tau(   1) = (   0.8332322   0.2888117   2.2705821  )
         2        Cr     tau(   2) = (   0.3332322   0.5772137   2.2705821  )
         3        I      tau(   3) = (   0.9768883  -0.0000019   2.0450771  )
         4        I      tau(   4) = (   0.5113602   0.3087614   2.0460861  )
         5        I      tau(   5) = (   0.0113635   0.5572659   2.0460861  )
         6        I      tau(   6) = (   0.6899037  -0.0000017   2.4948790  )
         7        I      tau(   7) = (   0.6550688   0.5572240   2.4948552  )
         8        I      tau(   8) = (   0.1550716   0.3088031   2.4948552  )
         9        Cr1    tau(   9) = (   0.5001000   0.2888088   1.3132553  )
        10        Cr1    tau(  10) = (   0.0001000   0.5772166   1.3132554  )
        11        I      tau(  11) = (   0.6434309  -0.0000019   1.0889581  )
        12        I      tau(  12) = (   0.1782615   0.3088030   1.0889818  )
        13        I      tau(  13) = (  -0.3217352   0.5572244   1.0889818  )
        14        I      tau(  14) = (   0.3564452  -0.0000017   1.5387600  )
        15        I      tau(  15) = (   0.3219705   0.5572651   1.5377500  )
        16        I      tau(  16) = (  -0.1780267   0.3087620   1.5377500  )

     number of k points=    13
                       cart. coord. in units 2pi/alat
        k(    1) = (   0.0000000   0.0000000   0.0000000), wk =   0.0277778
        k(    2) = (   0.0000000   0.1924501   0.0000000), wk =   0.0555556
        k(    3) = (   0.0000000   0.3849002   0.0000000), wk =   0.0555556
        k(    4) = (   0.0000000  -0.5773503   0.0000000), wk =   0.0277778
        k(    5) = (   0.1666667   0.2886751   0.0000000), wk =   0.1111111
        k(    6) = (   0.1666667   0.4811252   0.0000000), wk =   0.1111111
        k(    7) = (   0.3333333   0.5773503   0.0000000), wk =   0.0555556
        k(    8) = (  -0.1666667   0.0962250   0.0000000), wk =   0.1111111
        k(    9) = (  -0.3333333   0.1924501   0.0000000), wk =   0.1111111
        k(   10) = (   0.5000000  -0.2886751   0.0000000), wk =   0.0555556
        k(   11) = (   0.3333333   0.0000000   0.0000000), wk =   0.0555556
        k(   12) = (  -0.3333333   0.3849002   0.0000000), wk =   0.1111111
        k(   13) = (   0.5000000   0.0962250   0.0000000), wk =   0.1111111

     Dense  grid:   913669 G-vectors     FFT dimensions: (  80,  80, 320)

     Smooth grid:   876961 G-vectors     FFT dimensions: (  80,  80, 320)

     Estimated max dynamical RAM per process >     478.26 MB

     Estimated total dynamical RAM >      11.21 GB
 ----2D----2D----2D----2D----2D----2D----2D----2D----2D----2D----2D----2D
  The code is running with the 2D cutoff
  Please refer to:
  Sohier, T., Calandra, M., & Mauri, F. (2017), 
  Density functional perturbation theory for gated two-dimensional heterostructures:
  Theoretical developments and application to flexural phonons in graphene.
  Physical Review B, 96(7), 75448. https://doi.org/10.1103/PhysRevB.96.075448
 ----2D----2D----2D----2D----2D----2D----2D----2D----2D----2D----2D----2D
     Generating pointlists ...
     new r_m :   0.1619 (alat units)  2.1043 (a.u.) for type    1
     new r_m :   0.1619 (alat units)  2.1043 (a.u.) for type    2
     new r_m :   0.1619 (alat units)  2.1043 (a.u.) for type    3
     Cannot read rho : file not found

     Initial potential from superposition of free atoms

     starting charge     139.9932, renormalised to     140.0000

     negative rho (up, down):  2.637E-02 2.638E-02

     STARTING HUBBARD OCCUPATIONS:

     =================== HUBBARD OCCUPATIONS ===================
     ------------------------ ATOM    1 ------------------------
     Tr[ns(  1)] (up, down, total) =   5.00000  0.00000  5.00000
     Atomic magnetic moment for atom   1 =   5.00000
     SPIN  1
     eigenvalues:
       1.000  1.000  1.000  1.000  1.000
     eigenvectors (columns):
       1.000  0.000  0.000  0.000  0.000
       0.000  1.000  0.000  0.000  0.000
       0.000  0.000  1.000  0.000  0.000
       0.000  0.000  0.000  1.000  0.000
       0.000  0.000  0.000  0.000  1.000
     occupation matrix ns (before diag.):
       1.000  0.000  0.000  0.000  0.000
       0.000  1.000  0.000  0.000  0.000
       0.000  0.000  1.000  0.000  0.000
       0.000  0.000  0.000  1.000  0.000
       0.000  0.000  0.000  0.000  1.000
     SPIN  2
     eigenvalues:
       0.000  0.000  0.000  0.000  0.000
     eigenvectors (columns):
       1.000  0.000  0.000  0.000  0.000
       0.000  1.000  0.000  0.000  0.000
       0.000  0.000  1.000  0.000  0.000
       0.000  0.000  0.000  1.000  0.000
       0.000  0.000  0.000  0.000  1.000
     occupation matrix ns (before diag.):
       0.000  0.000  0.000  0.000  0.000
       0.000  0.000  0.000  0.000  0.000
       0.000  0.000  0.000  0.000  0.000
       0.000  0.000  0.000  0.000  0.000
       0.000  0.000  0.000  0.000  0.000
     ------------------------ ATOM    2 ------------------------
     Tr[ns(  2)] (up, down, total) =   5.00000  0.00000  5.00000
     Atomic magnetic moment for atom   2 =   5.00000
     SPIN  1
     eigenvalues:
       1.000  1.000  1.000  1.000  1.000
     eigenvectors (columns):
       1.000  0.000  0.000  0.000  0.000
       0.000  1.000  0.000  0.000  0.000
       0.000  0.000  1.000  0.000  0.000
       0.000  0.000  0.000  1.000  0.000
       0.000  0.000  0.000  0.000  1.000
     occupation matrix ns (before diag.):
       1.000  0.000  0.000  0.000  0.000
       0.000  1.000  0.000  0.000  0.000
       0.000  0.000  1.000  0.000  0.000
       0.000  0.000  0.000  1.000  0.000
       0.000  0.000  0.000  0.000  1.000
     SPIN  2
     eigenvalues:
       0.000  0.000  0.000  0.000  0.000
     eigenvectors (columns):
       1.000  0.000  0.000  0.000  0.000
       0.000  1.000  0.000  0.000  0.000
       0.000  0.000  1.000  0.000  0.000
       0.000  0.000  0.000  1.000  0.000
       0.000  0.000  0.000  0.000  1.000
     occupation matrix ns (before diag.):
       0.000  0.000  0.000  0.000  0.000
       0.000  0.000  0.000  0.000  0.000
       0.000  0.000  0.000  0.000  0.000
       0.000  0.000  0.000  0.000  0.000
       0.000  0.000  0.000  0.000  0.000
     ------------------------ ATOM    9 ------------------------
     Tr[ns(  9)] (up, down, total) =   0.00000  5.00000  5.00000
     Atomic magnetic moment for atom   9 =  -5.00000
     SPIN  1
     eigenvalues:
       0.000  0.000  0.000  0.000  0.000
     eigenvectors (columns):
       1.000  0.000  0.000  0.000  0.000
       0.000  1.000  0.000  0.000  0.000
       0.000  0.000  1.000  0.000  0.000
       0.000  0.000  0.000  1.000  0.000
       0.000  0.000  0.000  0.000  1.000
     occupation matrix ns (before diag.):
       0.000  0.000  0.000  0.000  0.000
       0.000  0.000  0.000  0.000  0.000
       0.000  0.000  0.000  0.000  0.000
       0.000  0.000  0.000  0.000  0.000
       0.000  0.000  0.000  0.000  0.000
     SPIN  2
     eigenvalues:
       1.000  1.000  1.000  1.000  1.000
     eigenvectors (columns):
       1.000  0.000  0.000  0.000  0.000
       0.000  1.000  0.000  0.000  0.000
       0.000  0.000  1.000  0.000  0.000
       0.000  0.000  0.000  1.000  0.000
       0.000  0.000  0.000  0.000  1.000
     occupation matrix ns (before diag.):
       1.000  0.000  0.000  0.000  0.000
       0.000  1.000  0.000  0.000  0.000
       0.000  0.000  1.000  0.000  0.000
       0.000  0.000  0.000  1.000  0.000
       0.000  0.000  0.000  0.000  1.000
     ------------------------ ATOM   10 ------------------------
     Tr[ns( 10)] (up, down, total) =   0.00000  5.00000  5.00000
     Atomic magnetic moment for atom  10 =  -5.00000
     SPIN  1
     eigenvalues:
       0.000  0.000  0.000  0.000  0.000
     eigenvectors (columns):
       1.000  0.000  0.000  0.000  0.000
       0.000  1.000  0.000  0.000  0.000
       0.000  0.000  1.000  0.000  0.000
       0.000  0.000  0.000  1.000  0.000
       0.000  0.000  0.000  0.000  1.000
     occupation matrix ns (before diag.):
       0.000  0.000  0.000  0.000  0.000
       0.000  0.000  0.000  0.000  0.000
       0.000  0.000  0.000  0.000  0.000
       0.000  0.000  0.000  0.000  0.000
       0.000  0.000  0.000  0.000  0.000
     SPIN  2
     eigenvalues:
       1.000  1.000  1.000  1.000  1.000
     eigenvectors (columns):
       1.000  0.000  0.000  0.000  0.000
       0.000  1.000  0.000  0.000  0.000
       0.000  0.000  1.000  0.000  0.000
       0.000  0.000  0.000  1.000  0.000
       0.000  0.000  0.000  0.000  1.000
     occupation matrix ns (before diag.):
       1.000  0.000  0.000  0.000  0.000
       0.000  1.000  0.000  0.000  0.000
       0.000  0.000  1.000  0.000  0.000
       0.000  0.000  0.000  1.000  0.000
       0.000  0.000  0.000  0.000  1.000

     Number of occupied Hubbard levels =   20.0000

     Atomic wfc used for Hubbard projectors are orthogonalized

     Starting wfcs are  168 atomic wfcs
     Checking if some PAW data can be deallocated... 

     total cpu time spent up to now is       34.7 secs

     Self-consistent Calculation

     iteration #  1     ecut=    90.00 Ry     beta= 0.50
     Davidson diagonalization with overlap
     ethr =  1.00E-05,  avg # of iterations =  9.2

     =================== HUBBARD OCCUPATIONS ===================
     ------------------------ ATOM    1 ------------------------
     Tr[ns(  1)] (up, down, total) =   3.48152  0.29783  3.77935
     Atomic magnetic moment for atom   1 =   3.18369
     SPIN  1
     eigenvalues:
       0.407  0.407  0.889  0.889  0.890
     eigenvectors (columns):
       0.001  0.000  0.281 -0.024 -0.959
       0.563 -0.601 -0.376  0.406 -0.120
      -0.602 -0.563  0.392  0.395  0.104
      -0.386  0.415 -0.546  0.591 -0.176
      -0.414 -0.386 -0.572 -0.573 -0.154
     occupation matrix ns (before diag.):
       0.890 -0.000  0.000  0.000  0.001
      -0.000  0.562  0.001  0.225  0.001
       0.000  0.001  0.562  0.001 -0.225
       0.000  0.225  0.001  0.734  0.000
       0.001  0.001 -0.225  0.000  0.734
     SPIN  2
     eigenvalues:
       0.032  0.035  0.035  0.098  0.098
     eigenvectors (columns):
       1.000  0.018 -0.014  0.002  0.000
      -0.001  0.353  0.459  0.466 -0.669
      -0.012  0.459 -0.352 -0.670 -0.465
       0.000  0.497  0.646 -0.329  0.476
       0.019 -0.645  0.498 -0.475 -0.330
     occupation matrix ns (before diag.):
       0.032  0.000 -0.000 -0.000 -0.000
       0.000  0.077  0.000 -0.030  0.000
      -0.000  0.000  0.077 -0.000  0.030
      -0.000 -0.030 -0.000  0.056 -0.000
      -0.000  0.000  0.030 -0.000  0.056
     ------------------------ ATOM    2 ------------------------
     Tr[ns(  2)] (up, down, total) =   3.48152  0.29783  3.77935
     Atomic magnetic moment for atom   2 =   3.18369
     SPIN  1
     eigenvalues:
       0.407  0.407  0.889  0.889  0.890
     eigenvectors (columns):
       0.001  0.000  0.281 -0.024 -0.959
       0.563 -0.601 -0.376  0.406 -0.120
       0.602  0.563 -0.392 -0.395 -0.104
      -0.386  0.415 -0.546  0.591 -0.176
       0.414  0.386  0.572  0.573  0.154
     occupation matrix ns (before diag.):
       0.890 -0.000 -0.000  0.000 -0.001
      -0.000  0.562 -0.001  0.225 -0.001
      -0.000 -0.001  0.562 -0.001 -0.225
       0.000  0.225 -0.001  0.734 -0.000
      -0.001 -0.001 -0.225 -0.000  0.734
     SPIN  2
     eigenvalues:
       0.032  0.035  0.035  0.098  0.098
     eigenvectors (columns):
      -1.000 -0.018 -0.014 -0.002 -0.000
       0.001 -0.353  0.459 -0.466  0.669
      -0.012  0.459  0.352 -0.670 -0.465
      -0.000 -0.497  0.646  0.329 -0.476
       0.019 -0.645 -0.498 -0.475 -0.330
     occupation matrix ns (before diag.):
       0.032  0.000  0.000 -0.000  0.000
       0.000  0.077 -0.000 -0.030 -0.000
       0.000 -0.000  0.077  0.000  0.030
      -0.000 -0.030  0.000  0.056  0.000
       0.000 -0.000  0.030  0.000  0.056
     ------------------------ ATOM    9 ------------------------
     Tr[ns(  9)] (up, down, total) =   0.29783  3.48152  3.77935
     Atomic magnetic moment for atom   9 =  -3.18369
     SPIN  1
     eigenvalues:
       0.032  0.035  0.035  0.098  0.098
     eigenvectors (columns):
      -1.000 -0.018 -0.014 -0.002 -0.000
       0.001 -0.354  0.458 -0.467  0.669
      -0.012  0.459  0.353 -0.669 -0.466
      -0.000 -0.498  0.645  0.330 -0.476
       0.019 -0.645 -0.499 -0.475 -0.331
     occupation matrix ns (before diag.):
       0.032  0.000  0.000 -0.000  0.000
       0.000  0.077 -0.000 -0.030 -0.000
       0.000 -0.000  0.077  0.000  0.030
      -0.000 -0.030  0.000  0.056  0.000
       0.000 -0.000  0.030  0.000  0.056
     SPIN  2
     eigenvalues:
       0.407  0.407  0.889  0.889  0.890
     eigenvectors (columns):
       0.001  0.000  0.281 -0.024 -0.959
       0.563 -0.601 -0.376  0.407 -0.120
       0.602  0.563 -0.393 -0.395 -0.104
      -0.385  0.415 -0.545  0.592 -0.175
       0.414  0.386  0.573  0.572  0.154
     occupation matrix ns (before diag.):
       0.890 -0.000 -0.000  0.000 -0.001
      -0.000  0.562 -0.001  0.225 -0.001
      -0.000 -0.001  0.562 -0.001 -0.225
       0.000  0.225 -0.001  0.734 -0.000
      -0.001 -0.001 -0.225 -0.000  0.734
     ------------------------ ATOM   10 ------------------------
     Tr[ns( 10)] (up, down, total) =   0.29783  3.48152  3.77935
     Atomic magnetic moment for atom  10 =  -3.18369
     SPIN  1
     eigenvalues:
       0.032  0.035  0.035  0.098  0.098
     eigenvectors (columns):
       1.000  0.018 -0.014  0.002  0.000
      -0.001  0.354  0.458  0.467 -0.669
      -0.012  0.459 -0.353 -0.669 -0.466
       0.000  0.498  0.645 -0.330  0.476
       0.019 -0.645  0.499 -0.475 -0.331
     occupation matrix ns (before diag.):
       0.032  0.000 -0.000 -0.000 -0.000
       0.000  0.077  0.000 -0.030  0.000
      -0.000  0.000  0.077 -0.000  0.030
      -0.000 -0.030 -0.000  0.056 -0.000
      -0.000  0.000  0.030 -0.000  0.056
     SPIN  2
     eigenvalues:
       0.407  0.407  0.889  0.889  0.890
     eigenvectors (columns):
       0.001  0.000  0.281 -0.024 -0.959
       0.563 -0.601 -0.376  0.407 -0.120
      -0.602 -0.563  0.393  0.395  0.104
      -0.385  0.415 -0.545  0.592 -0.175
      -0.414 -0.386 -0.573 -0.572 -0.154
     occupation matrix ns (before diag.):
       0.890 -0.000  0.000  0.000  0.001
      -0.000  0.562  0.001  0.225  0.001
       0.000  0.001  0.562  0.001 -0.225
       0.000  0.225  0.001  0.734  0.000
       0.001  0.001 -0.225  0.000  0.734

     Number of occupied Hubbard levels =   15.1174

     negative rho (up, down):  3.108E-02 3.110E-02

     total cpu time spent up to now is      196.5 secs

     total energy              =   -5538.22064954 Ry
     estimated scf accuracy    <       2.54285422 Ry

     total magnetization       =     0.00 Bohr mag/cell
     absolute magnetization    =    15.54 Bohr mag/cell

     iteration #  2     ecut=    90.00 Ry     beta= 0.50
     Davidson diagonalization with overlap
     ethr =  1.82E-03,  avg # of iterations =  4.2

     negative rho (up, down):  2.921E-02 2.921E-02

     total cpu time spent up to now is      258.5 secs

     total energy              =   -5537.22576227 Ry
     estimated scf accuracy    <      13.57283634 Ry

     total magnetization       =    -0.00 Bohr mag/cell
     absolute magnetization    =    15.90 Bohr mag/cell

     iteration #  3     ecut=    90.00 Ry     beta= 0.50
     Davidson diagonalization with overlap
     ethr =  1.82E-03,  avg # of iterations =  2.2

     negative rho (up, down):  3.077E-02 3.078E-02

     total cpu time spent up to now is      307.7 secs

     total energy              =   -5539.39151649 Ry
     estimated scf accuracy    <       0.47753155 Ry

     total magnetization       =    -0.00 Bohr mag/cell
     absolute magnetization    =    16.51 Bohr mag/cell

     iteration #  4     ecut=    90.00 Ry     beta= 0.50
     Davidson diagonalization with overlap
     ethr =  3.41E-04,  avg # of iterations =  2.3

     negative rho (up, down):  3.183E-02 3.185E-02

     total cpu time spent up to now is      351.6 secs

     total energy              =   -5539.43472579 Ry
     estimated scf accuracy    <       0.09453527 Ry

     total magnetization       =     0.00 Bohr mag/cell
     absolute magnetization    =    16.70 Bohr mag/cell

     iteration #  5     ecut=    90.00 Ry     beta= 0.50
     Davidson diagonalization with overlap
     ethr =  6.75E-05,  avg # of iterations =  5.1

     negative rho (up, down):  3.196E-02 3.198E-02

     total cpu time spent up to now is      410.7 secs

     total energy              =   -5539.44457462 Ry
     estimated scf accuracy    <       0.04298252 Ry

     total magnetization       =    -0.00 Bohr mag/cell
     absolute magnetization    =    16.87 Bohr mag/cell

     iteration #  6     ecut=    90.00 Ry     beta= 0.50
     Davidson diagonalization with overlap
     ethr =  3.07E-05,  avg # of iterations =  5.8

     negative rho (up, down):  3.182E-02 3.184E-02

     total cpu time spent up to now is      464.0 secs

     total energy              =   -5539.45118148 Ry
     estimated scf accuracy    <       0.00146453 Ry

     total magnetization       =     0.00 Bohr mag/cell
     absolute magnetization    =    16.90 Bohr mag/cell

     iteration #  7     ecut=    90.00 Ry     beta= 0.50
     Davidson diagonalization with overlap
     ethr =  1.05E-06,  avg # of iterations =  7.5

     negative rho (up, down):  3.161E-02 3.163E-02

     total cpu time spent up to now is      551.5 secs

     total energy              =   -5539.45225555 Ry
     estimated scf accuracy    <       0.00167527 Ry

     total magnetization       =     0.00 Bohr mag/cell
     absolute magnetization    =    17.00 Bohr mag/cell

     iteration #  8     ecut=    90.00 Ry     beta= 0.50
     Davidson diagonalization with overlap
     ethr =  1.05E-06,  avg # of iterations =  2.0

     negative rho (up, down):  3.164E-02 3.166E-02

     total cpu time spent up to now is      594.6 secs

     total energy              =   -5539.45217227 Ry
     estimated scf accuracy    <       0.00081993 Ry

     total magnetization       =     0.00 Bohr mag/cell
     absolute magnetization    =    17.07 Bohr mag/cell

     iteration #  9     ecut=    90.00 Ry     beta= 0.50
     Davidson diagonalization with overlap
     ethr =  5.86E-07,  avg # of iterations =  1.0

     negative rho (up, down):  3.165E-02 3.167E-02

     total cpu time spent up to now is      634.2 secs

     total energy              =   -5539.45224773 Ry
     estimated scf accuracy    <       0.00003192 Ry

     total magnetization       =     0.00 Bohr mag/cell
     absolute magnetization    =    17.04 Bohr mag/cell

     iteration # 10     ecut=    90.00 Ry     beta= 0.50
     Davidson diagonalization with overlap
     ethr =  2.28E-08,  avg # of iterations =  4.0

     negative rho (up, down):  3.165E-02 3.167E-02

     total cpu time spent up to now is      691.6 secs

     total energy              =   -5539.45226059 Ry
     estimated scf accuracy    <       0.00001137 Ry

     total magnetization       =    -0.00 Bohr mag/cell
     absolute magnetization    =    17.03 Bohr mag/cell

     iteration # 11     ecut=    90.00 Ry     beta= 0.50
     Davidson diagonalization with overlap
     ethr =  8.12E-09,  avg # of iterations =  2.0

     negative rho (up, down):  3.162E-02 3.164E-02

     total cpu time spent up to now is      734.2 secs

     total energy              =   -5539.45226500 Ry
     estimated scf accuracy    <       0.00000286 Ry

     total magnetization       =     0.00 Bohr mag/cell
     absolute magnetization    =    17.03 Bohr mag/cell

     iteration # 12     ecut=    90.00 Ry     beta= 0.50
     Davidson diagonalization with overlap
     ethr =  2.04E-09,  avg # of iterations =  3.4

     negative rho (up, down):  3.162E-02 3.164E-02

     total cpu time spent up to now is      787.8 secs

     total energy              =   -5539.45226551 Ry
     estimated scf accuracy    <       0.00000302 Ry

     total magnetization       =    -0.00 Bohr mag/cell
     absolute magnetization    =    17.03 Bohr mag/cell

     iteration # 13     ecut=    90.00 Ry     beta= 0.50
     Davidson diagonalization with overlap
     ethr =  2.04E-09,  avg # of iterations =  2.1

     negative rho (up, down):  3.162E-02 3.164E-02

     total cpu time spent up to now is      832.0 secs

     total energy              =   -5539.45226608 Ry
     estimated scf accuracy    <       0.00000187 Ry

     total magnetization       =    -0.00 Bohr mag/cell
     absolute magnetization    =    17.02 Bohr mag/cell

     iteration # 14     ecut=    90.00 Ry     beta= 0.50
     Davidson diagonalization with overlap
     ethr =  1.33E-09,  avg # of iterations =  1.7

     negative rho (up, down):  3.162E-02 3.164E-02

     total cpu time spent up to now is      873.2 secs

     total energy              =   -5539.45226647 Ry
     estimated scf accuracy    <       0.00000007 Ry

     total magnetization       =    -0.00 Bohr mag/cell
     absolute magnetization    =    17.02 Bohr mag/cell

     iteration # 15     ecut=    90.00 Ry     beta= 0.50
     Davidson diagonalization with overlap
     ethr =  4.66E-11,  avg # of iterations =  4.5

     negative rho (up, down):  3.162E-02 3.164E-02

     total cpu time spent up to now is      940.7 secs

     total energy              =   -5539.45226656 Ry
     estimated scf accuracy    <       0.00000006 Ry

     total magnetization       =     0.00 Bohr mag/cell
     absolute magnetization    =    17.02 Bohr mag/cell

     iteration # 16     ecut=    90.00 Ry     beta= 0.50
     Davidson diagonalization with overlap
     ethr =  4.53E-11,  avg # of iterations =  2.0

     negative rho (up, down):  3.162E-02 3.164E-02

     total cpu time spent up to now is      983.4 secs

     total energy              =   -5539.45226658 Ry
     estimated scf accuracy    <       0.00000001 Ry

     total magnetization       =    -0.00 Bohr mag/cell
     absolute magnetization    =    17.02 Bohr mag/cell

     iteration # 17     ecut=    90.00 Ry     beta= 0.50
     Davidson diagonalization with overlap
     ethr =  9.54E-12,  avg # of iterations =  4.0

     negative rho (up, down):  3.162E-02 3.164E-02

     total cpu time spent up to now is     1037.8 secs

     total energy              =   -5539.45226659 Ry
     estimated scf accuracy    <          4.3E-09 Ry

     total magnetization       =     0.00 Bohr mag/cell
     absolute magnetization    =    17.02 Bohr mag/cell

     iteration # 18     ecut=    90.00 Ry     beta= 0.50
     Davidson diagonalization with overlap
     ethr =  3.04E-12,  avg # of iterations =  2.0

     negative rho (up, down):  3.162E-02 3.164E-02

     total cpu time spent up to now is     1080.2 secs

     total energy              =   -5539.45226659 Ry
     estimated scf accuracy    <          1.4E-09 Ry

     total magnetization       =     0.00 Bohr mag/cell
     absolute magnetization    =    17.02 Bohr mag/cell

     iteration # 19     ecut=    90.00 Ry     beta= 0.50
     Davidson diagonalization with overlap
     ethr =  9.89E-13,  avg # of iterations =  2.1

     negative rho (up, down):  3.162E-02 3.164E-02

     total cpu time spent up to now is     1124.9 secs

     total energy              =   -5539.45226659 Ry
     estimated scf accuracy    <          2.8E-10 Ry

     total magnetization       =     0.00 Bohr mag/cell
     absolute magnetization    =    17.02 Bohr mag/cell

     iteration # 20     ecut=    90.00 Ry     beta= 0.50
     Davidson diagonalization with overlap
     ethr =  1.98E-13,  avg # of iterations =  3.5

     negative rho (up, down):  3.162E-02 3.164E-02

     total cpu time spent up to now is     1179.6 secs

     total energy              =   -5539.45226659 Ry
     estimated scf accuracy    <          8.6E-11 Ry

     total magnetization       =    -0.00 Bohr mag/cell
     absolute magnetization    =    17.02 Bohr mag/cell

     iteration # 21     ecut=    90.00 Ry     beta= 0.50
     Davidson diagonalization with overlap
     ethr =  1.00E-13,  avg # of iterations =  2.1

     negative rho (up, down):  3.162E-02 3.164E-02

     total cpu time spent up to now is     1223.6 secs

     total energy              =   -5539.45226659 Ry
     estimated scf accuracy    <          4.4E-11 Ry

     total magnetization       =     0.00 Bohr mag/cell
     absolute magnetization    =    17.02 Bohr mag/cell

     iteration # 22     ecut=    90.00 Ry     beta= 0.50
     Davidson diagonalization with overlap
     ethr =  1.00E-13,  avg # of iterations =  1.0

     negative rho (up, down):  3.162E-02 3.164E-02

     Magnetic moment per site  (integrated on atomic sphere of radius R)
     atom   1 (R=0.162)  charge= 12.3761  magn=  3.3116
     atom   2 (R=0.162)  charge= 12.3761  magn=  3.3116
     atom   3 (R=0.162)  charge=  4.0483  magn= -0.1278
     atom   4 (R=0.162)  charge=  4.0493  magn= -0.1311
     atom   5 (R=0.162)  charge=  4.0493  magn= -0.1311
     atom   6 (R=0.162)  charge=  4.0508  magn= -0.1325
     atom   7 (R=0.162)  charge=  4.0507  magn= -0.1336
     atom   8 (R=0.162)  charge=  4.0507  magn= -0.1336
     atom   9 (R=0.162)  charge= 12.3760  magn= -3.3116
     atom  10 (R=0.162)  charge= 12.3760  magn= -3.3116
     atom  11 (R=0.162)  charge=  4.0507  magn=  0.1325
     atom  12 (R=0.162)  charge=  4.0506  magn=  0.1336
     atom  13 (R=0.162)  charge=  4.0506  magn=  0.1336
     atom  14 (R=0.162)  charge=  4.0482  magn=  0.1278
     atom  15 (R=0.162)  charge=  4.0493  magn=  0.1311
     atom  16 (R=0.162)  charge=  4.0493  magn=  0.1311

     total cpu time spent up to now is     1263.1 secs

     End of self-consistent calculation

     =================== HUBBARD OCCUPATIONS ===================
     ------------------------ ATOM    1 ------------------------
     Tr[ns(  1)] (up, down, total) =   3.76813  0.49670  4.26483
     Atomic magnetic moment for atom   1 =   3.27142
     SPIN  1
     eigenvalues:
       0.509  0.511  0.915  0.915  0.918
     eigenvectors (columns):
       0.002  0.000 -0.054 -0.011 -0.998
       0.464 -0.672  0.303  0.490 -0.021
      -0.673 -0.463 -0.489  0.306  0.022
      -0.326  0.476  0.430  0.694 -0.031
      -0.475 -0.327  0.694 -0.430 -0.034
     occupation matrix ns (before diag.):
       0.918 -0.000  0.001  0.000  0.001
      -0.000  0.645  0.001  0.191  0.001
       0.001  0.001  0.644  0.000 -0.191
       0.000  0.191  0.000  0.780  0.000
       0.001  0.001 -0.191  0.000  0.780
     SPIN  2
     eigenvalues:
       0.042  0.046  0.047  0.180  0.181
     eigenvectors (columns):
       0.999 -0.032 -0.028  0.003  0.000
      -0.000 -0.362  0.441  0.422 -0.705
      -0.022 -0.442 -0.360 -0.705 -0.420
       0.002 -0.520  0.635 -0.291  0.491
       0.036  0.634  0.521 -0.490 -0.293
     occupation matrix ns (before diag.):
       0.042  0.000 -0.000 -0.000 -0.000
       0.000  0.137  0.000 -0.063  0.000
      -0.000  0.000  0.137 -0.000  0.063
      -0.000 -0.063 -0.000  0.090 -0.000
      -0.000  0.000  0.063 -0.000  0.090
     ------------------------ ATOM    2 ------------------------
     Tr[ns(  2)] (up, down, total) =   3.76813  0.49670  4.26483
     Atomic magnetic moment for atom   2 =   3.27142
     SPIN  1
     eigenvalues:
       0.509  0.511  0.915  0.915  0.918
     eigenvectors (columns):
       0.002  0.000 -0.054 -0.011 -0.998
       0.464 -0.672  0.303  0.490 -0.021
       0.673  0.463  0.489 -0.306 -0.022
      -0.326  0.476  0.430  0.694 -0.031
       0.475  0.327 -0.694  0.430  0.034
     occupation matrix ns (before diag.):
       0.918 -0.000 -0.001  0.000 -0.001
      -0.000  0.645 -0.001  0.191 -0.001
      -0.001 -0.001  0.644 -0.000 -0.191
       0.000  0.191 -0.000  0.780 -0.000
      -0.001 -0.001 -0.191 -0.000  0.780
     SPIN  2
     eigenvalues:
       0.042  0.046  0.047  0.180  0.181
     eigenvectors (columns):
      -0.999 -0.032  0.028 -0.003 -0.000
       0.000 -0.362 -0.441 -0.422  0.705
      -0.022  0.442 -0.360 -0.705 -0.420
      -0.002 -0.520 -0.635  0.291 -0.491
       0.036 -0.634  0.521 -0.490 -0.293
     occupation matrix ns (before diag.):
       0.042  0.000  0.000 -0.000  0.000
       0.000  0.137 -0.000 -0.063 -0.000
       0.000 -0.000  0.137  0.000  0.063
      -0.000 -0.063  0.000  0.090  0.000
       0.000 -0.000  0.063  0.000  0.090
     ------------------------ ATOM    9 ------------------------
     Tr[ns(  9)] (up, down, total) =   0.49671  3.76813  4.26483
     Atomic magnetic moment for atom   9 =  -3.27142
     SPIN  1
     eigenvalues:
       0.042  0.046  0.047  0.180  0.181
     eigenvectors (columns):
      -0.999 -0.032  0.028 -0.003 -0.000
       0.000 -0.363 -0.441 -0.422  0.704
      -0.022  0.442 -0.361 -0.705 -0.421
      -0.002 -0.521 -0.635  0.291 -0.491
       0.036 -0.633  0.522 -0.490 -0.293
     occupation matrix ns (before diag.):
       0.042  0.000  0.000 -0.000  0.000
       0.000  0.137 -0.000 -0.063 -0.000
       0.000 -0.000  0.137  0.000  0.063
      -0.000 -0.063  0.000  0.090  0.000
       0.000 -0.000  0.063  0.000  0.090
     SPIN  2
     eigenvalues:
       0.509  0.511  0.915  0.915  0.918
     eigenvectors (columns):
       0.002  0.000 -0.054 -0.011 -0.998
       0.464 -0.672  0.306  0.489 -0.021
       0.673  0.463  0.487 -0.308 -0.022
      -0.326  0.476  0.433  0.692 -0.031
       0.475  0.327 -0.692  0.433  0.034
     occupation matrix ns (before diag.):
       0.918 -0.000 -0.001  0.000 -0.001
      -0.000  0.645 -0.001  0.191 -0.001
      -0.001 -0.001  0.644 -0.000 -0.191
       0.000  0.191 -0.000  0.780 -0.000
      -0.001 -0.001 -0.191 -0.000  0.780
     ------------------------ ATOM   10 ------------------------
     Tr[ns( 10)] (up, down, total) =   0.49671  3.76813  4.26483
     Atomic magnetic moment for atom  10 =  -3.27142
     SPIN  1
     eigenvalues:
       0.042  0.046  0.047  0.180  0.181
     eigenvectors (columns):
       0.999 -0.032 -0.028  0.003  0.000
      -0.000 -0.363  0.441  0.422 -0.704
      -0.022 -0.442 -0.361 -0.705 -0.421
       0.002 -0.521  0.635 -0.291  0.491
       0.036  0.633  0.522 -0.490 -0.293
     occupation matrix ns (before diag.):
       0.042  0.000 -0.000 -0.000 -0.000
       0.000  0.137  0.000 -0.063  0.000
      -0.000  0.000  0.137 -0.000  0.063
      -0.000 -0.063 -0.000  0.090 -0.000
      -0.000  0.000  0.063 -0.000  0.090
     SPIN  2
     eigenvalues:
       0.509  0.511  0.915  0.915  0.918
     eigenvectors (columns):
       0.002  0.000 -0.054 -0.011 -0.998
       0.464 -0.672  0.306  0.489 -0.021
      -0.673 -0.463 -0.487  0.308  0.022
      -0.326  0.476  0.433  0.692 -0.031
      -0.475 -0.327  0.692 -0.433 -0.034
     occupation matrix ns (before diag.):
       0.918 -0.000  0.001  0.000  0.001
      -0.000  0.645  0.001  0.191  0.001
       0.001  0.001  0.644  0.000 -0.191
       0.000  0.191  0.000  0.780  0.000
       0.001  0.001 -0.191  0.000  0.780

     Number of occupied Hubbard levels =   17.0593

 ------ SPIN UP ------------


          k = 0.0000 0.0000 0.0000 (109591 PWs)   bands (ev):

   -78.6500 -78.6489 -75.1806 -75.1796 -49.9856 -49.9843 -49.9828 -49.9823
   -49.9799 -49.9794 -46.5777 -46.5761 -46.5650 -46.5644 -46.5607 -46.5601
   -18.6249 -18.5109 -17.8325 -17.6521 -17.5358 -17.5311 -17.4304 -17.4274
   -17.3557 -17.3520 -17.2823 -17.2799 -10.5017 -10.2830 -10.0651  -9.7879
    -9.7851  -9.7682  -9.7640  -9.4255  -9.0200  -8.9883  -8.8431  -8.7970
    -8.7583  -8.7206  -8.7153  -8.6313  -8.6273  -8.5727  -8.2186  -8.1576
    -8.0135  -7.9088  -7.8239  -7.6072  -7.5383  -7.4273  -7.3631  -7.3295
    -7.3096  -7.2143  -7.1476  -7.0202  -6.9183  -6.3719  -6.3608  -6.2816
    -6.2808  -6.1452  -5.8811  -5.8795  -5.7062  -5.7044  -4.5711  -4.5588
    -4.0998  -4.0992  -2.2094  -2.2090  -2.1427  -2.1328  -2.0859  -1.9847
    -1.7610  -1.7605  -1.5807  -1.5773  -0.7907  -0.4802  -0.1338   0.0343
     0.0990   0.2161   0.7654   0.7690   0.9616   0.9837   1.3519   1.5200
     1.5753   1.6519   1.7907   1.9593

          k = 0.0000 0.1925 0.0000 (109722 PWs)   bands (ev):

   -78.6500 -78.6489 -75.1806 -75.1796 -49.9856 -49.9844 -49.9828 -49.9822
   -49.9801 -49.9793 -46.5776 -46.5761 -46.5651 -46.5641 -46.5610 -46.5600
   -18.5662 -18.4524 -17.7953 -17.6255 -17.6118 -17.5651 -17.5084 -17.4542
   -17.3642 -17.3603 -17.2900 -17.2888 -10.4709 -10.2359 -10.0388  -9.8907
    -9.8736  -9.6319  -9.6279  -9.4146  -9.0949  -9.0406  -8.8516  -8.8235
    -8.7887  -8.6982  -8.6517  -8.6167  -8.5963  -8.3115  -8.1498  -8.1101
    -8.0494  -7.9172  -7.7326  -7.6379  -7.5853  -7.3889  -7.3418  -7.3021
    -7.2356  -7.1725  -7.0436  -6.9739  -6.8252  -6.4665  -6.3969  -6.3629
    -6.3290  -6.2279  -6.1172  -5.9713  -5.9372  -5.7662  -4.5629  -4.5291
    -4.2823  -4.1449  -2.2324  -2.1950  -2.1680  -2.1328  -2.0116  -1.9511
    -1.7530  -1.7362  -1.6861  -1.6356  -0.7471  -0.1791   0.0334   0.2957
     0.4049   0.4900   0.6056   0.6319   0.9140   1.1121   1.3115   1.4054
     1.6467   1.6884   1.8210   1.9006

          k = 0.0000 0.3849 0.0000 (109616 PWs)   bands (ev):

   -78.6500 -78.6489 -75.1806 -75.1796 -49.9855 -49.9844 -49.9827 -49.9819
   -49.9805 -49.9792 -46.5775 -46.5762 -46.5652 -46.5635 -46.5616 -46.5599
   -18.4058 -18.2931 -17.8193 -17.7140 -17.6976 -17.6148 -17.5386 -17.4955
   -17.4209 -17.3773 -17.3302 -17.3094 -10.4752 -10.0982  -9.9616  -9.9169
    -9.7631  -9.5549  -9.4753  -9.3595  -9.2283  -9.0064  -8.9599  -8.8407
    -8.8147  -8.7240  -8.5594  -8.5197  -8.4796  -8.2826  -8.1364  -8.1180
    -7.8430  -7.8191  -7.7244  -7.6448  -7.4623  -7.3898  -7.3415  -7.2339
    -7.1541  -7.0954  -7.0106  -6.9041  -6.8074  -6.7097  -6.4920  -6.4816
    -6.4424  -6.3701  -6.3194  -6.1444  -6.0034  -5.8357  -4.5374  -4.4653
    -4.4016  -4.2963  -2.2865  -2.2109  -2.2042  -2.1207  -2.0362  -1.8519
    -1.8246  -1.7486  -1.7131  -1.6489  -0.9318  -0.1937   0.0407   0.4945
     0.5398   0.7128   0.7984   0.9953   1.0059   1.0841   1.1695   1.2328
     1.4001   1.4817   1.5487   1.6922

          k = 0.0000-0.5774 0.0000 (109602 PWs)   bands (ev):

   -78.6500 -78.6489 -75.1806 -75.1796 -49.9855 -49.9845 -49.9828 -49.9816
   -49.9809 -49.9791 -46.5774 -46.5763 -46.5653 -46.5629 -46.5622 -46.5598
   -18.2547 -18.1439 -17.9914 -17.8801 -17.6393 -17.6124 -17.5178 -17.4855
   -17.4619 -17.4056 -17.3711 -17.3202 -10.5078  -9.9797  -9.9322  -9.9162
    -9.6305  -9.4669  -9.3701  -9.2995  -9.2284  -9.1446  -9.0955  -8.8612
    -8.7001  -8.6204  -8.5973  -8.5527  -8.4501  -8.3324  -8.1638  -8.1543
    -7.8616  -7.6946  -7.6651  -7.5859  -7.4785  -7.4676  -7.3675  -7.3573
    -7.2667  -6.9656  -6.9185  -6.8899  -6.7759  -6.6397  -6.6088  -6.5729
    -6.4214  -6.4106  -6.3422  -6.1286  -6.0800  -5.7775  -4.4988  -4.4649
    -4.4241  -4.3226  -2.3811  -2.2338  -2.1923  -2.1367  -1.9760  -1.9718
    -1.8641  -1.6694  -1.6648  -1.6498  -1.1798  -0.3768   0.0557   0.1337
     0.5031   0.6994   0.8382   0.8673   1.0077   1.2046   1.2422   1.3775
     1.4491   1.4801   1.5536   1.5702

          k = 0.1667 0.2887 0.0000 (109615 PWs)   bands (ev):

   -78.6500 -78.6489 -75.1806 -75.1796 -49.9856 -49.9844 -49.9827 -49.9821
   -49.9802 -49.9793 -46.5775 -46.5762 -46.5652 -46.5637 -46.5614 -46.5599
   -18.4549 -18.3425 -17.7442 -17.7285 -17.6493 -17.6116 -17.5639 -17.5041
   -17.3994 -17.3702 -17.3143 -17.3004 -10.4031 -10.1873 -10.0173  -9.9338
    -9.7258  -9.6145  -9.4962  -9.4081  -9.1573  -9.0786  -8.9131  -8.8676
    -8.7798  -8.6722  -8.6219  -8.5439  -8.5188  -8.2849  -8.0554  -8.0422
    -8.0117  -7.8815  -7.7257  -7.6529  -7.5280  -7.4033  -7.2733  -7.2131
    -7.1474  -7.0706  -7.0121  -6.9424  -6.8716  -6.5729  -6.5129  -6.4572
    -6.3864  -6.3345  -6.2901  -6.1113  -5.9822  -5.8649  -4.5456  -4.4795
    -4.4528  -4.1714  -2.2325  -2.2041  -2.1784  -2.1302  -2.1040  -1.8303
    -1.7927  -1.7530  -1.6936  -1.6733  -0.7614  -0.3167   0.0701   0.3370
     0.4801   0.6297   0.7543   0.8644   1.0804   1.1140   1.2170   1.3324
     1.4774   1.5682   1.6341   1.6558

          k = 0.1667 0.4811 0.0000 (109606 PWs)   bands (ev):

   -78.6500 -78.6490 -75.1806 -75.1796 -49.9855 -49.9845 -49.9827 -49.9817
   -49.9807 -49.9792 -46.5774 -46.5763 -46.5653 -46.5629 -46.5621 -46.5598
   -18.2708 -18.1601 -17.9408 -17.8410 -17.6763 -17.6233 -17.5547 -17.4792
   -17.4661 -17.3978 -17.3566 -17.3193 -10.3709 -10.0664  -9.9602  -9.8180
    -9.6334  -9.5900  -9.3916  -9.3521  -9.1820  -9.0736  -8.9724  -8.8910
    -8.8457  -8.7021  -8.5653  -8.5046  -8.4898  -8.3808  -8.2963  -8.0503
    -7.8710  -7.8400  -7.7068  -7.5885  -7.5210  -7.4051  -7.3294  -7.1901
    -7.1306  -7.0162  -6.9660  -6.8343  -6.7732  -6.6782  -6.5966  -6.5390
    -6.4292  -6.3512  -6.2874  -6.1775  -6.0305  -5.8450  -4.5105  -4.4579
    -4.4033  -4.2265  -2.3045  -2.2132  -2.1903  -2.1687  -2.0645  -1.9459
    -1.8615  -1.7002  -1.6309  -1.6241  -1.0131  -0.4868  -0.2755   0.1653
     0.3092   0.5412   0.6301   0.7438   0.9097   1.0113   1.0704   1.1951
     1.2268   1.3478   1.5057   1.6008

          k = 0.3333 0.5774 0.0000 (109542 PWs)   bands (ev):

   -78.6500 -78.6490 -75.1806 -75.1795 -49.9855 -49.9844 -49.9828 -49.9816
   -49.9808 -49.9793 -46.5774 -46.5763 -46.5652 -46.5631 -46.5620 -46.5598
   -18.1009 -18.0863 -17.9937 -17.9882 -17.7287 -17.6070 -17.5413 -17.5257
   -17.4348 -17.4103 -17.3743 -17.3315 -10.1227 -10.0706 -10.0666  -9.6798
    -9.6643  -9.5270  -9.5163  -9.2196  -9.2055  -9.0222  -8.9461  -8.9168
    -8.9159  -8.7410  -8.6441  -8.6352  -8.4520  -8.3228  -8.2971  -8.2682
    -7.9406  -7.8721  -7.8709  -7.5726  -7.5186  -7.1678  -7.1611  -7.1515
    -7.0423  -7.0326  -6.9262  -6.9148  -6.7357  -6.6547  -6.6530  -6.5700
    -6.3862  -6.3284  -6.2330  -6.2257  -5.9655  -5.8958  -4.5174  -4.3923
    -4.3897  -4.1415  -2.2526  -2.2506  -2.1849  -2.1552  -2.0860  -2.0844
    -1.8427  -1.6372  -1.6039  -1.6035  -0.9164  -0.8848  -0.2858  -0.2469
     0.2116   0.3157   0.3588   0.5577   0.6732   0.7344   0.9451   1.0197
     1.1029   1.2442   1.4106   1.4119

          k =-0.1667 0.0962 0.0000 (109722 PWs)   bands (ev):

   -78.6500 -78.6489 -75.1806 -75.1796 -49.9856 -49.9843 -49.9828 -49.9822
   -49.9800 -49.9793 -46.5776 -46.5761 -46.5649 -46.5644 -46.5607 -46.5601
   -18.5658 -18.4523 -17.7952 -17.6270 -17.6147 -17.5614 -17.5109 -17.4522
   -17.3670 -17.3574 -17.2901 -17.2882 -10.4731 -10.2354 -10.0300  -9.8889
    -9.8810  -9.6354  -9.6247  -9.4171  -9.0935  -9.0259  -8.9052  -8.8076
    -8.7370  -8.7224  -8.6548  -8.6164  -8.5927  -8.3084  -8.1721  -8.1221
    -8.0279  -7.9019  -7.7463  -7.6211  -7.5986  -7.4227  -7.3565  -7.2525
    -7.2328  -7.1902  -7.0254  -6.9813  -6.7976  -6.4893  -6.4411  -6.3453
    -6.2909  -6.2544  -6.1095  -5.9697  -5.9301  -5.7705  -4.5577  -4.5335
    -4.2822  -4.1448  -2.2337  -2.1958  -2.1652  -2.1356  -2.0090  -1.9546
    -1.7537  -1.7359  -1.6833  -1.6361  -0.7561  -0.1659   0.0582   0.2948
     0.3688   0.5092   0.5877   0.6051   0.9606   1.1401   1.2228   1.4333
     1.6094   1.7308   1.8579   1.9126

          k =-0.3333 0.1925 0.0000 (109616 PWs)   bands (ev):

   -78.6500 -78.6489 -75.1806 -75.1796 -49.9856 -49.9844 -49.9828 -49.9819
   -49.9804 -49.9793 -46.5775 -46.5762 -46.5648 -46.5642 -46.5610 -46.5601
   -18.4028 -18.2938 -17.8255 -17.7199 -17.6905 -17.6132 -17.5420 -17.4930
   -17.4226 -17.3734 -17.3317 -17.3082 -10.4770 -10.0963  -9.9614  -9.9132
    -9.7600  -9.5634  -9.4650  -9.3689  -9.2251  -8.9987  -8.9679  -8.8667
    -8.8131  -8.6857  -8.5542  -8.5332  -8.4731  -8.2975  -8.1362  -8.1209
    -7.8339  -7.8175  -7.7272  -7.6596  -7.4877  -7.3852  -7.3006  -7.2749
    -7.1458  -7.0732  -7.0158  -6.9057  -6.7677  -6.7079  -6.5727  -6.4784
    -6.4402  -6.3361  -6.3078  -6.1124  -6.0018  -5.8788  -4.5378  -4.4575
    -4.4019  -4.2953  -2.2884  -2.2122  -2.2041  -2.1188  -2.0349  -1.8489
    -1.8219  -1.7526  -1.7153  -1.6484  -0.9561  -0.1527   0.0138   0.4308
     0.5722   0.7339   0.8447   0.9836   1.0300   1.1027   1.1313   1.2624
     1.3898   1.4267   1.5784   1.6664

          k = 0.5000-0.2887 0.0000 (109602 PWs)   bands (ev):

   -78.6500 -78.6489 -75.1806 -75.1796 -49.9856 -49.9844 -49.9828 -49.9817
   -49.9807 -49.9793 -46.5774 -46.5763 -46.5649 -46.5640 -46.5611 -46.5601
   -18.2391 -18.1578 -17.9918 -17.8871 -17.6382 -17.6029 -17.5180 -17.5109
   -17.4432 -17.3967 -17.3795 -17.3188 -10.5084  -9.9757  -9.9484  -9.8970
    -9.6411  -9.4532  -9.3647  -9.2983  -9.2294  -9.1605  -9.0961  -8.8966
    -8.6366  -8.6161  -8.5758  -8.5443  -8.4494  -8.4058  -8.1652  -8.1522
    -7.8533  -7.7112  -7.6415  -7.6081  -7.4834  -7.4191  -7.3960  -7.3380
    -7.2973  -7.0138  -6.9246  -6.7866  -6.7604  -6.6861  -6.6200  -6.5840
    -6.4814  -6.3659  -6.2910  -6.1337  -6.0044  -5.8754  -4.5045  -4.4531
    -4.4205  -4.3176  -2.3827  -2.2335  -2.1920  -2.1355  -1.9743  -1.9681
    -1.8631  -1.6710  -1.6659  -1.6504  -1.2070  -0.3709   0.0662   0.1064
     0.5131   0.7422   0.8308   0.8964   0.9481   1.2122   1.3002   1.3569
     1.4390   1.4526   1.5532   1.6213

          k = 0.3333 0.0000 0.0000 (109615 PWs)   bands (ev):

   -78.6500 -78.6489 -75.1806 -75.1796 -49.9856 -49.9844 -49.9827 -49.9821
   -49.9801 -49.9794 -46.5775 -46.5762 -46.5649 -46.5642 -46.5610 -46.5600
   -18.4536 -18.3425 -17.7513 -17.7281 -17.6390 -17.6205 -17.5639 -17.4997
   -17.4051 -17.3649 -17.3148 -17.3000 -10.4076 -10.1867 -10.0047  -9.9363
    -9.7279  -9.6156  -9.4997  -9.4100  -9.1536  -9.0701  -8.9057  -8.8848
    -8.7813  -8.6810  -8.6127  -8.5454  -8.4916  -8.3141  -8.0556  -8.0391
    -8.0249  -7.8812  -7.7180  -7.6129  -7.5617  -7.4591  -7.2538  -7.1463
    -7.1359  -7.0839  -7.0373  -6.9434  -6.8554  -6.5957  -6.5022  -6.4965
    -6.3819  -6.3179  -6.2635  -6.1041  -5.9985  -5.8728  -4.5453  -4.4821
    -4.4462  -4.1711  -2.2341  -2.2073  -2.1767  -2.1299  -2.1049  -1.8307
    -1.7851  -1.7540  -1.6954  -1.6729  -0.7899  -0.2604   0.0308   0.3195
     0.4523   0.6775   0.7918   0.8504   1.0088   1.1328   1.1921   1.3720
     1.5268   1.5662   1.6003   1.7604

          k =-0.3333 0.3849 0.0000 (109606 PWs)   bands (ev):

   -78.6500 -78.6490 -75.1806 -75.1796 -49.9856 -49.9844 -49.9828 -49.9816
   -49.9807 -49.9792 -46.5774 -46.5763 -46.5650 -46.5637 -46.5614 -46.5599
   -18.2653 -18.1637 -17.9444 -17.8426 -17.6759 -17.6197 -17.5529 -17.4959
   -17.4539 -17.3937 -17.3600 -17.3182 -10.3720 -10.0626  -9.9602  -9.8239
    -9.6341  -9.5785  -9.3891  -9.3538  -9.1888  -9.0798  -8.9711  -8.9042
    -8.8510  -8.6468  -8.5794  -8.4975  -8.4911  -8.4200  -8.2782  -8.0571
    -7.8813  -7.8316  -7.7020  -7.6030  -7.4997  -7.3980  -7.3340  -7.2344
    -7.1228  -7.0361  -6.8910  -6.8430  -6.7945  -6.6760  -6.5896  -6.5326
    -6.4761  -6.3177  -6.2957  -6.1523  -5.9749  -5.9229  -4.5116  -4.4535
    -4.4010  -4.2250  -2.3057  -2.2123  -2.1900  -2.1678  -2.0633  -1.9458
    -1.8601  -1.7002  -1.6336  -1.6239  -1.0356  -0.4696  -0.2771   0.1690
     0.2823   0.5575   0.6763   0.7429   0.8937   0.9906   1.0464   1.2055
     1.2303   1.3943   1.4434   1.5508

          k = 0.5000 0.0962 0.0000 (109606 PWs)   bands (ev):

   -78.6500 -78.6490 -75.1806 -75.1796 -49.9856 -49.9844 -49.9827 -49.9820
   -49.9803 -49.9794 -46.5774 -46.5763 -46.5651 -46.5635 -46.5616 -46.5599
   -18.2636 -18.1628 -17.9511 -17.8386 -17.6774 -17.6211 -17.5469 -17.4944
   -17.4646 -17.3792 -17.3686 -17.3179 -10.3730 -10.0684  -9.9540  -9.8156
    -9.6363  -9.5870  -9.3879  -9.3525  -9.1784  -9.0863  -8.9767  -8.9058
    -8.8412  -8.6494  -8.5758  -8.5037  -8.4879  -8.4185  -8.2902  -8.0559
    -7.8925  -7.8083  -7.7133  -7.6082  -7.4666  -7.4239  -7.3589  -7.1956
    -7.1266  -7.0405  -6.9202  -6.8179  -6.7647  -6.6838  -6.6426  -6.5275
    -6.4470  -6.3579  -6.2232  -6.1533  -6.0154  -5.9186  -4.5075  -4.4536
    -4.4021  -4.2238  -2.3064  -2.2125  -2.1897  -2.1693  -2.0634  -1.9444
    -1.8569  -1.6990  -1.6332  -1.6253  -1.0435  -0.4661  -0.2757   0.1188
     0.2976   0.5811   0.6872   0.7872   0.8707   0.9699   1.0136   1.1574
     1.3196   1.4332   1.5043   1.5334

 ------ SPIN DOWN ----------


          k = 0.0000 0.0000 0.0000 (109591 PWs)   bands (ev):

   -78.6500 -78.6489 -75.1806 -75.1796 -49.9856 -49.9843 -49.9828 -49.9822
   -49.9799 -49.9794 -46.5777 -46.5761 -46.5650 -46.5644 -46.5607 -46.5601
   -18.6249 -18.5109 -17.8325 -17.6521 -17.5358 -17.5311 -17.4303 -17.4274
   -17.3557 -17.3520 -17.2823 -17.2800 -10.5017 -10.2830 -10.0651  -9.7879
    -9.7851  -9.7682  -9.7639  -9.4255  -9.0200  -8.9883  -8.8431  -8.7970
    -8.7583  -8.7206  -8.7153  -8.6313  -8.6273  -8.5727  -8.2186  -8.1576
    -8.0135  -7.9088  -7.8239  -7.6072  -7.5383  -7.4273  -7.3630  -7.3295
    -7.3096  -7.2143  -7.1476  -7.0202  -6.9183  -6.3719  -6.3608  -6.2816
    -6.2808  -6.1452  -5.8811  -5.8795  -5.7062  -5.7044  -4.5711  -4.5588
    -4.0998  -4.0992  -2.2094  -2.2090  -2.1427  -2.1328  -2.0859  -1.9847
    -1.7610  -1.7605  -1.5807  -1.5773  -0.7907  -0.4802  -0.1338   0.0343
     0.0989   0.2161   0.7654   0.7690   0.9616   0.9836   1.3519   1.5200
     1.5753   1.6519   1.7906   1.9593

          k = 0.0000 0.1925 0.0000 (109722 PWs)   bands (ev):

   -78.6500 -78.6489 -75.1806 -75.1796 -49.9856 -49.9843 -49.9827 -49.9822
   -49.9801 -49.9793 -46.5776 -46.5761 -46.5651 -46.5641 -46.5610 -46.5600
   -18.5662 -18.4524 -17.7953 -17.6255 -17.6118 -17.5651 -17.5084 -17.4542
   -17.3642 -17.3603 -17.2900 -17.2888 -10.4709 -10.2359 -10.0388  -9.8907
    -9.8736  -9.6319  -9.6279  -9.4146  -9.0949  -9.0406  -8.8516  -8.8235
    -8.7887  -8.6982  -8.6517  -8.6167  -8.5962  -8.3115  -8.1498  -8.1101
    -8.0494  -7.9172  -7.7326  -7.6379  -7.5853  -7.3889  -7.3417  -7.3021
    -7.2357  -7.1725  -7.0436  -6.9739  -6.8252  -6.4665  -6.3969  -6.3629
    -6.3290  -6.2279  -6.1172  -5.9713  -5.9372  -5.7661  -4.5629  -4.5291
    -4.2823  -4.1449  -2.2325  -2.1950  -2.1680  -2.1328  -2.0116  -1.9511
    -1.7530  -1.7362  -1.6861  -1.6356  -0.7471  -0.1791   0.0334   0.2957
     0.4048   0.4900   0.6056   0.6319   0.9140   1.1121   1.3115   1.4054
     1.6467   1.6884   1.8210   1.9006

          k = 0.0000 0.3849 0.0000 (109616 PWs)   bands (ev):

   -78.6500 -78.6489 -75.1806 -75.1796 -49.9855 -49.9844 -49.9827 -49.9819
   -49.9805 -49.9792 -46.5775 -46.5763 -46.5653 -46.5635 -46.5616 -46.5599
   -18.4058 -18.2930 -17.8193 -17.7140 -17.6976 -17.6148 -17.5386 -17.4955
   -17.4209 -17.3773 -17.3303 -17.3093 -10.4752 -10.0982  -9.9616  -9.9169
    -9.7631  -9.5549  -9.4753  -9.3595  -9.2283  -9.0064  -8.9599  -8.8407
    -8.8147  -8.7240  -8.5594  -8.5197  -8.4796  -8.2826  -8.1364  -8.1180
    -7.8430  -7.8191  -7.7244  -7.6448  -7.4622  -7.3898  -7.3415  -7.2339
    -7.1541  -7.0954  -7.0106  -6.9041  -6.8074  -6.7097  -6.4920  -6.4816
    -6.4424  -6.3701  -6.3194  -6.1444  -6.0034  -5.8357  -4.5374  -4.4652
    -4.4016  -4.2963  -2.2865  -2.2109  -2.2043  -2.1207  -2.0362  -1.8519
    -1.8246  -1.7486  -1.7131  -1.6489  -0.9318  -0.1937   0.0407   0.4945
     0.5398   0.7128   0.7984   0.9952   1.0059   1.0841   1.1696   1.2328
     1.4001   1.4817   1.5487   1.6922

          k = 0.0000-0.5774 0.0000 (109602 PWs)   bands (ev):

   -78.6500 -78.6489 -75.1806 -75.1796 -49.9855 -49.9845 -49.9827 -49.9816
   -49.9809 -49.9791 -46.5774 -46.5763 -46.5653 -46.5629 -46.5622 -46.5598
   -18.2547 -18.1439 -17.9914 -17.8801 -17.6393 -17.6124 -17.5178 -17.4855
   -17.4619 -17.4056 -17.3711 -17.3202 -10.5079  -9.9797  -9.9322  -9.9162
    -9.6305  -9.4670  -9.3701  -9.2995  -9.2284  -9.1446  -9.0955  -8.8612
    -8.7001  -8.6204  -8.5973  -8.5527  -8.4501  -8.3324  -8.1638  -8.1543
    -7.8616  -7.6945  -7.6651  -7.5859  -7.4785  -7.4676  -7.3675  -7.3573
    -7.2667  -6.9656  -6.9185  -6.8899  -6.7759  -6.6396  -6.6088  -6.5729
    -6.4214  -6.4106  -6.3422  -6.1286  -6.0800  -5.7774  -4.4988  -4.4648
    -4.4241  -4.3226  -2.3810  -2.2338  -2.1923  -2.1367  -1.9760  -1.9718
    -1.8642  -1.6694  -1.6648  -1.6498  -1.1797  -0.3768   0.0557   0.1337
     0.5031   0.6994   0.8382   0.8673   1.0077   1.2046   1.2422   1.3775
     1.4490   1.4801   1.5536   1.5702

          k = 0.1667 0.2887 0.0000 (109615 PWs)   bands (ev):

   -78.6500 -78.6489 -75.1806 -75.1796 -49.9856 -49.9844 -49.9828 -49.9819
   -49.9804 -49.9792 -46.5775 -46.5762 -46.5651 -46.5639 -46.5612 -46.5600
   -18.4549 -18.3425 -17.7442 -17.7285 -17.6493 -17.6116 -17.5639 -17.5041
   -17.3994 -17.3702 -17.3143 -17.3004 -10.4031 -10.1873 -10.0173  -9.9338
    -9.7258  -9.6145  -9.4962  -9.4081  -9.1574  -9.0786  -8.9131  -8.8676
    -8.7799  -8.6721  -8.6219  -8.5439  -8.5189  -8.2849  -8.0554  -8.0422
    -8.0117  -7.8815  -7.7257  -7.6528  -7.5279  -7.4032  -7.2733  -7.2131
    -7.1474  -7.0706  -7.0121  -6.9424  -6.8716  -6.5730  -6.5129  -6.4572
    -6.3864  -6.3345  -6.2901  -6.1113  -5.9822  -5.8649  -4.5456  -4.4795
    -4.4528  -4.1714  -2.2325  -2.2042  -2.1784  -2.1302  -2.1040  -1.8303
    -1.7927  -1.7530  -1.6936  -1.6733  -0.7614  -0.3166   0.0701   0.3370
     0.4800   0.6297   0.7543   0.8644   1.0804   1.1140   1.2169   1.3324
     1.4774   1.5682   1.6341   1.6559

          k = 0.1667 0.4811 0.0000 (109606 PWs)   bands (ev):

   -78.6500 -78.6489 -75.1806 -75.1796 -49.9855 -49.9844 -49.9828 -49.9816
   -49.9809 -49.9792 -46.5774 -46.5763 -46.5652 -46.5632 -46.5619 -46.5598
   -18.2708 -18.1601 -17.9408 -17.8410 -17.6763 -17.6233 -17.5547 -17.4792
   -17.4661 -17.3978 -17.3566 -17.3193 -10.3709 -10.0664  -9.9602  -9.8180
    -9.6334  -9.5900  -9.3916  -9.3521  -9.1820  -9.0736  -8.9724  -8.8911
    -8.8456  -8.7022  -8.5652  -8.5046  -8.4898  -8.3808  -8.2963  -8.0502
    -7.8710  -7.8399  -7.7068  -7.5886  -7.5210  -7.4052  -7.3294  -7.1901
    -7.1306  -7.0162  -6.9660  -6.8343  -6.7732  -6.6782  -6.5966  -6.5390
    -6.4292  -6.3511  -6.2874  -6.1776  -6.0305  -5.8450  -4.5105  -4.4579
    -4.4033  -4.2265  -2.3045  -2.2133  -2.1903  -2.1688  -2.0645  -1.9459
    -1.8616  -1.7002  -1.6309  -1.6241  -1.0131  -0.4867  -0.2755   0.1653
     0.3092   0.5412   0.6301   0.7438   0.9097   1.0114   1.0703   1.1950
     1.2268   1.3477   1.5056   1.6008

          k = 0.3333 0.5774 0.0000 (109542 PWs)   bands (ev):

   -78.6500 -78.6490 -75.1806 -75.1796 -49.9855 -49.9844 -49.9827 -49.9816
   -49.9808 -49.9792 -46.5774 -46.5763 -46.5652 -46.5631 -46.5620 -46.5598
   -18.1009 -18.0863 -17.9937 -17.9882 -17.7287 -17.6070 -17.5413 -17.5257
   -17.4348 -17.4103 -17.3743 -17.3315 -10.1227 -10.0706 -10.0666  -9.6798
    -9.6643  -9.5270  -9.5163  -9.2196  -9.2055  -9.0222  -8.9461  -8.9168
    -8.9159  -8.7410  -8.6441  -8.6352  -8.4520  -8.3228  -8.2971  -8.2682
    -7.9406  -7.8720  -7.8709  -7.5726  -7.5186  -7.1678  -7.1611  -7.1515
    -7.0423  -7.0326  -6.9262  -6.9148  -6.7357  -6.6547  -6.6530  -6.5700
    -6.3862  -6.3284  -6.2330  -6.2257  -5.9655  -5.8958  -4.5174  -4.3923
    -4.3897  -4.1414  -2.2526  -2.2506  -2.1849  -2.1552  -2.0860  -2.0844
    -1.8427  -1.6372  -1.6039  -1.6035  -0.9164  -0.8848  -0.2858  -0.2470
     0.2116   0.3157   0.3588   0.5577   0.6732   0.7344   0.9451   1.0197
     1.1029   1.2442   1.4106   1.4119

          k =-0.1667 0.0962 0.0000 (109722 PWs)   bands (ev):

   -78.6500 -78.6489 -75.1806 -75.1796 -49.9856 -49.9843 -49.9827 -49.9822
   -49.9799 -49.9794 -46.5776 -46.5761 -46.5650 -46.5642 -46.5609 -46.5600
   -18.5658 -18.4523 -17.7952 -17.6270 -17.6147 -17.5614 -17.5109 -17.4522
   -17.3670 -17.3574 -17.2901 -17.2882 -10.4731 -10.2354 -10.0300  -9.8889
    -9.8810  -9.6354  -9.6247  -9.4171  -9.0935  -9.0259  -8.9052  -8.8076
    -8.7370  -8.7224  -8.6548  -8.6163  -8.5927  -8.3084  -8.1721  -8.1221
    -8.0278  -7.9019  -7.7463  -7.6211  -7.5986  -7.4227  -7.3565  -7.2525
    -7.2328  -7.1902  -7.0254  -6.9813  -6.7976  -6.4893  -6.4411  -6.3453
    -6.2909  -6.2544  -6.1095  -5.9697  -5.9301  -5.7705  -4.5577  -4.5335
    -4.2822  -4.1448  -2.2337  -2.1958  -2.1653  -2.1356  -2.0090  -1.9546
    -1.7537  -1.7359  -1.6833  -1.6361  -0.7561  -0.1659   0.0582   0.2948
     0.3688   0.5092   0.5877   0.6051   0.9606   1.1401   1.2228   1.4333
     1.6094   1.7307   1.8578   1.9126

          k =-0.3333 0.1925 0.0000 (109616 PWs)   bands (ev):

   -78.6500 -78.6489 -75.1806 -75.1796 -49.9856 -49.9844 -49.9826 -49.9822
   -49.9800 -49.9795 -46.5775 -46.5762 -46.5651 -46.5638 -46.5614 -46.5599
   -18.4028 -18.2938 -17.8255 -17.7200 -17.6905 -17.6132 -17.5420 -17.4930
   -17.4226 -17.3734 -17.3317 -17.3082 -10.4770 -10.0963  -9.9614  -9.9132
    -9.7600  -9.5634  -9.4650  -9.3689  -9.2251  -8.9988  -8.9679  -8.8667
    -8.8131  -8.6857  -8.5541  -8.5332  -8.4730  -8.2975  -8.1362  -8.1209
    -7.8339  -7.8175  -7.7272  -7.6596  -7.4878  -7.3852  -7.3006  -7.2749
    -7.1458  -7.0732  -7.0158  -6.9057  -6.7677  -6.7079  -6.5727  -6.4785
    -6.4402  -6.3361  -6.3078  -6.1124  -6.0018  -5.8788  -4.5378  -4.4576
    -4.4018  -4.2953  -2.2885  -2.2122  -2.2041  -2.1188  -2.0349  -1.8489
    -1.8219  -1.7526  -1.7153  -1.6484  -0.9561  -0.1527   0.0138   0.4308
     0.5722   0.7339   0.8447   0.9836   1.0300   1.1027   1.1313   1.2624
     1.3898   1.4267   1.5784   1.6664

          k = 0.5000-0.2887 0.0000 (109602 PWs)   bands (ev):

   -78.6500 -78.6489 -75.1806 -75.1796 -49.9855 -49.9844 -49.9826 -49.9822
   -49.9801 -49.9795 -46.5774 -46.5763 -46.5652 -46.5634 -46.5617 -46.5598
   -18.2391 -18.1578 -17.9918 -17.8871 -17.6382 -17.6030 -17.5180 -17.5109
   -17.4432 -17.3967 -17.3795 -17.3188 -10.5085  -9.9757  -9.9484  -9.8970
    -9.6412  -9.4531  -9.3647  -9.2983  -9.2294  -9.1605  -9.0961  -8.8967
    -8.6366  -8.6161  -8.5758  -8.5443  -8.4494  -8.4059  -8.1652  -8.1522
    -7.8533  -7.7112  -7.6415  -7.6081  -7.4835  -7.4191  -7.3960  -7.3380
    -7.2973  -7.0139  -6.9246  -6.7866  -6.7603  -6.6861  -6.6200  -6.5840
    -6.4814  -6.3660  -6.2910  -6.1337  -6.0044  -5.8754  -4.5044  -4.4531
    -4.4205  -4.3175  -2.3828  -2.2335  -2.1920  -2.1355  -1.9743  -1.9681
    -1.8631  -1.6709  -1.6659  -1.6505  -1.2070  -0.3709   0.0662   0.1064
     0.5131   0.7421   0.8307   0.8964   0.9481   1.2122   1.3002   1.3569
     1.4390   1.4527   1.5532   1.6213

          k = 0.3333 0.0000 0.0000 (109615 PWs)   bands (ev):

   -78.6500 -78.6489 -75.1806 -75.1796 -49.9856 -49.9843 -49.9827 -49.9821
   -49.9801 -49.9794 -46.5775 -46.5762 -46.5649 -46.5642 -46.5610 -46.5600
   -18.4536 -18.3425 -17.7513 -17.7281 -17.6390 -17.6205 -17.5639 -17.4997
   -17.4051 -17.3649 -17.3148 -17.3000 -10.4076 -10.1867 -10.0047  -9.9363
    -9.7278  -9.6156  -9.4997  -9.4100  -9.1536  -9.0700  -8.9057  -8.8848
    -8.7813  -8.6810  -8.6127  -8.5454  -8.4916  -8.3141  -8.0556  -8.0391
    -8.0249  -7.8812  -7.7180  -7.6129  -7.5618  -7.4591  -7.2538  -7.1463
    -7.1359  -7.0839  -7.0373  -6.9434  -6.8554  -6.5957  -6.5022  -6.4965
    -6.3819  -6.3179  -6.2635  -6.1041  -5.9985  -5.8728  -4.5453  -4.4821
    -4.4462  -4.1711  -2.2341  -2.2074  -2.1767  -2.1299  -2.1049  -1.8307
    -1.7851  -1.7540  -1.6954  -1.6729  -0.7899  -0.2604   0.0307   0.3195
     0.4523   0.6775   0.7918   0.8503   1.0088   1.1328   1.1921   1.3720
     1.5268   1.5662   1.6003   1.7604

          k =-0.3333 0.3849 0.0000 (109606 PWs)   bands (ev):

   -78.6500 -78.6489 -75.1806 -75.1796 -49.9855 -49.9844 -49.9827 -49.9820
   -49.9803 -49.9794 -46.5774 -46.5763 -46.5652 -46.5632 -46.5619 -46.5598
   -18.2653 -18.1637 -17.9444 -17.8426 -17.6759 -17.6197 -17.5529 -17.4959
   -17.4539 -17.3937 -17.3600 -17.3182 -10.3720 -10.0626  -9.9602  -9.8239
    -9.6342  -9.5784  -9.3891  -9.3538  -9.1888  -9.0798  -8.9711  -8.9042
    -8.8509  -8.6469  -8.5793  -8.4974  -8.4911  -8.4200  -8.2782  -8.0572
    -7.8814  -7.8315  -7.7019  -7.6029  -7.4998  -7.3979  -7.3339  -7.2344
    -7.1228  -7.0361  -6.8910  -6.8430  -6.7945  -6.6760  -6.5896  -6.5326
    -6.4761  -6.3177  -6.2957  -6.1523  -5.9749  -5.9229  -4.5115  -4.4536
    -4.4009  -4.2250  -2.3057  -2.2123  -2.1900  -2.1678  -2.0633  -1.9458
    -1.8601  -1.7002  -1.6337  -1.6239  -1.0356  -0.4696  -0.2771   0.1690
     0.2823   0.5575   0.6762   0.7429   0.8937   0.9906   1.0464   1.2056
     1.2303   1.3943   1.4433   1.5508

          k = 0.5000 0.0962 0.0000 (109606 PWs)   bands (ev):

   -78.6500 -78.6489 -75.1806 -75.1796 -49.9856 -49.9844 -49.9828 -49.9818
   -49.9805 -49.9793 -46.5774 -46.5763 -46.5650 -46.5638 -46.5614 -46.5600
   -18.2636 -18.1628 -17.9511 -17.8386 -17.6774 -17.6211 -17.5469 -17.4945
   -17.4646 -17.3792 -17.3685 -17.3179 -10.3730 -10.0684  -9.9540  -9.8156
    -9.6361  -9.5871  -9.3878  -9.3525  -9.1783  -9.0863  -8.9767  -8.9059
    -8.8411  -8.6495  -8.5758  -8.5037  -8.4880  -8.4185  -8.2902  -8.0559
    -7.8925  -7.8083  -7.7133  -7.6082  -7.4666  -7.4239  -7.3589  -7.1956
    -7.1266  -7.0405  -6.9202  -6.8179  -6.7647  -6.6838  -6.6426  -6.5275
    -6.4470  -6.3579  -6.2232  -6.1533  -6.0154  -5.9186  -4.5075  -4.4535
    -4.4021  -4.2238  -2.3064  -2.2125  -2.1897  -2.1693  -2.0634  -1.9444
    -1.8569  -1.6990  -1.6333  -1.6253  -1.0435  -0.4661  -0.2757   0.1188
     0.2976   0.5810   0.6872   0.7872   0.8707   0.9699   1.0136   1.1573
     1.3196   1.4332   1.5042   1.5333

     highest occupied, lowest unoccupied level (ev):    -5.7044   -4.5711

!    total energy              =   -5539.45226659 Ry
     total all-electron energy =     -5539.452267 Ry
     estimated scf accuracy    <          2.9E-12 Ry

     The total energy is the sum of the following terms:
     one-electron contribution =   -9563.66206963 Ry
     hartree contribution      =    4755.25091201 Ry
     xc contribution           =    -165.78708524 Ry
     ewald contribution        =    3977.84444146 Ry
     Hubbard energy            =       0.74229224 Ry
     one-center paw contrib.   =   -4543.84075743 Ry

     total magnetization       =    -0.00 Bohr mag/cell
     absolute magnetization    =    17.02 Bohr mag/cell

     convergence has been achieved in  22 iterations

     negative rho (up, down):  3.162E-02 3.164E-02

     Forces acting on atoms (cartesian axes, Ry/au):

     atom    1 type  1   force =     0.00005040   -0.00048810    0.00044981
     atom    2 type  1   force =     0.00005040    0.00048810    0.00044981
     atom    3 type  2   force =     0.01313758    0.00000000   -0.02044610
     atom    4 type  2   force =    -0.00704496   -0.01192458   -0.01819230
     atom    5 type  2   force =    -0.00704496    0.01192458   -0.01819230
     atom    6 type  2   force =    -0.01348507    0.00000000    0.02187080
     atom    7 type  2   force =     0.00669550    0.01186141    0.02191009
     atom    8 type  2   force =     0.00669550   -0.01186141    0.02191009
     atom    9 type  3   force =    -0.00005036   -0.00048905   -0.00045397
     atom   10 type  3   force =    -0.00005036    0.00048905   -0.00045397
     atom   11 type  2   force =     0.01348619    0.00000000   -0.02186943
     atom   12 type  2   force =    -0.00669593   -0.01185946   -0.02190847
     atom   13 type  2   force =    -0.00669593    0.01185946   -0.02190847
     atom   14 type  2   force =    -0.01313857    0.00000000    0.02045095
     atom   15 type  2   force =     0.00704529    0.01192504    0.01819172
     atom   16 type  2   force =     0.00704529   -0.01192504    0.01819172

     Total force =     0.085187     Total SCF correction =     0.000004


     Computing stress (Cartesian axis) and pressure


     negative rho (up, down):  3.162E-02 3.164E-02
          total   stress  (Ry/bohr**3)                   (kbar)     P=       20.67
   0.00014226   0.00000000  -0.00000094           20.93        0.00       -0.14
   0.00000000   0.00014183   0.00000000            0.00       20.86        0.00
  -0.00000094   0.00000000   0.00013749           -0.14        0.00       20.23


     Writing all to output data dir ./ht_afm_qe/ht_afm_qe.save/ :
     XML data file, charge density, pseudopotentials, collected wavefunctions

     init_run     :     33.25s CPU     33.87s WALL (       1 calls)
     electrons    :   1184.76s CPU   1228.83s WALL (       1 calls)
     forces       :    250.19s CPU    252.36s WALL (       1 calls)
     stress       :   1004.46s CPU   1014.20s WALL (       1 calls)

     Called by init_run:
     wfcinit      :     30.29s CPU     30.74s WALL (       1 calls)
     potinit      :      1.13s CPU      1.17s WALL (       1 calls)
     hinit0       :      0.98s CPU      0.99s WALL (       1 calls)

     Called by electrons:
     c_bands      :    966.04s CPU    999.58s WALL (      22 calls)
     sum_band     :    180.87s CPU    188.72s WALL (      22 calls)
     v_of_rho     :      5.07s CPU      5.13s WALL (      23 calls)
     newd         :     11.74s CPU     13.90s WALL (      23 calls)
     PAW_pot      :     19.27s CPU     19.40s WALL (      23 calls)
     mix_rho      :      2.54s CPU      2.58s WALL (      22 calls)

     Called by c_bands:
     init_us_2    :     14.31s CPU     14.55s WALL (    1300 calls)
     init_us_2:cp :     14.29s CPU     14.54s WALL (    1300 calls)
     cegterg      :    934.37s CPU    967.32s WALL (     572 calls)

     Called by *egterg:
     cdiaghg      :     95.88s CPU     96.63s WALL (    2485 calls)
     h_psi        :    618.10s CPU    634.09s WALL (    2511 calls)
     s_psi        :     41.00s CPU     41.49s WALL (    2641 calls)
     g_psi        :      5.51s CPU      5.59s WALL (    1913 calls)

     Called by h_psi:
     h_psi:calbec :     42.88s CPU     43.53s WALL (    2511 calls)
     vloc_psi     :    482.33s CPU    489.89s WALL (    2511 calls)
     add_vuspsi   :     36.08s CPU     36.54s WALL (    2511 calls)
     vhpsi        :     47.28s CPU     47.94s WALL (    2511 calls)

     General routines
     calbec       :    244.10s CPU    247.35s WALL (   46648 calls)
     fft          :      3.76s CPU      3.82s WALL (     613 calls)
     ffts         :      0.28s CPU      0.31s WALL (      90 calls)
     fftw         :    439.81s CPU    447.37s WALL (  365726 calls)
     interpolate  :      0.49s CPU      0.49s WALL (      46 calls)

     Parallel routines

     Hubbard U routines
     new_ns       :      8.52s CPU      8.78s WALL (      22 calls)
     vhpsi        :     47.28s CPU     47.94s WALL (    2511 calls)
     force_hub    :    244.69s CPU    246.69s WALL (       1 calls)
                                        0.00s GPU  (       1 calls)
     stres_hub    :    917.51s CPU    926.04s WALL (       1 calls)
                                        0.00s GPU  (       1 calls)

     PWSCF        :  41m16.53s CPU  42m56.11s WALL


   This run was terminated on:  15:22:26  15Oct2025            

=------------------------------------------------------------------------------=
   JOB DONE.
=------------------------------------------------------------------------------=
