
     Program PWSCF v.7.3 starts on 15Oct2025 at 13:56:26 

     This program is part of the open-source Quantum ESPRESSO suite
     for quantum simulation of materials; please cite
         "P. Giannozzi et al., J. Phys.:Condens. Matter 21 395502 (2009);
         "P. Giannozzi et al., J. Phys.:Condens. Matter 29 465901 (2017);
         "P. Giannozzi et al., J. Chem. Phys. 152 154105 (2020);
          URL http://www.quantum-espresso.org", 
     in publications or presentations arising from this work. More details at
     http://www.quantum-espresso.org/quote

     Parallel version (MPI), running on    24 processors

     MPI processes distributed on     1 nodes
     52671 MiB available memory on the printing compute node when the environment starts

     Reading input from lt_fm_afm_qe.scf.in
Warning: card &CELL ignored
Warning: card / ignored

     Current dimensions of program PWSCF are:
     Max number of different atomic species (ntypx) = 10
     Max number of k-points (npk) =  40000
     Max angular momentum in pseudopotentials (lmaxx) =  4
read_pp_mesh; mismatch in mesh size, discarding the one in header
read_pp_mesh; mismatch in mesh size, discarding the one in header
read_pp_mesh; mismatch in mesh size, discarding the one in header
     file Cr.GGA-PBE-paw.UPF: wavefunction(s)  3S 4S 3P 4P 3D 4D renormalized
     file I.GGA-PBE-paw.UPF: wavefunction(s)  6S 6P renormalized
     file Cr.GGA-PBE-paw.UPF: wavefunction(s)  3S 4S 3P 4P 3D 4D renormalized

     IMPORTANT: XC functional enforced from input :
     Exchange-correlation= PBE
                           (   1   4   3   4   0   0   0)
     Any further DFT definition will be discarded
     Please, verify this is what you really want


     R & G space division:  proc/nbgrp/npool/nimage =      24
     Subspace diagonalization in iterative solution of the eigenvalue problem:
     a serial algorithm will be used


     Parallelization info
     --------------------
     sticks:   dense  smooth     PW     G-vecs:    dense   smooth      PW
     Min         179     174     46                38065    36532    5046
     Max         180     175     47                38082    36557    5059
     Sum        4303    4189   1123               913669   876961  121297

     Using Slab Decomposition



     bravais-lattice index     =            0
     lattice parameter (alat)  =      12.9956  a.u.
     unit-cell volume          =    7602.9282 (a.u.)^3
     number of atoms/cell      =           16
     number of atomic types    =            3
     number of electrons       =       140.00 (up:  70.00, down:  70.00)
     number of Kohn-Sham states=          100
     kinetic-energy cutoff     =      90.0000  Ry
     charge density cutoff     =     370.0000  Ry
     scf convergence threshold =      1.0E-11
     mixing beta               =       0.5000
     number of iterations used =            8  plain     mixing
     Exchange-correlation= PBE
                           (   1   4   3   4   0   0   0)
     Hubbard projectors: ortho-atomic
     Hubbard parameters of DFT+U (Dudarev formulation) in eV:
     U(Cr-3d) =  4.3700
     U(Cr1-3d) =  4.3700

     Internal variables: lda_plus_u =T, lda_plus_u_kind = 0

     celldm(1)=  12.995613  celldm(2)=   0.000000  celldm(3)=   0.000000
     celldm(4)=   0.000000  celldm(5)=   0.000000  celldm(6)=   0.000000

     crystal axes: (cart. coord. in units of alat)
               a(1) = (   1.000000  -0.000000   0.000000 )  
               a(2) = (  -0.500000   0.866025   0.000000 )  
               a(3) = (  -0.000000   0.000000   4.000000 )  

     reciprocal axes: (cart. coord. in units 2 pi/alat)
               b(1) = (  1.000000  0.577350  0.000000 )  
               b(2) = (  0.000000  1.154701  0.000000 )  
               b(3) = ( -0.000000 -0.000000  0.250000 )  


     PseudoPot. # 1 for Cr read from file:
     ../../Cr.GGA-PBE-paw.UPF
     MD5 check sum: 0e9dc003703e132720ff5dfacba66d28
     Pseudo is Projector augmented-wave + core cor, Zval = 14.0
     Generated using ATOMPAW code
     Shape of augmentation charge: SINC**2
     Using radial grid of 2342 points,  6 beta functions with: 
                l(1) =   0
                l(2) =   0
                l(3) =   1
                l(4) =   1
                l(5) =   2
                l(6) =   2
     Q(r) pseudized with 0 coefficients 


     PseudoPot. # 2 for I  read from file:
     ../../I.GGA-PBE-paw.UPF
     MD5 check sum: 736bb4145856fa7ed29d0984862794a4
     Pseudo is Projector augmented-wave + core cor, Zval =  7.0
     Generated using ATOMPAW code
     Shape of augmentation charge: SINC**2
     Using radial grid of 2342 points,  4 beta functions with: 
                l(1) =   0
                l(2) =   0
                l(3) =   1
                l(4) =   1
     Q(r) pseudized with 0 coefficients 


     PseudoPot. # 3 for Cr read from file:
     ../../Cr.GGA-PBE-paw.UPF
     MD5 check sum: 0e9dc003703e132720ff5dfacba66d28
     Pseudo is Projector augmented-wave + core cor, Zval = 14.0
     Generated using ATOMPAW code
     Shape of augmentation charge: SINC**2
     Using radial grid of 2342 points,  6 beta functions with: 
                l(1) =   0
                l(2) =   0
                l(3) =   1
                l(4) =   1
                l(5) =   2
                l(6) =   2
     Q(r) pseudized with 0 coefficients 


     atomic species   valence    mass     pseudopotential
     Cr               14.00    51.99610     Cr( 1.00)
     I                 7.00   126.90447     I ( 1.00)
     Cr1              14.00    51.99610     Cr( 1.00)

     Starting magnetic structure 
     atomic species   magnetization
     Cr              0.214
     I               0.000
     Cr1            -0.214

     No symmetry found



   Cartesian axes

     site n.     atom                  positions (alat units)
         1        Cr     tau(   1) = (   0.3333302   0.5773476   2.4771345  )
         2        Cr     tau(   2) = (  -0.1666653   0.8660272   2.4783670  )
         3        I      tau(   3) = (   0.4785934   0.2878151   2.2541471  )
         4        I      tau(   4) = (   0.0099554   0.5963201   2.2541472  )
         5        I      tau(   5) = (  -0.4885529   0.8479194   2.2541494  )
         6        I      tau(   6) = (   0.1887678   0.2890994   2.7012541  )
         7        I      tau(   7) = (   0.1559814   0.8466725   2.7012541  )
         8        I      tau(   8) = (  -0.3447532   0.5962818   2.7012518  )
         9        Cr1    tau(   9) = (   0.8333317   0.2886782   1.5216322  )
        10        Cr1    tau(  10) = (   0.3333282   0.5773496   1.5228650  )
        11        I      tau(  11) = (   0.9778967  -0.0004210   1.2987495  )
        12        I      tau(  12) = (   0.5106847   0.3080297   1.2987460  )
        13        I      tau(  13) = (   0.0114148   0.5584203   1.2987445  )
        14        I      tau(  14) = (   0.6880724   0.0008651   1.7458527  )
        15        I      tau(  15) = (   0.6567094   0.5583828   1.7458520  )
        16        I      tau(  16) = (   0.1552143   0.3067811   1.7458532  )

     number of k points=    20
                       cart. coord. in units 2pi/alat
        k(    1) = (   0.0000000   0.0000000   0.0000000), wk =   0.0277778
        k(    2) = (   0.0000000   0.1924501   0.0000000), wk =   0.0555556
        k(    3) = (   0.0000000   0.3849002   0.0000000), wk =   0.0555556
        k(    4) = (   0.0000000  -0.5773503   0.0000000), wk =   0.0277778
        k(    5) = (   0.1666667   0.2886751   0.0000000), wk =   0.0555556
        k(    6) = (   0.1666667   0.4811252   0.0000000), wk =   0.0555556
        k(    7) = (   0.3333333   0.5773503   0.0000000), wk =   0.0555556
        k(    8) = (  -0.1666667   0.0962250   0.0000000), wk =   0.0555556
        k(    9) = (   0.1666667   0.0962250   0.0000000), wk =   0.0555556
        k(   10) = (  -0.3333333   0.1924501   0.0000000), wk =   0.0555556
        k(   11) = (   0.3333333   0.1924501   0.0000000), wk =   0.0555556
        k(   12) = (   0.5000000  -0.2886751   0.0000000), wk =   0.0277778
        k(   13) = (  -0.5000000  -0.2886751   0.0000000), wk =   0.0277778
        k(   14) = (  -0.1666667   0.2886751   0.0000000), wk =   0.0555556
        k(   15) = (   0.3333333   0.0000000   0.0000000), wk =   0.0555556
        k(   16) = (  -0.1666667   0.4811252   0.0000000), wk =   0.0555556
        k(   17) = (  -0.3333333   0.3849002   0.0000000), wk =   0.0555556
        k(   18) = (   0.5000000   0.0962250   0.0000000), wk =   0.0555556
        k(   19) = (  -0.3333333  -0.3849002   0.0000000), wk =   0.0555556
        k(   20) = (   0.5000000  -0.0962250   0.0000000), wk =   0.0555556

     Dense  grid:   913669 G-vectors     FFT dimensions: (  80,  80, 320)

     Smooth grid:   876961 G-vectors     FFT dimensions: (  80,  80, 320)

     Estimated max dynamical RAM per process >     595.33 MB

     Estimated total dynamical RAM >      13.95 GB
 ----2D----2D----2D----2D----2D----2D----2D----2D----2D----2D----2D----2D
  The code is running with the 2D cutoff
  Please refer to:
  Sohier, T., Calandra, M., & Mauri, F. (2017), 
  Density functional perturbation theory for gated two-dimensional heterostructures:
  Theoretical developments and application to flexural phonons in graphene.
  Physical Review B, 96(7), 75448. https://doi.org/10.1103/PhysRevB.96.075448
 ----2D----2D----2D----2D----2D----2D----2D----2D----2D----2D----2D----2D
     Generating pointlists ...
     new r_m :   0.1620 (alat units)  2.1047 (a.u.) for type    1
     new r_m :   0.1620 (alat units)  2.1047 (a.u.) for type    2
     new r_m :   0.1620 (alat units)  2.1047 (a.u.) for type    3
     Cannot read rho : file not found

     Initial potential from superposition of free atoms

     starting charge     139.9932, renormalised to     140.0000

     negative rho (up, down):  2.631E-02 2.631E-02

     STARTING HUBBARD OCCUPATIONS:

     =================== HUBBARD OCCUPATIONS ===================
     ------------------------ ATOM    1 ------------------------
     Tr[ns(  1)] (up, down, total) =   5.00000  0.00000  5.00000
     Atomic magnetic moment for atom   1 =   5.00000
     SPIN  1
     eigenvalues:
       1.000  1.000  1.000  1.000  1.000
     eigenvectors (columns):
       1.000  0.000  0.000  0.000  0.000
       0.000  1.000  0.000  0.000  0.000
       0.000  0.000  1.000  0.000  0.000
       0.000  0.000  0.000  1.000  0.000
       0.000  0.000  0.000  0.000  1.000
     occupation matrix ns (before diag.):
       1.000  0.000  0.000  0.000  0.000
       0.000  1.000  0.000  0.000  0.000
       0.000  0.000  1.000  0.000  0.000
       0.000  0.000  0.000  1.000  0.000
       0.000  0.000  0.000  0.000  1.000
     SPIN  2
     eigenvalues:
       0.000  0.000  0.000  0.000  0.000
     eigenvectors (columns):
       1.000  0.000  0.000  0.000  0.000
       0.000  1.000  0.000  0.000  0.000
       0.000  0.000  1.000  0.000  0.000
       0.000  0.000  0.000  1.000  0.000
       0.000  0.000  0.000  0.000  1.000
     occupation matrix ns (before diag.):
       0.000  0.000  0.000  0.000  0.000
       0.000  0.000  0.000  0.000  0.000
       0.000  0.000  0.000  0.000  0.000
       0.000  0.000  0.000  0.000  0.000
       0.000  0.000  0.000  0.000  0.000
     ------------------------ ATOM    2 ------------------------
     Tr[ns(  2)] (up, down, total) =   5.00000  0.00000  5.00000
     Atomic magnetic moment for atom   2 =   5.00000
     SPIN  1
     eigenvalues:
       1.000  1.000  1.000  1.000  1.000
     eigenvectors (columns):
       1.000  0.000  0.000  0.000  0.000
       0.000  1.000  0.000  0.000  0.000
       0.000  0.000  1.000  0.000  0.000
       0.000  0.000  0.000  1.000  0.000
       0.000  0.000  0.000  0.000  1.000
     occupation matrix ns (before diag.):
       1.000  0.000  0.000  0.000  0.000
       0.000  1.000  0.000  0.000  0.000
       0.000  0.000  1.000  0.000  0.000
       0.000  0.000  0.000  1.000  0.000
       0.000  0.000  0.000  0.000  1.000
     SPIN  2
     eigenvalues:
       0.000  0.000  0.000  0.000  0.000
     eigenvectors (columns):
       1.000  0.000  0.000  0.000  0.000
       0.000  1.000  0.000  0.000  0.000
       0.000  0.000  1.000  0.000  0.000
       0.000  0.000  0.000  1.000  0.000
       0.000  0.000  0.000  0.000  1.000
     occupation matrix ns (before diag.):
       0.000  0.000  0.000  0.000  0.000
       0.000  0.000  0.000  0.000  0.000
       0.000  0.000  0.000  0.000  0.000
       0.000  0.000  0.000  0.000  0.000
       0.000  0.000  0.000  0.000  0.000
     ------------------------ ATOM    9 ------------------------
     Tr[ns(  9)] (up, down, total) =   0.00000  5.00000  5.00000
     Atomic magnetic moment for atom   9 =  -5.00000
     SPIN  1
     eigenvalues:
       0.000  0.000  0.000  0.000  0.000
     eigenvectors (columns):
       1.000  0.000  0.000  0.000  0.000
       0.000  1.000  0.000  0.000  0.000
       0.000  0.000  1.000  0.000  0.000
       0.000  0.000  0.000  1.000  0.000
       0.000  0.000  0.000  0.000  1.000
     occupation matrix ns (before diag.):
       0.000  0.000  0.000  0.000  0.000
       0.000  0.000  0.000  0.000  0.000
       0.000  0.000  0.000  0.000  0.000
       0.000  0.000  0.000  0.000  0.000
       0.000  0.000  0.000  0.000  0.000
     SPIN  2
     eigenvalues:
       1.000  1.000  1.000  1.000  1.000
     eigenvectors (columns):
       1.000  0.000  0.000  0.000  0.000
       0.000  1.000  0.000  0.000  0.000
       0.000  0.000  1.000  0.000  0.000
       0.000  0.000  0.000  1.000  0.000
       0.000  0.000  0.000  0.000  1.000
     occupation matrix ns (before diag.):
       1.000  0.000  0.000  0.000  0.000
       0.000  1.000  0.000  0.000  0.000
       0.000  0.000  1.000  0.000  0.000
       0.000  0.000  0.000  1.000  0.000
       0.000  0.000  0.000  0.000  1.000
     ------------------------ ATOM   10 ------------------------
     Tr[ns( 10)] (up, down, total) =   0.00000  5.00000  5.00000
     Atomic magnetic moment for atom  10 =  -5.00000
     SPIN  1
     eigenvalues:
       0.000  0.000  0.000  0.000  0.000
     eigenvectors (columns):
       1.000  0.000  0.000  0.000  0.000
       0.000  1.000  0.000  0.000  0.000
       0.000  0.000  1.000  0.000  0.000
       0.000  0.000  0.000  1.000  0.000
       0.000  0.000  0.000  0.000  1.000
     occupation matrix ns (before diag.):
       0.000  0.000  0.000  0.000  0.000
       0.000  0.000  0.000  0.000  0.000
       0.000  0.000  0.000  0.000  0.000
       0.000  0.000  0.000  0.000  0.000
       0.000  0.000  0.000  0.000  0.000
     SPIN  2
     eigenvalues:
       1.000  1.000  1.000  1.000  1.000
     eigenvectors (columns):
       1.000  0.000  0.000  0.000  0.000
       0.000  1.000  0.000  0.000  0.000
       0.000  0.000  1.000  0.000  0.000
       0.000  0.000  0.000  1.000  0.000
       0.000  0.000  0.000  0.000  1.000
     occupation matrix ns (before diag.):
       1.000  0.000  0.000  0.000  0.000
       0.000  1.000  0.000  0.000  0.000
       0.000  0.000  1.000  0.000  0.000
       0.000  0.000  0.000  1.000  0.000
       0.000  0.000  0.000  0.000  1.000

     Number of occupied Hubbard levels =   20.0000

     Atomic wfc used for Hubbard projectors are orthogonalized

     Starting wfcs are  168 atomic wfcs
     Checking if some PAW data can be deallocated... 

     total cpu time spent up to now is       52.8 secs

     Self-consistent Calculation

     iteration #  1     ecut=    90.00 Ry     beta= 0.50
     Davidson diagonalization with overlap
     ethr =  1.00E-05,  avg # of iterations =  9.1

     =================== HUBBARD OCCUPATIONS ===================
     ------------------------ ATOM    1 ------------------------
     Tr[ns(  1)] (up, down, total) =   3.48212  0.29742  3.77954
     Atomic magnetic moment for atom   1 =   3.18470
     SPIN  1
     eigenvalues:
       0.406  0.406  0.889  0.889  0.893
     eigenvectors (columns):
       0.000  0.000 -0.000  0.000  1.000
       0.732 -0.375 -0.441 -0.359 -0.000
      -0.375 -0.732  0.359 -0.441  0.000
      -0.506  0.259 -0.638 -0.519 -0.000
      -0.259 -0.506 -0.519  0.638 -0.000
     occupation matrix ns (before diag.):
       0.893 -0.000  0.000  0.000  0.000
      -0.000  0.562  0.000  0.226 -0.000
       0.000  0.000  0.562 -0.000 -0.226
       0.000  0.226 -0.000  0.733  0.000
       0.000 -0.000 -0.226  0.000  0.733
     SPIN  2
     eigenvalues:
       0.032  0.035  0.035  0.097  0.097
     eigenvectors (columns):
       1.000 -0.000 -0.000  0.000 -0.000
       0.000  0.582  0.023  0.812 -0.031
      -0.000  0.023 -0.582  0.031  0.812
       0.000  0.812  0.034 -0.582  0.023
       0.000 -0.034  0.812  0.023  0.582
     occupation matrix ns (before diag.):
       0.032  0.000 -0.000 -0.000 -0.000
       0.000  0.076 -0.000 -0.030  0.000
      -0.000 -0.000  0.076  0.000  0.030
      -0.000 -0.030  0.000  0.056 -0.000
      -0.000  0.000  0.030 -0.000  0.056
     ------------------------ ATOM    2 ------------------------
     Tr[ns(  2)] (up, down, total) =   3.48456  0.29933  3.78390
     Atomic magnetic moment for atom   2 =   3.18523
     SPIN  1
     eigenvalues:
       0.408  0.408  0.888  0.888  0.892
     eigenvectors (columns):
      -0.000  0.000 -0.000  0.000  1.000
      -0.170  0.805 -0.316  0.473 -0.000
       0.805  0.170  0.473  0.316  0.000
       0.120 -0.556 -0.459  0.682 -0.000
       0.556  0.120 -0.682 -0.459 -0.000
     occupation matrix ns (before diag.):
       0.892 -0.000  0.000  0.000  0.000
      -0.000  0.563  0.000  0.225 -0.001
       0.000  0.000  0.563 -0.001 -0.225
       0.000  0.225 -0.001  0.733  0.000
       0.000 -0.001 -0.225  0.000  0.733
     SPIN  2
     eigenvalues:
       0.033  0.035  0.035  0.098  0.098
     eigenvectors (columns):
       1.000 -0.000  0.000  0.000 -0.000
      -0.000 -0.282  0.510  0.774 -0.247
      -0.000 -0.510 -0.282  0.247  0.774
      -0.000 -0.390  0.713 -0.555  0.179
       0.000  0.713  0.390  0.179  0.555
     occupation matrix ns (before diag.):
       0.033  0.000 -0.000  0.000 -0.000
       0.000  0.077 -0.000 -0.030  0.000
      -0.000 -0.000  0.077  0.000  0.030
       0.000 -0.030  0.000  0.057 -0.000
      -0.000  0.000  0.030 -0.000  0.057
     ------------------------ ATOM    9 ------------------------
     Tr[ns(  9)] (up, down, total) =   0.29934  3.48457  3.78391
     Atomic magnetic moment for atom   9 =  -3.18522
     SPIN  1
     eigenvalues:
       0.033  0.035  0.035  0.098  0.098
     eigenvectors (columns):
       1.000 -0.000 -0.000  0.000  0.000
      -0.000  0.360 -0.459  0.684 -0.439
       0.000  0.459  0.360  0.439  0.684
      -0.000  0.499 -0.641 -0.489  0.317
      -0.000 -0.641 -0.499  0.317  0.489
     occupation matrix ns (before diag.):
       0.033 -0.000  0.000  0.000  0.000
      -0.000  0.077 -0.000 -0.030  0.000
       0.000 -0.000  0.077  0.000  0.030
       0.000 -0.030  0.000  0.057  0.000
       0.000  0.000  0.030  0.000  0.057
     SPIN  2
     eigenvalues:
       0.408  0.408  0.888  0.888  0.892
     eigenvectors (columns):
      -0.000  0.000 -0.000 -0.000  1.000
      -0.642 -0.514  0.569 -0.013  0.000
      -0.514  0.642 -0.013 -0.569 -0.000
       0.442  0.358  0.822 -0.016  0.000
      -0.358  0.442  0.016  0.822  0.000
     occupation matrix ns (before diag.):
       0.892  0.000 -0.000 -0.000 -0.000
       0.000  0.563 -0.000  0.225 -0.001
      -0.000 -0.000  0.563 -0.001 -0.225
      -0.000  0.225 -0.001  0.733 -0.000
      -0.000 -0.001 -0.225 -0.000  0.733
     ------------------------ ATOM   10 ------------------------
     Tr[ns( 10)] (up, down, total) =   0.29741  3.48211  3.77953
     Atomic magnetic moment for atom  10 =  -3.18470
     SPIN  1
     eigenvalues:
       0.032  0.035  0.035  0.097  0.097
     eigenvectors (columns):
       1.000 -0.000  0.000 -0.000 -0.000
      -0.000 -0.371  0.449 -0.660  0.474
      -0.000  0.449  0.371  0.474  0.660
      -0.000 -0.519  0.626  0.474 -0.339
       0.000 -0.626 -0.519  0.339  0.474
     occupation matrix ns (before diag.):
       0.032 -0.000 -0.000  0.000 -0.000
      -0.000  0.076  0.000 -0.030  0.000
      -0.000  0.000  0.076  0.000  0.030
       0.000 -0.030  0.000  0.056 -0.000
      -0.000  0.000  0.030 -0.000  0.056
     SPIN  2
     eigenvalues:
       0.406  0.406  0.889  0.889  0.893
     eigenvectors (columns):
       0.000 -0.000 -0.000 -0.000 -1.000
      -0.709  0.417  0.531  0.204 -0.000
       0.417  0.709  0.204 -0.531  0.000
       0.490 -0.288  0.768  0.296 -0.000
       0.288  0.490 -0.296  0.768 -0.000
     occupation matrix ns (before diag.):
       0.893  0.000  0.000 -0.000  0.000
       0.000  0.562  0.000  0.226 -0.000
       0.000  0.000  0.562 -0.000 -0.226
      -0.000  0.226 -0.000  0.733 -0.000
       0.000 -0.000 -0.226 -0.000  0.733

     Number of occupied Hubbard levels =   15.1269

     negative rho (up, down):  3.102E-02 3.103E-02

     total cpu time spent up to now is      299.3 secs

     total energy              =   -5538.21868100 Ry
     estimated scf accuracy    <       2.54611540 Ry

     total magnetization       =    -0.00 Bohr mag/cell
     absolute magnetization    =    15.53 Bohr mag/cell

     iteration #  2     ecut=    90.00 Ry     beta= 0.50
     Davidson diagonalization with overlap
     ethr =  1.82E-03,  avg # of iterations =  4.0

     negative rho (up, down):  2.913E-02 2.914E-02

     total cpu time spent up to now is      390.7 secs

     total energy              =   -5537.21542303 Ry
     estimated scf accuracy    <      13.64476915 Ry

     total magnetization       =    -0.00 Bohr mag/cell
     absolute magnetization    =    15.86 Bohr mag/cell

     iteration #  3     ecut=    90.00 Ry     beta= 0.50
     Davidson diagonalization with overlap
     ethr =  1.82E-03,  avg # of iterations =  2.0

     negative rho (up, down):  3.071E-02 3.071E-02

     total cpu time spent up to now is      463.4 secs

     total energy              =   -5539.39188225 Ry
     estimated scf accuracy    <       0.47893562 Ry

     total magnetization       =    -0.00 Bohr mag/cell
     absolute magnetization    =    16.49 Bohr mag/cell

     iteration #  4     ecut=    90.00 Ry     beta= 0.50
     Davidson diagonalization with overlap
     ethr =  3.42E-04,  avg # of iterations =  2.2

     negative rho (up, down):  3.182E-02 3.182E-02

     total cpu time spent up to now is      527.9 secs

     total energy              =   -5539.43563431 Ry
     estimated scf accuracy    <       0.09327995 Ry

     total magnetization       =    -0.00 Bohr mag/cell
     absolute magnetization    =    16.68 Bohr mag/cell

     iteration #  5     ecut=    90.00 Ry     beta= 0.50
     Davidson diagonalization with overlap
     ethr =  6.66E-05,  avg # of iterations =  4.9

     negative rho (up, down):  3.192E-02 3.192E-02

     total cpu time spent up to now is      610.5 secs

     total energy              =   -5539.44595244 Ry
     estimated scf accuracy    <       0.03352508 Ry

     total magnetization       =    -0.00 Bohr mag/cell
     absolute magnetization    =    16.84 Bohr mag/cell

     iteration #  6     ecut=    90.00 Ry     beta= 0.50
     Davidson diagonalization with overlap
     ethr =  2.39E-05,  avg # of iterations =  4.0

     negative rho (up, down):  3.179E-02 3.178E-02

     total cpu time spent up to now is      681.9 secs

     total energy              =   -5539.45144414 Ry
     estimated scf accuracy    <       0.00160114 Ry

     total magnetization       =    -0.00 Bohr mag/cell
     absolute magnetization    =    16.88 Bohr mag/cell

     iteration #  7     ecut=    90.00 Ry     beta= 0.50
     Davidson diagonalization with overlap
     ethr =  1.14E-06,  avg # of iterations =  7.2

     negative rho (up, down):  3.160E-02 3.160E-02

     total cpu time spent up to now is      817.4 secs

     total energy              =   -5539.45255062 Ry
     estimated scf accuracy    <       0.00182949 Ry

     total magnetization       =    -0.00 Bohr mag/cell
     absolute magnetization    =    16.97 Bohr mag/cell

     iteration #  8     ecut=    90.00 Ry     beta= 0.50
     Davidson diagonalization with overlap
     ethr =  1.14E-06,  avg # of iterations =  2.0

     negative rho (up, down):  3.157E-02 3.157E-02

     total cpu time spent up to now is      880.5 secs

     total energy              =   -5539.45253526 Ry
     estimated scf accuracy    <       0.00127620 Ry

     total magnetization       =    -0.00 Bohr mag/cell
     absolute magnetization    =    17.03 Bohr mag/cell

     iteration #  9     ecut=    90.00 Ry     beta= 0.50
     Davidson diagonalization with overlap
     ethr =  9.12E-07,  avg # of iterations =  1.0

     negative rho (up, down):  3.160E-02 3.160E-02

     total cpu time spent up to now is      939.2 secs

     total energy              =   -5539.45253837 Ry
     estimated scf accuracy    <       0.00043686 Ry

     total magnetization       =     0.00 Bohr mag/cell
     absolute magnetization    =    17.03 Bohr mag/cell

     iteration # 10     ecut=    90.00 Ry     beta= 0.50
     Davidson diagonalization with overlap
     ethr =  3.12E-07,  avg # of iterations =  1.5

     negative rho (up, down):  3.161E-02 3.161E-02

     total cpu time spent up to now is      999.4 secs

     total energy              =   -5539.45258736 Ry
     estimated scf accuracy    <       0.00002057 Ry

     total magnetization       =    -0.00 Bohr mag/cell
     absolute magnetization    =    17.01 Bohr mag/cell

     iteration # 11     ecut=    90.00 Ry     beta= 0.50
     Davidson diagonalization with overlap
     ethr =  1.47E-08,  avg # of iterations =  4.0

     negative rho (up, down):  3.159E-02 3.159E-02

     total cpu time spent up to now is     1090.7 secs

     total energy              =   -5539.45260015 Ry
     estimated scf accuracy    <       0.00000424 Ry

     total magnetization       =     0.00 Bohr mag/cell
     absolute magnetization    =    17.00 Bohr mag/cell

     iteration # 12     ecut=    90.00 Ry     beta= 0.50
     Davidson diagonalization with overlap
     ethr =  3.03E-09,  avg # of iterations =  2.0

     negative rho (up, down):  3.158E-02 3.158E-02

     total cpu time spent up to now is     1161.6 secs

     total energy              =   -5539.45260104 Ry
     estimated scf accuracy    <       0.00000299 Ry

     total magnetization       =     0.00 Bohr mag/cell
     absolute magnetization    =    17.00 Bohr mag/cell

     iteration # 13     ecut=    90.00 Ry     beta= 0.50
     Davidson diagonalization with overlap
     ethr =  2.13E-09,  avg # of iterations =  2.0

     negative rho (up, down):  3.158E-02 3.158E-02

     total cpu time spent up to now is     1229.1 secs

     total energy              =   -5539.45260196 Ry
     estimated scf accuracy    <       0.00000245 Ry

     total magnetization       =     0.00 Bohr mag/cell
     absolute magnetization    =    17.00 Bohr mag/cell

     iteration # 14     ecut=    90.00 Ry     beta= 0.50
     Davidson diagonalization with overlap
     ethr =  1.75E-09,  avg # of iterations =  2.0

     negative rho (up, down):  3.158E-02 3.158E-02

     total cpu time spent up to now is     1293.7 secs

     total energy              =   -5539.45260243 Ry
     estimated scf accuracy    <       0.00000019 Ry

     total magnetization       =     0.00 Bohr mag/cell
     absolute magnetization    =    17.00 Bohr mag/cell

     iteration # 15     ecut=    90.00 Ry     beta= 0.50
     Davidson diagonalization with overlap
     ethr =  1.37E-10,  avg # of iterations =  4.0

     negative rho (up, down):  3.158E-02 3.158E-02

     total cpu time spent up to now is     1375.9 secs

     total energy              =   -5539.45260255 Ry
     estimated scf accuracy    <       0.00000007 Ry

     total magnetization       =    -0.00 Bohr mag/cell
     absolute magnetization    =    16.99 Bohr mag/cell

     iteration # 16     ecut=    90.00 Ry     beta= 0.50
     Davidson diagonalization with overlap
     ethr =  5.32E-11,  avg # of iterations =  2.2

     negative rho (up, down):  3.158E-02 3.158E-02

     total cpu time spent up to now is     1439.5 secs

     total energy              =   -5539.45260259 Ry
     estimated scf accuracy    <       0.00000007 Ry

     total magnetization       =    -0.00 Bohr mag/cell
     absolute magnetization    =    16.99 Bohr mag/cell

     iteration # 17     ecut=    90.00 Ry     beta= 0.50
     Davidson diagonalization with overlap
     ethr =  4.67E-11,  avg # of iterations =  2.0

     negative rho (up, down):  3.158E-02 3.157E-02

     total cpu time spent up to now is     1502.5 secs

     total energy              =   -5539.45260262 Ry
     estimated scf accuracy    <       0.00000001 Ry

     total magnetization       =     0.00 Bohr mag/cell
     absolute magnetization    =    16.99 Bohr mag/cell

     iteration # 18     ecut=    90.00 Ry     beta= 0.50
     Davidson diagonalization with overlap
     ethr =  8.19E-12,  avg # of iterations =  3.8

     negative rho (up, down):  3.158E-02 3.157E-02

     total cpu time spent up to now is     1580.1 secs

     total energy              =   -5539.45260262 Ry
     estimated scf accuracy    <          3.1E-09 Ry

     total magnetization       =    -0.00 Bohr mag/cell
     absolute magnetization    =    16.99 Bohr mag/cell

     iteration # 19     ecut=    90.00 Ry     beta= 0.50
     Davidson diagonalization with overlap
     ethr =  2.19E-12,  avg # of iterations =  2.6

     negative rho (up, down):  3.158E-02 3.157E-02

     total cpu time spent up to now is     1649.4 secs

     total energy              =   -5539.45260263 Ry
     estimated scf accuracy    <          3.0E-09 Ry

     total magnetization       =     0.00 Bohr mag/cell
     absolute magnetization    =    16.99 Bohr mag/cell

     iteration # 20     ecut=    90.00 Ry     beta= 0.50
     Davidson diagonalization with overlap
     ethr =  2.11E-12,  avg # of iterations =  2.0

     negative rho (up, down):  3.158E-02 3.157E-02

     total cpu time spent up to now is     1713.2 secs

     total energy              =   -5539.45260263 Ry
     estimated scf accuracy    <          1.3E-09 Ry

     total magnetization       =    -0.00 Bohr mag/cell
     absolute magnetization    =    16.99 Bohr mag/cell

     iteration # 21     ecut=    90.00 Ry     beta= 0.50
     Davidson diagonalization with overlap
     ethr =  9.62E-13,  avg # of iterations =  2.0

     negative rho (up, down):  3.158E-02 3.157E-02

     total cpu time spent up to now is     1776.1 secs

     total energy              =   -5539.45260263 Ry
     estimated scf accuracy    <          4.6E-10 Ry

     total magnetization       =    -0.00 Bohr mag/cell
     absolute magnetization    =    16.99 Bohr mag/cell

     iteration # 22     ecut=    90.00 Ry     beta= 0.50
     Davidson diagonalization with overlap
     ethr =  3.27E-13,  avg # of iterations =  3.2

     negative rho (up, down):  3.158E-02 3.157E-02

     total cpu time spent up to now is     1847.6 secs

     total energy              =   -5539.45260263 Ry
     estimated scf accuracy    <          2.0E-10 Ry

     total magnetization       =     0.00 Bohr mag/cell
     absolute magnetization    =    16.99 Bohr mag/cell

     iteration # 23     ecut=    90.00 Ry     beta= 0.50
     Davidson diagonalization with overlap
     ethr =  1.44E-13,  avg # of iterations =  2.3

     negative rho (up, down):  3.158E-02 3.157E-02

     total cpu time spent up to now is     1912.1 secs

     total energy              =   -5539.45260263 Ry
     estimated scf accuracy    <          3.2E-11 Ry

     total magnetization       =     0.00 Bohr mag/cell
     absolute magnetization    =    16.99 Bohr mag/cell

     iteration # 24     ecut=    90.00 Ry     beta= 0.50
     Davidson diagonalization with overlap
     ethr =  1.00E-13,  avg # of iterations =  2.0

     negative rho (up, down):  3.158E-02 3.157E-02

     total cpu time spent up to now is     1976.4 secs

     total energy              =   -5539.45260263 Ry
     estimated scf accuracy    <          9.0E-11 Ry

     total magnetization       =     0.00 Bohr mag/cell
     absolute magnetization    =    16.99 Bohr mag/cell

     iteration # 25     ecut=    90.00 Ry     beta= 0.50
     Davidson diagonalization with overlap
     ethr =  1.00E-13,  avg # of iterations =  1.0

     negative rho (up, down):  3.158E-02 3.157E-02

     Magnetic moment per site  (integrated on atomic sphere of radius R)
     atom   1 (R=0.162)  charge= 12.3754  magn=  3.3102
     atom   2 (R=0.162)  charge= 12.3796  magn=  3.3067
     atom   3 (R=0.162)  charge=  4.0513  magn= -0.1286
     atom   4 (R=0.162)  charge=  4.0512  magn= -0.1286
     atom   5 (R=0.162)  charge=  4.0513  magn= -0.1286
     atom   6 (R=0.162)  charge=  4.0527  magn= -0.1328
     atom   7 (R=0.162)  charge=  4.0527  magn= -0.1328
     atom   8 (R=0.162)  charge=  4.0525  magn= -0.1328
     atom   9 (R=0.162)  charge= 12.3797  magn= -3.3067
     atom  10 (R=0.162)  charge= 12.3754  magn= -3.3102
     atom  11 (R=0.162)  charge=  4.0526  magn=  0.1328
     atom  12 (R=0.162)  charge=  4.0526  magn=  0.1328
     atom  13 (R=0.162)  charge=  4.0526  magn=  0.1328
     atom  14 (R=0.162)  charge=  4.0512  magn=  0.1286
     atom  15 (R=0.162)  charge=  4.0511  magn=  0.1286
     atom  16 (R=0.162)  charge=  4.0511  magn=  0.1286

     total cpu time spent up to now is     2034.8 secs

     End of self-consistent calculation

     =================== HUBBARD OCCUPATIONS ===================
     ------------------------ ATOM    1 ------------------------
     Tr[ns(  1)] (up, down, total) =   3.76921  0.49749  4.26669
     Atomic magnetic moment for atom   1 =   3.27172
     SPIN  1
     eigenvalues:
       0.509  0.509  0.915  0.915  0.921
     eigenvectors (columns):
      -0.000 -0.000  0.000 -0.000 -1.000
      -0.356 -0.733  0.520 -0.253  0.000
       0.733 -0.356  0.253  0.520 -0.000
       0.254  0.520  0.733 -0.358  0.000
       0.520 -0.254 -0.358 -0.733  0.000
     occupation matrix ns (before diag.):
       0.921 -0.000  0.000  0.000  0.000
      -0.000  0.645  0.000  0.192 -0.000
       0.000  0.000  0.645 -0.000 -0.192
       0.000  0.192 -0.000  0.779  0.000
       0.000 -0.000 -0.192  0.000  0.779
     SPIN  2
     eigenvalues:
       0.043  0.047  0.047  0.181  0.181
     eigenvectors (columns):
      -1.000 -0.000  0.000  0.000 -0.000
      -0.000  0.573 -0.015  0.818 -0.044
       0.000  0.015  0.573  0.044  0.818
      -0.000  0.819 -0.025 -0.573  0.033
      -0.000 -0.025 -0.819  0.033  0.573
     occupation matrix ns (before diag.):
       0.043  0.000 -0.000 -0.000 -0.000
       0.000  0.137 -0.000 -0.063  0.000
      -0.000 -0.000  0.137  0.000  0.063
      -0.000 -0.063  0.000  0.091 -0.000
      -0.000  0.000  0.063 -0.000  0.091
     ------------------------ ATOM    2 ------------------------
     Tr[ns(  2)] (up, down, total) =   3.76786  0.50000  4.26786
     Atomic magnetic moment for atom   2 =   3.26786
     SPIN  1
     eigenvalues:
       0.509  0.509  0.915  0.915  0.921
     eigenvectors (columns):
      -0.000  0.000 -0.000  0.000 -1.000
      -0.244 -0.778 -0.563  0.137  0.000
       0.778 -0.244 -0.137 -0.563 -0.000
       0.174  0.552 -0.792  0.194  0.000
       0.552 -0.174  0.194  0.792  0.000
     occupation matrix ns (before diag.):
       0.921 -0.000  0.000 -0.000  0.000
      -0.000  0.645  0.000  0.192 -0.000
       0.000  0.000  0.645 -0.000 -0.192
      -0.000  0.192 -0.000  0.779  0.000
       0.000 -0.000 -0.192  0.000  0.779
     SPIN  2
     eigenvalues:
       0.043  0.047  0.047  0.182  0.182
     eigenvectors (columns):
       1.000 -0.000 -0.000 -0.000 -0.000
      -0.000 -0.280  0.502  0.629 -0.523
      -0.000 -0.502 -0.280  0.523  0.629
      -0.000 -0.398  0.715 -0.442  0.368
       0.000  0.715  0.398  0.368  0.442
     occupation matrix ns (before diag.):
       0.043  0.000 -0.000  0.000 -0.000
       0.000  0.137 -0.000 -0.064  0.000
      -0.000 -0.000  0.137  0.000  0.064
       0.000 -0.064  0.000  0.091 -0.000
      -0.000  0.000  0.064 -0.000  0.091
     ------------------------ ATOM    9 ------------------------
     Tr[ns(  9)] (up, down, total) =   0.50001  3.76785  4.26786
     Atomic magnetic moment for atom   9 =  -3.26784
     SPIN  1
     eigenvalues:
       0.043  0.047  0.047  0.182  0.182
     eigenvectors (columns):
       1.000  0.000 -0.000  0.000  0.000
      -0.000  0.347 -0.458  0.614 -0.541
       0.000  0.458  0.347  0.541  0.614
      -0.000  0.494 -0.652 -0.431  0.381
      -0.000 -0.652 -0.494  0.381  0.431
     occupation matrix ns (before diag.):
       0.043 -0.000  0.000  0.000  0.000
      -0.000  0.137 -0.000 -0.064  0.000
       0.000 -0.000  0.137  0.000  0.064
       0.000 -0.064  0.000  0.091  0.000
       0.000  0.000  0.064  0.000  0.091
     SPIN  2
     eigenvalues:
       0.509  0.509  0.915  0.915  0.921
     eigenvectors (columns):
      -0.000 -0.000  0.000  0.000 -1.000
      -0.711  0.399 -0.281 -0.506 -0.000
      -0.399 -0.711  0.506 -0.281  0.000
       0.504 -0.285 -0.397 -0.712 -0.000
      -0.285 -0.504 -0.712  0.397 -0.000
     occupation matrix ns (before diag.):
       0.921  0.000 -0.000 -0.000 -0.000
       0.000  0.645 -0.000  0.192 -0.000
      -0.000 -0.000  0.645 -0.000 -0.192
      -0.000  0.192 -0.000  0.779 -0.000
      -0.000 -0.000 -0.192 -0.000  0.779
     ------------------------ ATOM   10 ------------------------
     Tr[ns( 10)] (up, down, total) =   0.49747  3.76922  4.26669
     Atomic magnetic moment for atom  10 =  -3.27174
     SPIN  1
     eigenvalues:
       0.043  0.047  0.047  0.181  0.181
     eigenvectors (columns):
       1.000 -0.000  0.000  0.000 -0.000
      -0.000 -0.360  0.447 -0.628  0.526
       0.000  0.447  0.360  0.526  0.628
      -0.000 -0.517  0.636  0.441 -0.367
      -0.000 -0.636 -0.517  0.367  0.441
     occupation matrix ns (before diag.):
       0.043 -0.000 -0.000  0.000 -0.000
      -0.000  0.137  0.000 -0.063  0.000
      -0.000  0.000  0.137  0.000  0.063
       0.000 -0.063  0.000  0.091 -0.000
      -0.000  0.000  0.063 -0.000  0.091
     SPIN  2
     eigenvalues:
       0.509  0.509  0.915  0.915  0.921
     eigenvectors (columns):
       0.000 -0.000 -0.000  0.000 -1.000
      -0.815 -0.026  0.055 -0.576 -0.000
      -0.026  0.815 -0.576 -0.055  0.000
       0.578  0.019  0.079 -0.812 -0.000
      -0.019  0.578  0.812  0.079 -0.000
     occupation matrix ns (before diag.):
       0.921  0.000  0.000 -0.000  0.000
       0.000  0.645 -0.000  0.192 -0.000
       0.000 -0.000  0.645 -0.000 -0.192
      -0.000  0.192 -0.000  0.779 -0.000
       0.000 -0.000 -0.192 -0.000  0.779

     Number of occupied Hubbard levels =   17.0691

 ------ SPIN UP ------------


          k = 0.0000 0.0000 0.0000 (109591 PWs)   bands (ev):

   -78.6745 -78.6522 -75.2067 -75.1884 -50.0077 -50.0068 -50.0068 -49.9861
   -49.9845 -49.9845 -46.5999 -46.5906 -46.5906 -46.5812 -46.5726 -46.5726
   -18.6367 -18.5255 -17.8321 -17.6536 -17.5435 -17.5435 -17.4391 -17.4391
   -17.3679 -17.3679 -17.2958 -17.2958 -10.4928 -10.2948 -10.0427  -9.8130
    -9.8130  -9.7856  -9.7856  -9.4385  -9.0099  -9.0099  -8.8381  -8.7984
    -8.7692  -8.7692  -8.7104  -8.6609  -8.6608  -8.6035  -8.1824  -8.1823
    -7.9436  -7.9435  -7.9422  -7.5544  -7.5544  -7.4098  -7.3878  -7.3878
    -7.2714  -7.1892  -7.1891  -7.1818  -6.9233  -6.3700  -6.3700  -6.2531
    -6.2531  -6.1866  -5.8891  -5.8891  -5.7133  -5.7133  -4.5647  -4.5646
    -4.1078  -4.1077  -2.2198  -2.2198  -2.1459  -2.1459  -2.1215  -1.9837
    -1.7587  -1.7587  -1.5936  -1.5936  -0.9369  -0.5009  -0.2375   0.0246
     0.0934   0.2069   0.9155   1.0070   1.0070   1.1280   1.1280   1.2801
     1.7437   1.8369   1.8370   1.9362

          k = 0.0000 0.1925 0.0000 (109722 PWs)   bands (ev):

   -78.6745 -78.6522 -75.2067 -75.1884 -50.0077 -50.0068 -50.0068 -49.9861
   -49.9845 -49.9845 -46.5998 -46.5907 -46.5906 -46.5812 -46.5726 -46.5726
   -18.5773 -18.4667 -17.7950 -17.6304 -17.6220 -17.5747 -17.5214 -17.4641
   -17.3779 -17.3718 -17.3031 -17.3024 -10.4684 -10.2491 -10.0246  -9.9091
    -9.9013  -9.6498  -9.6459  -9.4294  -9.0867  -9.0436  -8.8705  -8.8336
    -8.7929  -8.7165  -8.6755  -8.6416  -8.6194  -8.3129  -8.1544  -8.1379
    -8.0581  -7.9276  -7.7292  -7.6648  -7.6094  -7.4438  -7.3535  -7.3265
    -7.2141  -7.1434  -7.0909  -7.0539  -6.8048  -6.4646  -6.4338  -6.3383
    -6.3167  -6.2467  -6.1190  -5.9776  -5.9449  -5.7795  -4.5623  -4.5378
    -4.2927  -4.1531  -2.2468  -2.2090  -2.1792  -2.1529  -2.0154  -1.9677
    -1.7541  -1.7367  -1.6987  -1.6511  -0.8407  -0.2020  -0.0123   0.2829
     0.3709   0.5179   0.6333   0.7447   0.8454   1.0483   1.3563   1.4831
     1.6183   1.7107   1.8178   1.8590

          k = 0.0000 0.3849 0.0000 (109616 PWs)   bands (ev):

   -78.6745 -78.6522 -75.2067 -75.1884 -50.0078 -50.0069 -50.0068 -49.9861
   -49.9845 -49.9844 -46.5998 -46.5907 -46.5905 -46.5812 -46.5727 -46.5725
   -18.4137 -18.3072 -17.8350 -17.7277 -17.6947 -17.6288 -17.5452 -17.5062
   -17.4308 -17.3871 -17.3427 -17.3213 -10.4875 -10.1112  -9.9714  -9.9372
    -9.7672  -9.5683  -9.4891  -9.3791  -9.2191  -9.0038  -8.9805  -8.8679
    -8.8231  -8.7131  -8.5822  -8.5337  -8.4718  -8.3219  -8.1741  -8.1153
    -7.8726  -7.8445  -7.7353  -7.6355  -7.5569  -7.4274  -7.3569  -7.1904
    -7.1348  -7.1096  -7.0148  -6.9694  -6.7874  -6.7256  -6.5055  -6.4732
    -6.4448  -6.3557  -6.3134  -6.1063  -6.0240  -5.8945  -4.5483  -4.4776
    -4.4106  -4.3021  -2.2982  -2.2367  -2.2156  -2.1282  -2.0582  -1.8708
    -1.8396  -1.7604  -1.7202  -1.6580  -0.8792  -0.2558  -0.0136   0.4272
     0.5792   0.6994   0.8243   0.9245   1.0135   1.0539   1.1407   1.2190
     1.3227   1.4604   1.5212   1.6263

          k = 0.0000-0.5774 0.0000 (109602 PWs)   bands (ev):

   -78.6746 -78.6522 -75.2067 -75.1884 -50.0078 -50.0069 -50.0068 -49.9862
   -49.9846 -49.9844 -46.5998 -46.5907 -46.5905 -46.5812 -46.5727 -46.5725
   -18.2491 -18.1702 -18.0017 -17.9003 -17.6538 -17.6047 -17.5275 -17.5190
   -17.4489 -17.4067 -17.3943 -17.3314 -10.5247  -9.9972  -9.9509  -9.9337
    -9.6315  -9.4603  -9.3934  -9.3138  -9.1940  -9.1835  -9.1048  -8.8990
    -8.6794  -8.6315  -8.5942  -8.5642  -8.4568  -8.3931  -8.1718  -8.1622
    -7.8816  -7.7623  -7.6584  -7.6104  -7.5714  -7.4929  -7.4078  -7.3333
    -7.1854  -7.0053  -6.9095  -6.8727  -6.7999  -6.6961  -6.5936  -6.5492
    -6.5064  -6.3606  -6.3037  -6.0896  -6.0158  -5.9225  -4.5202  -4.4770
    -4.4241  -4.3257  -2.3942  -2.2560  -2.2091  -2.1458  -2.0058  -1.9897
    -1.8786  -1.6791  -1.6741  -1.6679  -1.0928  -0.4753   0.0501   0.1134
     0.3938   0.7129   0.8440   0.9155   0.9447   1.1588   1.2209   1.2787
     1.3699   1.4355   1.5373   1.5798

          k = 0.1667 0.2887 0.0000 (109615 PWs)   bands (ev):

   -78.6745 -78.6522 -75.2067 -75.1884 -50.0078 -50.0069 -50.0068 -49.9861
   -49.9845 -49.9845 -46.5998 -46.5907 -46.5905 -46.5812 -46.5727 -46.5725
   -18.4651 -18.3563 -17.7556 -17.7283 -17.6630 -17.6237 -17.5678 -17.5175
   -17.4096 -17.3820 -17.3258 -17.3129 -10.4081 -10.2063 -10.0228  -9.9495
    -9.7335  -9.6312  -9.5173  -9.4216  -9.1548  -9.0876  -8.9229  -8.8662
    -8.7867  -8.6966  -8.6221  -8.5699  -8.5194  -8.3161  -8.1051  -8.0679
    -8.0084  -7.8641  -7.7558  -7.6703  -7.5307  -7.4772  -7.2933  -7.2286
    -7.1445  -7.0699  -7.0053  -6.9821  -6.8886  -6.5573  -6.5002  -6.4756
    -6.4007  -6.3082  -6.2802  -6.1197  -6.0181  -5.8767  -4.5521  -4.4960
    -4.4600  -4.1797  -2.2473  -2.2155  -2.2042  -2.1389  -2.1189  -1.8443
    -1.8046  -1.7659  -1.7046  -1.6766  -0.7726  -0.2090  -0.0939   0.3369
     0.4932   0.5550   0.7072   0.8111   1.0544   1.1299   1.2926   1.3523
     1.4440   1.5410   1.5528   1.6504

          k = 0.1667 0.4811 0.0000 (109606 PWs)   bands (ev):

   -78.6746 -78.6522 -75.2067 -75.1884 -50.0078 -50.0069 -50.0068 -49.9862
   -49.9845 -49.9845 -46.5998 -46.5907 -46.5905 -46.5812 -46.5727 -46.5725
   -18.2744 -18.1762 -17.9540 -17.8554 -17.6918 -17.6237 -17.5671 -17.4975
   -17.4646 -17.4047 -17.3696 -17.3306 -10.3879 -10.0848  -9.9757  -9.8322
    -9.6344  -9.5971  -9.3952  -9.3804  -9.1891  -9.0879  -8.9791  -8.9035
    -8.8521  -8.6815  -8.5908  -8.5265  -8.5020  -8.4080  -8.2954  -8.0683
    -7.9105  -7.8473  -7.7260  -7.6044  -7.5645  -7.4131  -7.3709  -7.2519
    -7.1204  -7.0246  -6.9535  -6.8112  -6.8099  -6.6950  -6.5565  -6.5050
    -6.4668  -6.3201  -6.2894  -6.1584  -6.0157  -5.9415  -4.5246  -4.4697
    -4.4108  -4.2318  -2.3175  -2.2321  -2.2050  -2.1856  -2.0859  -1.9713
    -1.8763  -1.7061  -1.6411  -1.6357  -0.9588  -0.4683  -0.3549   0.1434
     0.2680   0.5171   0.6276   0.6500   0.8682   0.9669   1.1116   1.2127
     1.2668   1.3319   1.4254   1.5175

          k = 0.3333 0.5774 0.0000 (109542 PWs)   bands (ev):

   -78.6746 -78.6522 -75.2067 -75.1884 -50.0078 -50.0069 -50.0068 -49.9862
   -49.9845 -49.9845 -46.5998 -46.5907 -46.5905 -46.5812 -46.5728 -46.5725
   -18.1030 -18.0964 -18.0149 -17.9964 -17.7455 -17.6293 -17.5418 -17.5257
   -17.4513 -17.4171 -17.3792 -17.3452 -10.1434 -10.0901 -10.0874  -9.6708
    -9.6615  -9.5480  -9.5381  -9.2354  -9.2328  -9.0279  -8.9323  -8.9307
    -8.9270  -8.7620  -8.6474  -8.6454  -8.4702  -8.3344  -8.3296  -8.2599
    -7.9168  -7.8968  -7.8839  -7.6432  -7.5377  -7.2336  -7.2152  -7.1718
    -7.0705  -7.0322  -6.9861  -6.8613  -6.7079  -6.6648  -6.5724  -6.5383
    -6.3648  -6.3614  -6.2503  -6.2180  -5.9765  -5.9521  -4.5321  -4.4158
    -4.3873  -4.1479  -2.2641  -2.2625  -2.2097  -2.1732  -2.1166  -2.1039
    -1.8587  -1.6486  -1.6115  -1.6090  -0.8906  -0.8653  -0.3004  -0.2833
     0.1848   0.3264   0.3275   0.5330   0.5872   0.6383   0.9227   0.9652
     1.1091   1.3169   1.3660   1.4029

          k =-0.1667 0.0962 0.0000 (109722 PWs)   bands (ev):

   -78.6745 -78.6522 -75.2067 -75.1884 -50.0077 -50.0068 -50.0068 -49.9861
   -49.9845 -49.9845 -46.5998 -46.5907 -46.5906 -46.5812 -46.5726 -46.5726
   -18.5773 -18.4667 -17.7950 -17.6304 -17.6220 -17.5747 -17.5214 -17.4641
   -17.3779 -17.3718 -17.3031 -17.3024 -10.4684 -10.2491 -10.0246  -9.9091
    -9.9013  -9.6498  -9.6459  -9.4294  -9.0867  -9.0436  -8.8705  -8.8336
    -8.7929  -8.7165  -8.6755  -8.6416  -8.6194  -8.3129  -8.1544  -8.1379
    -8.0581  -7.9276  -7.7292  -7.6648  -7.6095  -7.4438  -7.3535  -7.3265
    -7.2141  -7.1434  -7.0909  -7.0539  -6.8048  -6.4646  -6.4338  -6.3383
    -6.3167  -6.2467  -6.1190  -5.9776  -5.9449  -5.7795  -4.5623  -4.5378
    -4.2927  -4.1531  -2.2468  -2.2090  -2.1792  -2.1529  -2.0154  -1.9677
    -1.7541  -1.7367  -1.6987  -1.6511  -0.8407  -0.2020  -0.0123   0.2829
     0.3709   0.5179   0.6333   0.7447   0.8454   1.0483   1.3563   1.4831
     1.6183   1.7107   1.8178   1.8590

          k = 0.1667 0.0962 0.0000 (109722 PWs)   bands (ev):

   -78.6745 -78.6522 -75.2067 -75.1884 -50.0077 -50.0068 -50.0068 -49.9861
   -49.9845 -49.9845 -46.5998 -46.5906 -46.5906 -46.5812 -46.5726 -46.5726
   -18.5773 -18.4667 -17.7950 -17.6304 -17.6220 -17.5747 -17.5213 -17.4641
   -17.3779 -17.3718 -17.3031 -17.3024 -10.4684 -10.2491 -10.0246  -9.9091
    -9.9013  -9.6498  -9.6459  -9.4294  -9.0867  -9.0436  -8.8705  -8.8336
    -8.7929  -8.7165  -8.6755  -8.6416  -8.6194  -8.3129  -8.1544  -8.1379
    -8.0581  -7.9276  -7.7292  -7.6648  -7.6094  -7.4439  -7.3535  -7.3265
    -7.2141  -7.1434  -7.0909  -7.0539  -6.8048  -6.4646  -6.4338  -6.3383
    -6.3167  -6.2467  -6.1190  -5.9776  -5.9449  -5.7795  -4.5623  -4.5378
    -4.2927  -4.1531  -2.2468  -2.2090  -2.1792  -2.1529  -2.0154  -1.9677
    -1.7541  -1.7367  -1.6987  -1.6511  -0.8407  -0.2020  -0.0123   0.2829
     0.3709   0.5179   0.6332   0.7447   0.8454   1.0483   1.3563   1.4831
     1.6183   1.7107   1.8178   1.8590

          k =-0.3333 0.1925 0.0000 (109616 PWs)   bands (ev):

   -78.6745 -78.6522 -75.2067 -75.1884 -50.0078 -50.0069 -50.0068 -49.9861
   -49.9845 -49.9844 -46.5998 -46.5907 -46.5905 -46.5812 -46.5727 -46.5725
   -18.4137 -18.3072 -17.8350 -17.7277 -17.6947 -17.6288 -17.5452 -17.5062
   -17.4309 -17.3871 -17.3427 -17.3213 -10.4875 -10.1112  -9.9714  -9.9372
    -9.7672  -9.5683  -9.4891  -9.3791  -9.2191  -9.0038  -8.9805  -8.8679
    -8.8230  -8.7131  -8.5822  -8.5337  -8.4718  -8.3219  -8.1741  -8.1153
    -7.8726  -7.8445  -7.7353  -7.6355  -7.5569  -7.4274  -7.3569  -7.1905
    -7.1348  -7.1096  -7.0147  -6.9694  -6.7874  -6.7256  -6.5055  -6.4732
    -6.4448  -6.3557  -6.3134  -6.1063  -6.0240  -5.8945  -4.5483  -4.4776
    -4.4106  -4.3021  -2.2982  -2.2367  -2.2156  -2.1282  -2.0582  -1.8708
    -1.8396  -1.7604  -1.7202  -1.6580  -0.8792  -0.2558  -0.0136   0.4272
     0.5792   0.6994   0.8243   0.9245   1.0135   1.0539   1.1407   1.2190
     1.3227   1.4604   1.5212   1.6263

          k = 0.3333 0.1925 0.0000 (109616 PWs)   bands (ev):

   -78.6745 -78.6522 -75.2067 -75.1884 -50.0078 -50.0069 -50.0068 -49.9861
   -49.9845 -49.9844 -46.5998 -46.5907 -46.5905 -46.5812 -46.5727 -46.5725
   -18.4137 -18.3072 -17.8350 -17.7277 -17.6947 -17.6288 -17.5452 -17.5062
   -17.4309 -17.3871 -17.3427 -17.3213 -10.4875 -10.1113  -9.9714  -9.9372
    -9.7672  -9.5683  -9.4891  -9.3791  -9.2191  -9.0038  -8.9805  -8.8679
    -8.8230  -8.7131  -8.5822  -8.5337  -8.4718  -8.3219  -8.1741  -8.1153
    -7.8726  -7.8445  -7.7353  -7.6355  -7.5569  -7.4274  -7.3569  -7.1904
    -7.1348  -7.1096  -7.0147  -6.9694  -6.7874  -6.7256  -6.5055  -6.4732
    -6.4448  -6.3557  -6.3134  -6.1063  -6.0240  -5.8946  -4.5483  -4.4777
    -4.4105  -4.3021  -2.2982  -2.2367  -2.2156  -2.1282  -2.0582  -1.8708
    -1.8396  -1.7604  -1.7202  -1.6580  -0.8792  -0.2558  -0.0136   0.4272
     0.5792   0.6994   0.8243   0.9245   1.0135   1.0539   1.1408   1.2190
     1.3227   1.4604   1.5212   1.6263

          k = 0.5000-0.2887 0.0000 (109602 PWs)   bands (ev):

   -78.6746 -78.6522 -75.2067 -75.1884 -50.0078 -50.0069 -50.0068 -49.9862
   -49.9846 -49.9844 -46.5998 -46.5907 -46.5905 -46.5812 -46.5727 -46.5725
   -18.2491 -18.1702 -18.0017 -17.9003 -17.6538 -17.6047 -17.5275 -17.5190
   -17.4489 -17.4067 -17.3943 -17.3314 -10.5247  -9.9972  -9.9509  -9.9337
    -9.6315  -9.4603  -9.3934  -9.3138  -9.1940  -9.1835  -9.1048  -8.8990
    -8.6794  -8.6315  -8.5942  -8.5642  -8.4568  -8.3931  -8.1718  -8.1622
    -7.8816  -7.7623  -7.6584  -7.6104  -7.5714  -7.4929  -7.4078  -7.3333
    -7.1854  -7.0053  -6.9095  -6.8727  -6.7999  -6.6961  -6.5937  -6.5492
    -6.5065  -6.3606  -6.3037  -6.0896  -6.0158  -5.9225  -4.5202  -4.4770
    -4.4241  -4.3257  -2.3942  -2.2560  -2.2091  -2.1458  -2.0058  -1.9897
    -1.8786  -1.6791  -1.6741  -1.6679  -1.0928  -0.4753   0.0501   0.1134
     0.3938   0.7129   0.8440   0.9155   0.9447   1.1588   1.2209   1.2787
     1.3699   1.4355   1.5373   1.5798

          k =-0.5000-0.2887 0.0000 (109602 PWs)   bands (ev):

   -78.6746 -78.6522 -75.2067 -75.1884 -50.0078 -50.0069 -50.0068 -49.9862
   -49.9846 -49.9844 -46.5998 -46.5907 -46.5905 -46.5812 -46.5727 -46.5725
   -18.2491 -18.1702 -18.0017 -17.9003 -17.6538 -17.6047 -17.5275 -17.5190
   -17.4489 -17.4066 -17.3943 -17.3314 -10.5247  -9.9972  -9.9509  -9.9337
    -9.6315  -9.4603  -9.3935  -9.3138  -9.1940  -9.1835  -9.1048  -8.8990
    -8.6794  -8.6315  -8.5942  -8.5642  -8.4568  -8.3931  -8.1718  -8.1622
    -7.8816  -7.7623  -7.6584  -7.6103  -7.5714  -7.4929  -7.4078  -7.3333
    -7.1854  -7.0053  -6.9096  -6.8727  -6.7999  -6.6961  -6.5937  -6.5492
    -6.5065  -6.3606  -6.3037  -6.0896  -6.0158  -5.9226  -4.5202  -4.4771
    -4.4241  -4.3257  -2.3942  -2.2561  -2.2091  -2.1458  -2.0058  -1.9897
    -1.8786  -1.6791  -1.6741  -1.6679  -1.0928  -0.4753   0.0501   0.1134
     0.3938   0.7129   0.8440   0.9155   0.9447   1.1588   1.2209   1.2787
     1.3699   1.4355   1.5373   1.5798

          k =-0.1667 0.2887 0.0000 (109615 PWs)   bands (ev):

   -78.6745 -78.6522 -75.2067 -75.1884 -50.0078 -50.0069 -50.0068 -49.9861
   -49.9845 -49.9845 -46.5998 -46.5907 -46.5905 -46.5812 -46.5727 -46.5725
   -18.4651 -18.3563 -17.7556 -17.7283 -17.6630 -17.6237 -17.5678 -17.5175
   -17.4096 -17.3820 -17.3258 -17.3128 -10.4081 -10.2063 -10.0229  -9.9495
    -9.7335  -9.6312  -9.5173  -9.4216  -9.1548  -9.0876  -8.9229  -8.8662
    -8.7867  -8.6966  -8.6221  -8.5700  -8.5194  -8.3161  -8.1051  -8.0679
    -8.0084  -7.8641  -7.7558  -7.6703  -7.5307  -7.4772  -7.2933  -7.2286
    -7.1445  -7.0699  -7.0053  -6.9821  -6.8886  -6.5574  -6.5002  -6.4756
    -6.4007  -6.3082  -6.2802  -6.1197  -6.0181  -5.8767  -4.5521  -4.4960
    -4.4600  -4.1797  -2.2473  -2.2155  -2.2042  -2.1390  -2.1188  -1.8443
    -1.8046  -1.7659  -1.7045  -1.6766  -0.7726  -0.2090  -0.0939   0.3369
     0.4932   0.5550   0.7072   0.8111   1.0544   1.1299   1.2926   1.3523
     1.4440   1.5410   1.5528   1.6504

          k = 0.3333 0.0000 0.0000 (109615 PWs)   bands (ev):

   -78.6745 -78.6522 -75.2067 -75.1884 -50.0078 -50.0069 -50.0068 -49.9861
   -49.9845 -49.9845 -46.5998 -46.5907 -46.5905 -46.5812 -46.5727 -46.5725
   -18.4651 -18.3563 -17.7556 -17.7283 -17.6630 -17.6237 -17.5678 -17.5175
   -17.4097 -17.3820 -17.3258 -17.3129 -10.4081 -10.2063 -10.0229  -9.9495
    -9.7335  -9.6312  -9.5173  -9.4216  -9.1548  -9.0876  -8.9229  -8.8662
    -8.7867  -8.6966  -8.6221  -8.5700  -8.5194  -8.3161  -8.1051  -8.0679
    -8.0084  -7.8641  -7.7558  -7.6703  -7.5307  -7.4772  -7.2933  -7.2286
    -7.1445  -7.0699  -7.0053  -6.9821  -6.8886  -6.5573  -6.5002  -6.4756
    -6.4007  -6.3082  -6.2802  -6.1197  -6.0181  -5.8767  -4.5521  -4.4960
    -4.4600  -4.1797  -2.2474  -2.2155  -2.2042  -2.1389  -2.1189  -1.8443
    -1.8046  -1.7659  -1.7046  -1.6766  -0.7726  -0.2090  -0.0939   0.3369
     0.4932   0.5550   0.7072   0.8111   1.0544   1.1299   1.2926   1.3523
     1.4440   1.5410   1.5528   1.6504

          k =-0.1667 0.4811 0.0000 (109606 PWs)   bands (ev):

   -78.6746 -78.6522 -75.2067 -75.1884 -50.0078 -50.0069 -50.0068 -49.9862
   -49.9845 -49.9845 -46.5998 -46.5907 -46.5905 -46.5812 -46.5727 -46.5725
   -18.2745 -18.1759 -17.9551 -17.8540 -17.6930 -17.6229 -17.5671 -17.4975
   -17.4650 -17.4037 -17.3710 -17.3301 -10.3882 -10.0834  -9.9723  -9.8430
    -9.6306  -9.5925  -9.3956  -9.3786  -9.1980  -9.0757  -8.9782  -8.9057
    -8.8685  -8.6658  -8.5992  -8.5150  -8.5057  -8.4119  -8.2910  -8.0749
    -7.9244  -7.8441  -7.6907  -7.6158  -7.5796  -7.4081  -7.3690  -7.2513
    -7.1292  -7.0049  -6.9675  -6.8601  -6.7703  -6.6697  -6.5787  -6.4937
    -6.4586  -6.3409  -6.2930  -6.1495  -6.0066  -5.9490  -4.5239  -4.4738
    -4.4079  -4.2313  -2.3163  -2.2315  -2.2039  -2.1883  -2.0858  -1.9714
    -1.8773  -1.7064  -1.6407  -1.6352  -0.9588  -0.4566  -0.3700   0.1494
     0.2866   0.4708   0.6139   0.6820   0.8614   0.9773   1.1104   1.1752
     1.2907   1.3558   1.4698   1.5197

          k =-0.3333 0.3849 0.0000 (109606 PWs)   bands (ev):

   -78.6746 -78.6522 -75.2067 -75.1884 -50.0078 -50.0069 -50.0068 -49.9862
   -49.9845 -49.9845 -46.5998 -46.5907 -46.5905 -46.5812 -46.5727 -46.5725
   -18.2744 -18.1762 -17.9540 -17.8554 -17.6918 -17.6237 -17.5671 -17.4975
   -17.4646 -17.4047 -17.3696 -17.3306 -10.3879 -10.0848  -9.9757  -9.8322
    -9.6344  -9.5971  -9.3952  -9.3804  -9.1891  -9.0879  -8.9791  -8.9035
    -8.8521  -8.6815  -8.5908  -8.5265  -8.5020  -8.4080  -8.2954  -8.0683
    -7.9105  -7.8473  -7.7260  -7.6044  -7.5645  -7.4131  -7.3709  -7.2519
    -7.1204  -7.0246  -6.9535  -6.8112  -6.8099  -6.6950  -6.5565  -6.5050
    -6.4669  -6.3201  -6.2894  -6.1584  -6.0157  -5.9415  -4.5246  -4.4697
    -4.4108  -4.2318  -2.3175  -2.2321  -2.2050  -2.1855  -2.0859  -1.9713
    -1.8762  -1.7061  -1.6411  -1.6357  -0.9588  -0.4683  -0.3549   0.1434
     0.2680   0.5171   0.6276   0.6500   0.8682   0.9669   1.1116   1.2127
     1.2668   1.3319   1.4254   1.5175

          k = 0.5000 0.0962 0.0000 (109606 PWs)   bands (ev):

   -78.6746 -78.6522 -75.2067 -75.1884 -50.0078 -50.0069 -50.0068 -49.9862
   -49.9845 -49.9845 -46.5998 -46.5907 -46.5905 -46.5812 -46.5727 -46.5725
   -18.2744 -18.1762 -17.9540 -17.8554 -17.6918 -17.6237 -17.5671 -17.4975
   -17.4646 -17.4047 -17.3695 -17.3306 -10.3879 -10.0848  -9.9757  -9.8322
    -9.6344  -9.5971  -9.3952  -9.3804  -9.1891  -9.0879  -8.9791  -8.9035
    -8.8521  -8.6815  -8.5908  -8.5265  -8.5020  -8.4080  -8.2954  -8.0683
    -7.9104  -7.8474  -7.7260  -7.6044  -7.5645  -7.4131  -7.3709  -7.2519
    -7.1204  -7.0246  -6.9535  -6.8112  -6.8099  -6.6951  -6.5565  -6.5050
    -6.4669  -6.3201  -6.2894  -6.1584  -6.0157  -5.9415  -4.5246  -4.4697
    -4.4108  -4.2318  -2.3176  -2.2321  -2.2050  -2.1855  -2.0859  -1.9713
    -1.8762  -1.7061  -1.6411  -1.6357  -0.9588  -0.4683  -0.3549   0.1434
     0.2680   0.5171   0.6276   0.6500   0.8682   0.9669   1.1116   1.2127
     1.2668   1.3318   1.4254   1.5175

          k =-0.3333-0.3849 0.0000 (109606 PWs)   bands (ev):

   -78.6746 -78.6522 -75.2067 -75.1884 -50.0078 -50.0069 -50.0068 -49.9862
   -49.9845 -49.9845 -46.5998 -46.5907 -46.5905 -46.5812 -46.5727 -46.5725
   -18.2745 -18.1759 -17.9551 -17.8540 -17.6930 -17.6229 -17.5671 -17.4975
   -17.4650 -17.4036 -17.3710 -17.3301 -10.3882 -10.0835  -9.9723  -9.8430
    -9.6306  -9.5925  -9.3956  -9.3786  -9.1980  -9.0757  -8.9782  -8.9057
    -8.8685  -8.6658  -8.5992  -8.5150  -8.5057  -8.4119  -8.2910  -8.0749
    -7.9244  -7.8441  -7.6907  -7.6158  -7.5796  -7.4081  -7.3690  -7.2513
    -7.1292  -7.0049  -6.9675  -6.8601  -6.7703  -6.6697  -6.5787  -6.4937
    -6.4586  -6.3409  -6.2930  -6.1495  -6.0065  -5.9490  -4.5239  -4.4738
    -4.4079  -4.2313  -2.3164  -2.2315  -2.2039  -2.1882  -2.0858  -1.9714
    -1.8773  -1.7064  -1.6407  -1.6352  -0.9588  -0.4566  -0.3700   0.1494
     0.2866   0.4708   0.6139   0.6820   0.8614   0.9773   1.1104   1.1752
     1.2907   1.3558   1.4698   1.5197

          k = 0.5000-0.0962 0.0000 (109606 PWs)   bands (ev):

   -78.6746 -78.6522 -75.2067 -75.1884 -50.0078 -50.0069 -50.0068 -49.9862
   -49.9845 -49.9845 -46.5998 -46.5907 -46.5905 -46.5812 -46.5727 -46.5725
   -18.2745 -18.1759 -17.9551 -17.8540 -17.6930 -17.6229 -17.5671 -17.4975
   -17.4650 -17.4036 -17.3710 -17.3301 -10.3882 -10.0834  -9.9723  -9.8430
    -9.6306  -9.5925  -9.3956  -9.3786  -9.1980  -9.0757  -8.9782  -8.9057
    -8.8685  -8.6658  -8.5992  -8.5150  -8.5057  -8.4119  -8.2910  -8.0749
    -7.9244  -7.8441  -7.6907  -7.6158  -7.5796  -7.4081  -7.3690  -7.2513
    -7.1292  -7.0049  -6.9675  -6.8601  -6.7703  -6.6698  -6.5787  -6.4937
    -6.4586  -6.3409  -6.2930  -6.1495  -6.0066  -5.9490  -4.5239  -4.4738
    -4.4080  -4.2313  -2.3164  -2.2315  -2.2039  -2.1883  -2.0858  -1.9714
    -1.8773  -1.7064  -1.6407  -1.6352  -0.9588  -0.4566  -0.3700   0.1494
     0.2866   0.4708   0.6140   0.6820   0.8614   0.9773   1.1104   1.1752
     1.2907   1.3558   1.4698   1.5197

 ------ SPIN DOWN ----------


          k = 0.0000 0.0000 0.0000 (109591 PWs)   bands (ev):

   -78.6746 -78.6522 -75.2068 -75.1884 -50.0078 -50.0068 -50.0068 -49.9861
   -49.9845 -49.9845 -46.5999 -46.5907 -46.5906 -46.5811 -46.5726 -46.5726
   -18.6367 -18.5255 -17.8321 -17.6536 -17.5435 -17.5435 -17.4391 -17.4391
   -17.3679 -17.3678 -17.2958 -17.2958 -10.4928 -10.2948 -10.0427  -9.8130
    -9.8130  -9.7856  -9.7856  -9.4385  -9.0099  -9.0099  -8.8380  -8.7984
    -8.7692  -8.7692  -8.7104  -8.6609  -8.6608  -8.6035  -8.1824  -8.1823
    -7.9436  -7.9435  -7.9422  -7.5544  -7.5544  -7.4098  -7.3878  -7.3878
    -7.2715  -7.1892  -7.1891  -7.1818  -6.9233  -6.3700  -6.3700  -6.2531
    -6.2531  -6.1866  -5.8891  -5.8891  -5.7133  -5.7133  -4.5647  -4.5647
    -4.1078  -4.1077  -2.2198  -2.2198  -2.1459  -2.1459  -2.1215  -1.9837
    -1.7587  -1.7587  -1.5936  -1.5935  -0.9369  -0.5009  -0.2375   0.0246
     0.0934   0.2069   0.9155   1.0070   1.0070   1.1280   1.1280   1.2801
     1.7437   1.8369   1.8369   1.9362

          k = 0.0000 0.1925 0.0000 (109722 PWs)   bands (ev):

   -78.6746 -78.6522 -75.2068 -75.1884 -50.0078 -50.0069 -50.0068 -49.9861
   -49.9845 -49.9845 -46.5999 -46.5907 -46.5906 -46.5811 -46.5726 -46.5725
   -18.5773 -18.4667 -17.7950 -17.6304 -17.6220 -17.5747 -17.5214 -17.4641
   -17.3779 -17.3718 -17.3031 -17.3024 -10.4684 -10.2491 -10.0246  -9.9091
    -9.9013  -9.6498  -9.6459  -9.4294  -9.0867  -9.0436  -8.8705  -8.8336
    -8.7929  -8.7165  -8.6755  -8.6416  -8.6194  -8.3129  -8.1544  -8.1379
    -8.0581  -7.9276  -7.7292  -7.6648  -7.6094  -7.4439  -7.3535  -7.3265
    -7.2141  -7.1434  -7.0909  -7.0539  -6.8048  -6.4645  -6.4338  -6.3383
    -6.3167  -6.2467  -6.1190  -5.9776  -5.9449  -5.7795  -4.5623  -4.5379
    -4.2927  -4.1531  -2.2468  -2.2090  -2.1792  -2.1529  -2.0154  -1.9677
    -1.7541  -1.7367  -1.6987  -1.6511  -0.8407  -0.2020  -0.0123   0.2829
     0.3709   0.5179   0.6332   0.7447   0.8454   1.0483   1.3563   1.4830
     1.6183   1.7107   1.8178   1.8590

          k = 0.0000 0.3849 0.0000 (109616 PWs)   bands (ev):

   -78.6746 -78.6522 -75.2067 -75.1884 -50.0078 -50.0069 -50.0068 -49.9862
   -49.9845 -49.9845 -46.5998 -46.5907 -46.5905 -46.5811 -46.5726 -46.5725
   -18.4137 -18.3072 -17.8350 -17.7277 -17.6947 -17.6288 -17.5452 -17.5062
   -17.4309 -17.3871 -17.3427 -17.3213 -10.4875 -10.1113  -9.9714  -9.9372
    -9.7672  -9.5683  -9.4891  -9.3791  -9.2191  -9.0038  -8.9805  -8.8679
    -8.8230  -8.7131  -8.5822  -8.5337  -8.4718  -8.3219  -8.1741  -8.1153
    -7.8726  -7.8445  -7.7353  -7.6355  -7.5569  -7.4274  -7.3569  -7.1904
    -7.1348  -7.1096  -7.0147  -6.9694  -6.7874  -6.7256  -6.5055  -6.4732
    -6.4448  -6.3557  -6.3134  -6.1063  -6.0240  -5.8946  -4.5483  -4.4777
    -4.4105  -4.3021  -2.2982  -2.2367  -2.2156  -2.1282  -2.0582  -1.8708
    -1.8396  -1.7604  -1.7202  -1.6580  -0.8792  -0.2558  -0.0136   0.4272
     0.5792   0.6994   0.8243   0.9245   1.0135   1.0539   1.1408   1.2190
     1.3227   1.4604   1.5212   1.6263

          k = 0.0000-0.5774 0.0000 (109602 PWs)   bands (ev):

   -78.6746 -78.6522 -75.2067 -75.1884 -50.0078 -50.0069 -50.0068 -49.9862
   -49.9846 -49.9845 -46.5998 -46.5907 -46.5905 -46.5811 -46.5727 -46.5725
   -18.2491 -18.1702 -18.0017 -17.9003 -17.6538 -17.6047 -17.5275 -17.5190
   -17.4489 -17.4067 -17.3943 -17.3314 -10.5247  -9.9972  -9.9509  -9.9337
    -9.6315  -9.4603  -9.3935  -9.3138  -9.1940  -9.1835  -9.1048  -8.8990
    -8.6794  -8.6315  -8.5942  -8.5642  -8.4568  -8.3931  -8.1718  -8.1622
    -7.8816  -7.7623  -7.6583  -7.6104  -7.5714  -7.4929  -7.4078  -7.3333
    -7.1854  -7.0053  -6.9096  -6.8727  -6.7999  -6.6961  -6.5937  -6.5492
    -6.5065  -6.3606  -6.3037  -6.0896  -6.0158  -5.9226  -4.5202  -4.4771
    -4.4241  -4.3257  -2.3942  -2.2560  -2.2091  -2.1458  -2.0058  -1.9897
    -1.8786  -1.6791  -1.6741  -1.6679  -1.0928  -0.4753   0.0501   0.1134
     0.3938   0.7129   0.8440   0.9155   0.9447   1.1588   1.2209   1.2787
     1.3699   1.4355   1.5373   1.5798

          k = 0.1667 0.2887 0.0000 (109615 PWs)   bands (ev):

   -78.6746 -78.6522 -75.2067 -75.1884 -50.0078 -50.0069 -50.0068 -49.9862
   -49.9845 -49.9845 -46.5998 -46.5907 -46.5906 -46.5811 -46.5726 -46.5725
   -18.4651 -18.3563 -17.7556 -17.7283 -17.6630 -17.6237 -17.5678 -17.5175
   -17.4096 -17.3820 -17.3258 -17.3129 -10.4081 -10.2063 -10.0229  -9.9494
    -9.7335  -9.6312  -9.5173  -9.4216  -9.1548  -9.0876  -8.9229  -8.8662
    -8.7867  -8.6966  -8.6221  -8.5700  -8.5194  -8.3161  -8.1051  -8.0679
    -8.0084  -7.8641  -7.7558  -7.6703  -7.5307  -7.4772  -7.2933  -7.2286
    -7.1445  -7.0699  -7.0053  -6.9821  -6.8886  -6.5573  -6.5002  -6.4756
    -6.4007  -6.3082  -6.2802  -6.1197  -6.0181  -5.8767  -4.5521  -4.4961
    -4.4600  -4.1797  -2.2473  -2.2155  -2.2042  -2.1389  -2.1188  -1.8443
    -1.8046  -1.7659  -1.7045  -1.6766  -0.7726  -0.2090  -0.0939   0.3369
     0.4932   0.5550   0.7072   0.8111   1.0544   1.1299   1.2926   1.3523
     1.4440   1.5410   1.5528   1.6504

          k = 0.1667 0.4811 0.0000 (109606 PWs)   bands (ev):

   -78.6746 -78.6522 -75.2067 -75.1884 -50.0078 -50.0069 -50.0068 -49.9862
   -49.9846 -49.9845 -46.5998 -46.5907 -46.5905 -46.5811 -46.5727 -46.5725
   -18.2744 -18.1762 -17.9540 -17.8554 -17.6918 -17.6237 -17.5671 -17.4975
   -17.4646 -17.4047 -17.3696 -17.3306 -10.3879 -10.0849  -9.9757  -9.8322
    -9.6344  -9.5971  -9.3952  -9.3804  -9.1891  -9.0879  -8.9791  -8.9035
    -8.8521  -8.6815  -8.5908  -8.5265  -8.5020  -8.4080  -8.2954  -8.0683
    -7.9105  -7.8473  -7.7260  -7.6044  -7.5645  -7.4131  -7.3709  -7.2519
    -7.1204  -7.0246  -6.9535  -6.8112  -6.8099  -6.6950  -6.5565  -6.5050
    -6.4669  -6.3201  -6.2894  -6.1584  -6.0157  -5.9415  -4.5246  -4.4697
    -4.4108  -4.2318  -2.3175  -2.2321  -2.2050  -2.1855  -2.0859  -1.9713
    -1.8762  -1.7061  -1.6411  -1.6357  -0.9588  -0.4683  -0.3549   0.1434
     0.2680   0.5171   0.6276   0.6500   0.8682   0.9669   1.1116   1.2127
     1.2669   1.3319   1.4254   1.5175

          k = 0.3333 0.5774 0.0000 (109542 PWs)   bands (ev):

   -78.6746 -78.6523 -75.2067 -75.1883 -50.0078 -50.0069 -50.0068 -49.9862
   -49.9846 -49.9845 -46.5998 -46.5907 -46.5905 -46.5811 -46.5727 -46.5724
   -18.1030 -18.0964 -18.0149 -17.9963 -17.7455 -17.6293 -17.5418 -17.5257
   -17.4513 -17.4171 -17.3792 -17.3452 -10.1434 -10.0901 -10.0874  -9.6708
    -9.6616  -9.5480  -9.5381  -9.2354  -9.2328  -9.0279  -8.9323  -8.9307
    -8.9270  -8.7620  -8.6474  -8.6454  -8.4702  -8.3344  -8.3296  -8.2599
    -7.9168  -7.8968  -7.8839  -7.6432  -7.5377  -7.2336  -7.2152  -7.1718
    -7.0705  -7.0323  -6.9861  -6.8613  -6.7079  -6.6648  -6.5724  -6.5383
    -6.3648  -6.3614  -6.2503  -6.2180  -5.9765  -5.9521  -4.5321  -4.4158
    -4.3873  -4.1479  -2.2641  -2.2625  -2.2097  -2.1731  -2.1166  -2.1039
    -1.8587  -1.6485  -1.6115  -1.6090  -0.8906  -0.8653  -0.3004  -0.2833
     0.1848   0.3264   0.3275   0.5330   0.5872   0.6383   0.9227   0.9652
     1.1091   1.3170   1.3660   1.4029

          k =-0.1667 0.0962 0.0000 (109722 PWs)   bands (ev):

   -78.6746 -78.6522 -75.2068 -75.1884 -50.0078 -50.0069 -50.0068 -49.9861
   -49.9845 -49.9845 -46.5999 -46.5907 -46.5906 -46.5811 -46.5726 -46.5725
   -18.5773 -18.4667 -17.7950 -17.6304 -17.6220 -17.5747 -17.5214 -17.4641
   -17.3779 -17.3718 -17.3031 -17.3024 -10.4684 -10.2491 -10.0246  -9.9091
    -9.9013  -9.6498  -9.6459  -9.4294  -9.0867  -9.0436  -8.8705  -8.8336
    -8.7929  -8.7165  -8.6755  -8.6416  -8.6194  -8.3129  -8.1544  -8.1379
    -8.0581  -7.9276  -7.7292  -7.6648  -7.6094  -7.4439  -7.3535  -7.3265
    -7.2141  -7.1434  -7.0909  -7.0539  -6.8048  -6.4646  -6.4338  -6.3383
    -6.3167  -6.2467  -6.1190  -5.9776  -5.9449  -5.7795  -4.5623  -4.5379
    -4.2927  -4.1531  -2.2468  -2.2090  -2.1792  -2.1529  -2.0154  -1.9677
    -1.7541  -1.7367  -1.6987  -1.6511  -0.8407  -0.2020  -0.0123   0.2829
     0.3709   0.5179   0.6333   0.7447   0.8454   1.0483   1.3563   1.4831
     1.6183   1.7107   1.8178   1.8590

          k = 0.1667 0.0962 0.0000 (109722 PWs)   bands (ev):

   -78.6746 -78.6522 -75.2068 -75.1884 -50.0078 -50.0069 -50.0068 -49.9861
   -49.9845 -49.9845 -46.5999 -46.5907 -46.5906 -46.5811 -46.5726 -46.5725
   -18.5773 -18.4667 -17.7950 -17.6304 -17.6220 -17.5747 -17.5214 -17.4641
   -17.3779 -17.3718 -17.3031 -17.3024 -10.4684 -10.2491 -10.0246  -9.9091
    -9.9013  -9.6498  -9.6459  -9.4294  -9.0867  -9.0436  -8.8705  -8.8336
    -8.7929  -8.7165  -8.6755  -8.6416  -8.6194  -8.3129  -8.1544  -8.1379
    -8.0581  -7.9276  -7.7292  -7.6648  -7.6094  -7.4438  -7.3535  -7.3265
    -7.2141  -7.1434  -7.0909  -7.0539  -6.8048  -6.4646  -6.4338  -6.3383
    -6.3167  -6.2467  -6.1190  -5.9776  -5.9449  -5.7795  -4.5623  -4.5378
    -4.2927  -4.1531  -2.2468  -2.2090  -2.1791  -2.1529  -2.0154  -1.9677
    -1.7541  -1.7367  -1.6987  -1.6511  -0.8407  -0.2020  -0.0123   0.2829
     0.3709   0.5179   0.6333   0.7447   0.8454   1.0483   1.3563   1.4831
     1.6183   1.7107   1.8178   1.8590

          k =-0.3333 0.1925 0.0000 (109616 PWs)   bands (ev):

   -78.6746 -78.6522 -75.2067 -75.1884 -50.0078 -50.0069 -50.0068 -49.9862
   -49.9845 -49.9845 -46.5998 -46.5907 -46.5905 -46.5811 -46.5726 -46.5725
   -18.4137 -18.3072 -17.8350 -17.7277 -17.6947 -17.6288 -17.5452 -17.5062
   -17.4308 -17.3871 -17.3427 -17.3213 -10.4875 -10.1112  -9.9714  -9.9372
    -9.7672  -9.5683  -9.4891  -9.3791  -9.2191  -9.0038  -8.9805  -8.8679
    -8.8230  -8.7131  -8.5822  -8.5337  -8.4718  -8.3219  -8.1741  -8.1153
    -7.8726  -7.8445  -7.7353  -7.6355  -7.5569  -7.4274  -7.3569  -7.1904
    -7.1348  -7.1096  -7.0148  -6.9694  -6.7874  -6.7256  -6.5055  -6.4732
    -6.4448  -6.3557  -6.3134  -6.1063  -6.0240  -5.8946  -4.5483  -4.4777
    -4.4106  -4.3021  -2.2982  -2.2367  -2.2156  -2.1282  -2.0582  -1.8708
    -1.8396  -1.7604  -1.7202  -1.6580  -0.8792  -0.2558  -0.0136   0.4272
     0.5792   0.6994   0.8243   0.9245   1.0135   1.0539   1.1407   1.2190
     1.3227   1.4604   1.5213   1.6263

          k = 0.3333 0.1925 0.0000 (109616 PWs)   bands (ev):

   -78.6746 -78.6522 -75.2067 -75.1884 -50.0078 -50.0069 -50.0068 -49.9862
   -49.9845 -49.9845 -46.5998 -46.5907 -46.5905 -46.5811 -46.5726 -46.5725
   -18.4137 -18.3072 -17.8350 -17.7277 -17.6947 -17.6288 -17.5452 -17.5062
   -17.4308 -17.3871 -17.3427 -17.3213 -10.4875 -10.1112  -9.9714  -9.9372
    -9.7672  -9.5683  -9.4891  -9.3791  -9.2191  -9.0038  -8.9805  -8.8680
    -8.8230  -8.7130  -8.5822  -8.5337  -8.4718  -8.3219  -8.1741  -8.1153
    -7.8726  -7.8445  -7.7353  -7.6355  -7.5569  -7.4274  -7.3569  -7.1904
    -7.1348  -7.1096  -7.0148  -6.9694  -6.7874  -6.7256  -6.5056  -6.4732
    -6.4448  -6.3557  -6.3134  -6.1063  -6.0240  -5.8945  -4.5483  -4.4777
    -4.4106  -4.3021  -2.2982  -2.2366  -2.2156  -2.1282  -2.0582  -1.8708
    -1.8396  -1.7604  -1.7202  -1.6580  -0.8792  -0.2558  -0.0136   0.4272
     0.5792   0.6994   0.8243   0.9245   1.0135   1.0539   1.1407   1.2190
     1.3227   1.4604   1.5212   1.6263

          k = 0.5000-0.2887 0.0000 (109602 PWs)   bands (ev):

   -78.6746 -78.6522 -75.2067 -75.1884 -50.0078 -50.0069 -50.0068 -49.9862
   -49.9846 -49.9845 -46.5998 -46.5907 -46.5905 -46.5811 -46.5727 -46.5725
   -18.2491 -18.1702 -18.0017 -17.9003 -17.6538 -17.6047 -17.5275 -17.5190
   -17.4489 -17.4067 -17.3943 -17.3314 -10.5247  -9.9972  -9.9509  -9.9337
    -9.6315  -9.4603  -9.3935  -9.3138  -9.1940  -9.1835  -9.1048  -8.8990
    -8.6794  -8.6315  -8.5942  -8.5642  -8.4568  -8.3931  -8.1718  -8.1622
    -7.8816  -7.7623  -7.6584  -7.6104  -7.5714  -7.4929  -7.4078  -7.3333
    -7.1854  -7.0053  -6.9095  -6.8727  -6.7999  -6.6961  -6.5937  -6.5492
    -6.5065  -6.3606  -6.3037  -6.0896  -6.0158  -5.9225  -4.5202  -4.4771
    -4.4241  -4.3257  -2.3942  -2.2560  -2.2091  -2.1458  -2.0058  -1.9897
    -1.8786  -1.6791  -1.6741  -1.6679  -1.0928  -0.4753   0.0501   0.1135
     0.3938   0.7129   0.8440   0.9155   0.9447   1.1588   1.2209   1.2787
     1.3699   1.4355   1.5373   1.5798

          k =-0.5000-0.2887 0.0000 (109602 PWs)   bands (ev):

   -78.6746 -78.6522 -75.2067 -75.1884 -50.0078 -50.0069 -50.0068 -49.9862
   -49.9846 -49.9844 -46.5998 -46.5907 -46.5905 -46.5811 -46.5727 -46.5725
   -18.2491 -18.1702 -18.0017 -17.9003 -17.6538 -17.6047 -17.5275 -17.5190
   -17.4489 -17.4067 -17.3943 -17.3314 -10.5247  -9.9972  -9.9509  -9.9337
    -9.6315  -9.4603  -9.3934  -9.3138  -9.1940  -9.1835  -9.1049  -8.8990
    -8.6794  -8.6315  -8.5942  -8.5642  -8.4568  -8.3931  -8.1718  -8.1621
    -7.8816  -7.7623  -7.6584  -7.6104  -7.5714  -7.4929  -7.4078  -7.3333
    -7.1854  -7.0053  -6.9095  -6.8727  -6.7999  -6.6961  -6.5936  -6.5492
    -6.5065  -6.3606  -6.3037  -6.0896  -6.0158  -5.9225  -4.5202  -4.4770
    -4.4241  -4.3257  -2.3942  -2.2560  -2.2091  -2.1458  -2.0058  -1.9897
    -1.8786  -1.6791  -1.6741  -1.6679  -1.0928  -0.4753   0.0501   0.1135
     0.3938   0.7129   0.8440   0.9155   0.9447   1.1588   1.2209   1.2787
     1.3699   1.4355   1.5373   1.5798

          k =-0.1667 0.2887 0.0000 (109615 PWs)   bands (ev):

   -78.6746 -78.6522 -75.2067 -75.1884 -50.0078 -50.0069 -50.0068 -49.9862
   -49.9845 -49.9845 -46.5998 -46.5907 -46.5906 -46.5811 -46.5726 -46.5725
   -18.4651 -18.3563 -17.7556 -17.7283 -17.6630 -17.6237 -17.5678 -17.5175
   -17.4096 -17.3820 -17.3258 -17.3129 -10.4081 -10.2063 -10.0229  -9.9495
    -9.7335  -9.6312  -9.5173  -9.4216  -9.1548  -9.0876  -8.9229  -8.8662
    -8.7867  -8.6966  -8.6221  -8.5700  -8.5194  -8.3161  -8.1051  -8.0679
    -8.0084  -7.8641  -7.7558  -7.6703  -7.5307  -7.4772  -7.2933  -7.2286
    -7.1445  -7.0699  -7.0053  -6.9821  -6.8886  -6.5573  -6.5002  -6.4756
    -6.4007  -6.3082  -6.2802  -6.1197  -6.0181  -5.8767  -4.5521  -4.4961
    -4.4599  -4.1797  -2.2474  -2.2155  -2.2042  -2.1389  -2.1189  -1.8443
    -1.8046  -1.7659  -1.7045  -1.6766  -0.7726  -0.2090  -0.0938   0.3369
     0.4932   0.5550   0.7072   0.8111   1.0544   1.1300   1.2926   1.3523
     1.4440   1.5410   1.5528   1.6504

          k = 0.3333 0.0000 0.0000 (109615 PWs)   bands (ev):

   -78.6746 -78.6522 -75.2067 -75.1884 -50.0078 -50.0069 -50.0068 -49.9862
   -49.9845 -49.9845 -46.5998 -46.5907 -46.5905 -46.5811 -46.5726 -46.5725
   -18.4651 -18.3563 -17.7556 -17.7283 -17.6630 -17.6237 -17.5678 -17.5175
   -17.4096 -17.3820 -17.3258 -17.3129 -10.4081 -10.2063 -10.0229  -9.9494
    -9.7335  -9.6312  -9.5173  -9.4216  -9.1548  -9.0876  -8.9229  -8.8662
    -8.7867  -8.6966  -8.6221  -8.5700  -8.5194  -8.3161  -8.1051  -8.0679
    -8.0084  -7.8641  -7.7559  -7.6703  -7.5307  -7.4772  -7.2933  -7.2286
    -7.1445  -7.0699  -7.0053  -6.9821  -6.8886  -6.5573  -6.5002  -6.4756
    -6.4007  -6.3082  -6.2802  -6.1197  -6.0181  -5.8767  -4.5521  -4.4961
    -4.4600  -4.1797  -2.2473  -2.2155  -2.2042  -2.1389  -2.1188  -1.8443
    -1.8046  -1.7659  -1.7045  -1.6766  -0.7726  -0.2090  -0.0939   0.3369
     0.4932   0.5550   0.7072   0.8111   1.0544   1.1299   1.2926   1.3523
     1.4440   1.5410   1.5528   1.6504

          k =-0.1667 0.4811 0.0000 (109606 PWs)   bands (ev):

   -78.6746 -78.6522 -75.2067 -75.1884 -50.0078 -50.0069 -50.0068 -49.9862
   -49.9845 -49.9845 -46.5998 -46.5907 -46.5905 -46.5811 -46.5727 -46.5725
   -18.2745 -18.1759 -17.9551 -17.8540 -17.6930 -17.6229 -17.5671 -17.4975
   -17.4651 -17.4036 -17.3710 -17.3301 -10.3882 -10.0834  -9.9723  -9.8430
    -9.6306  -9.5925  -9.3956  -9.3786  -9.1980  -9.0757  -8.9782  -8.9057
    -8.8685  -8.6658  -8.5992  -8.5150  -8.5057  -8.4119  -8.2910  -8.0749
    -7.9244  -7.8441  -7.6907  -7.6158  -7.5796  -7.4081  -7.3690  -7.2513
    -7.1292  -7.0049  -6.9675  -6.8601  -6.7703  -6.6697  -6.5787  -6.4938
    -6.4586  -6.3409  -6.2930  -6.1495  -6.0066  -5.9490  -4.5239  -4.4738
    -4.4080  -4.2313  -2.3164  -2.2315  -2.2039  -2.1883  -2.0858  -1.9714
    -1.8773  -1.7064  -1.6407  -1.6352  -0.9588  -0.4566  -0.3699   0.1494
     0.2866   0.4708   0.6140   0.6820   0.8614   0.9773   1.1104   1.1752
     1.2907   1.3558   1.4698   1.5197

          k =-0.3333 0.3849 0.0000 (109606 PWs)   bands (ev):

   -78.6746 -78.6522 -75.2067 -75.1884 -50.0078 -50.0069 -50.0068 -49.9862
   -49.9845 -49.9845 -46.5998 -46.5907 -46.5905 -46.5811 -46.5727 -46.5725
   -18.2744 -18.1762 -17.9540 -17.8554 -17.6918 -17.6237 -17.5671 -17.4975
   -17.4646 -17.4047 -17.3696 -17.3306 -10.3879 -10.0848  -9.9757  -9.8322
    -9.6344  -9.5971  -9.3952  -9.3804  -9.1890  -9.0879  -8.9791  -8.9035
    -8.8521  -8.6815  -8.5908  -8.5265  -8.5020  -8.4080  -8.2954  -8.0683
    -7.9105  -7.8473  -7.7260  -7.6044  -7.5645  -7.4131  -7.3709  -7.2519
    -7.1204  -7.0246  -6.9535  -6.8112  -6.8099  -6.6951  -6.5565  -6.5050
    -6.4669  -6.3201  -6.2894  -6.1584  -6.0157  -5.9415  -4.5246  -4.4697
    -4.4108  -4.2318  -2.3175  -2.2321  -2.2050  -2.1856  -2.0859  -1.9713
    -1.8762  -1.7061  -1.6411  -1.6357  -0.9588  -0.4683  -0.3549   0.1434
     0.2680   0.5171   0.6276   0.6500   0.8682   0.9669   1.1116   1.2127
     1.2668   1.3319   1.4254   1.5175

          k = 0.5000 0.0962 0.0000 (109606 PWs)   bands (ev):

   -78.6746 -78.6522 -75.2067 -75.1884 -50.0078 -50.0069 -50.0068 -49.9862
   -49.9846 -49.9845 -46.5998 -46.5907 -46.5905 -46.5811 -46.5727 -46.5725
   -18.2744 -18.1762 -17.9540 -17.8554 -17.6918 -17.6237 -17.5671 -17.4975
   -17.4646 -17.4047 -17.3696 -17.3306 -10.3879 -10.0848  -9.9757  -9.8321
    -9.6344  -9.5971  -9.3952  -9.3804  -9.1891  -9.0879  -8.9791  -8.9035
    -8.8521  -8.6815  -8.5908  -8.5265  -8.5020  -8.4080  -8.2954  -8.0683
    -7.9105  -7.8473  -7.7260  -7.6044  -7.5645  -7.4131  -7.3709  -7.2519
    -7.1204  -7.0246  -6.9535  -6.8112  -6.8099  -6.6950  -6.5565  -6.5050
    -6.4669  -6.3201  -6.2894  -6.1584  -6.0157  -5.9415  -4.5246  -4.4697
    -4.4108  -4.2318  -2.3175  -2.2321  -2.2050  -2.1855  -2.0859  -1.9713
    -1.8762  -1.7061  -1.6411  -1.6357  -0.9588  -0.4683  -0.3549   0.1434
     0.2680   0.5171   0.6276   0.6500   0.8682   0.9669   1.1116   1.2127
     1.2668   1.3319   1.4254   1.5175

          k =-0.3333-0.3849 0.0000 (109606 PWs)   bands (ev):

   -78.6746 -78.6522 -75.2067 -75.1884 -50.0078 -50.0069 -50.0068 -49.9862
   -49.9846 -49.9845 -46.5998 -46.5907 -46.5905 -46.5811 -46.5727 -46.5725
   -18.2745 -18.1759 -17.9551 -17.8540 -17.6930 -17.6229 -17.5671 -17.4975
   -17.4650 -17.4036 -17.3710 -17.3301 -10.3882 -10.0834  -9.9723  -9.8430
    -9.6306  -9.5925  -9.3956  -9.3786  -9.1979  -9.0757  -8.9782  -8.9057
    -8.8685  -8.6658  -8.5992  -8.5150  -8.5057  -8.4119  -8.2910  -8.0749
    -7.9244  -7.8441  -7.6907  -7.6158  -7.5796  -7.4081  -7.3690  -7.2513
    -7.1292  -7.0049  -6.9676  -6.8601  -6.7703  -6.6697  -6.5787  -6.4937
    -6.4586  -6.3409  -6.2930  -6.1495  -6.0066  -5.9490  -4.5239  -4.4738
    -4.4080  -4.2313  -2.3163  -2.2314  -2.2039  -2.1883  -2.0858  -1.9714
    -1.8773  -1.7064  -1.6407  -1.6352  -0.9588  -0.4567  -0.3700   0.1494
     0.2866   0.4708   0.6140   0.6820   0.8614   0.9773   1.1104   1.1752
     1.2907   1.3558   1.4698   1.5197

          k = 0.5000-0.0962 0.0000 (109606 PWs)   bands (ev):

   -78.6746 -78.6522 -75.2067 -75.1884 -50.0078 -50.0069 -50.0068 -49.9862
   -49.9846 -49.9845 -46.5998 -46.5907 -46.5905 -46.5811 -46.5727 -46.5725
   -18.2745 -18.1759 -17.9551 -17.8540 -17.6930 -17.6229 -17.5671 -17.4975
   -17.4650 -17.4036 -17.3710 -17.3301 -10.3882 -10.0835  -9.9723  -9.8430
    -9.6306  -9.5925  -9.3956  -9.3786  -9.1980  -9.0757  -8.9782  -8.9057
    -8.8685  -8.6658  -8.5992  -8.5150  -8.5057  -8.4119  -8.2910  -8.0749
    -7.9244  -7.8441  -7.6907  -7.6158  -7.5796  -7.4081  -7.3690  -7.2513
    -7.1292  -7.0049  -6.9675  -6.8601  -6.7703  -6.6697  -6.5787  -6.4937
    -6.4586  -6.3409  -6.2930  -6.1495  -6.0066  -5.9490  -4.5239  -4.4738
    -4.4079  -4.2313  -2.3164  -2.2314  -2.2039  -2.1882  -2.0858  -1.9714
    -1.8773  -1.7064  -1.6407  -1.6352  -0.9588  -0.4566  -0.3699   0.1494
     0.2866   0.4708   0.6139   0.6820   0.8614   0.9773   1.1104   1.1752
     1.2907   1.3558   1.4698   1.5197

     highest occupied, lowest unoccupied level (ev):    -5.7133   -4.5647

!    total energy              =   -5539.45260263 Ry
     total all-electron energy =     -5539.452603 Ry
     estimated scf accuracy    <          2.1E-12 Ry

     The total energy is the sum of the following terms:
     one-electron contribution =   -9586.63011200 Ry
     hartree contribution      =    4766.68133281 Ry
     xc contribution           =    -165.78924259 Ry
     ewald contribution        =    3989.39166454 Ry
     Hubbard energy            =       0.74206956 Ry
     one-center paw contrib.   =   -4543.84831494 Ry

     total magnetization       =    -0.00 Bohr mag/cell
     absolute magnetization    =    16.99 Bohr mag/cell

     convergence has been achieved in  25 iterations

     negative rho (up, down):  3.158E-02 3.157E-02

     Forces acting on atoms (cartesian axes, Ry/au):

     atom    1 type  1   force =    -0.00000178   -0.00000029   -0.00077505
     atom    2 type  1   force =     0.00000495    0.00000033   -0.00001173
     atom    3 type  2   force =     0.01328189   -0.00000068   -0.02040440
     atom    4 type  2   force =    -0.00664074   -0.01150156   -0.02040426
     atom    5 type  2   force =    -0.00664019    0.01150199   -0.02040246
     atom    6 type  2   force =    -0.01308248    0.00006247    0.02287500
     atom    7 type  2   force =     0.00659799    0.01129706    0.02287353
     atom    8 type  2   force =     0.00648543   -0.01136162    0.02287471
     atom    9 type  3   force =    -0.00000456    0.00000391    0.00001244
     atom   10 type  3   force =     0.00000206   -0.00000428    0.00077788
     atom   11 type  2   force =     0.01308260   -0.00006775   -0.02287464
     atom   12 type  2   force =    -0.00660030   -0.01129568   -0.02287465
     atom   13 type  2   force =    -0.00648233    0.01136423   -0.02287381
     atom   14 type  2   force =    -0.01328203   -0.00000354    0.02040290
     atom   15 type  2   force =     0.00663612    0.01150422    0.02040208
     atom   16 type  2   force =     0.00664335   -0.01149881    0.02040246

     Total force =     0.087884     Total SCF correction =     0.000004


     Computing stress (Cartesian axis) and pressure


     negative rho (up, down):  3.158E-02 3.157E-02
          total   stress  (Ry/bohr**3)                   (kbar)     P=       20.54
   0.00014151  -0.00000000  -0.00000000           20.82       -0.00       -0.00
  -0.00000000   0.00014151  -0.00000000           -0.00       20.82       -0.00
  -0.00000000  -0.00000000   0.00013592           -0.00       -0.00       20.00


     Writing all to output data dir ./lt_fm_afm_qe/lt_fm_afm_qe.save/ :
     XML data file, charge density, pseudopotentials, collected wavefunctions

     init_run     :     50.49s CPU     51.40s WALL (       1 calls)
     electrons    :   1918.52s CPU   1982.52s WALL (       1 calls)
     forces       :    386.40s CPU    389.95s WALL (       1 calls)
     stress       :   1532.65s CPU   1548.24s WALL (       1 calls)

     Called by init_run:
     wfcinit      :     47.55s CPU     48.21s WALL (       1 calls)
     potinit      :      1.11s CPU      1.19s WALL (       1 calls)
     hinit0       :      0.98s CPU      1.04s WALL (       1 calls)

     Called by electrons:
     c_bands      :   1576.63s CPU   1628.74s WALL (      25 calls)
     sum_band     :    298.54s CPU    307.29s WALL (      25 calls)
     v_of_rho     :      5.69s CPU      5.78s WALL (      26 calls)
     newd         :     13.39s CPU     15.80s WALL (      26 calls)
     PAW_pot      :     21.67s CPU     21.94s WALL (      26 calls)
     mix_rho      :      3.15s CPU      3.23s WALL (      25 calls)

     Called by c_bands:
     init_us_2    :     24.83s CPU     25.12s WALL (    2240 calls)
     init_us_2:cp :     24.81s CPU     25.11s WALL (    2240 calls)
     cegterg      :   1519.16s CPU   1570.37s WALL (    1000 calls)

     Called by *egterg:
     cdiaghg      :    146.29s CPU    147.20s WALL (    4006 calls)
     h_psi        :   1014.79s CPU   1039.55s WALL (    4046 calls)
     s_psi        :     63.81s CPU     64.38s WALL (    4246 calls)
     g_psi        :      8.85s CPU      8.96s WALL (    3006 calls)

     Called by h_psi:
     h_psi:calbec :     70.88s CPU     71.91s WALL (    4046 calls)
     vloc_psi     :    789.01s CPU    799.96s WALL (    4046 calls)
     add_vuspsi   :     56.58s CPU     57.07s WALL (    4046 calls)
     vhpsi        :     82.56s CPU     83.44s WALL (    4046 calls)

     General routines
     calbec       :    390.34s CPU    395.48s WALL (   72372 calls)
     fft          :      4.64s CPU      4.77s WALL (     688 calls)
     ffts         :      0.35s CPU      0.36s WALL (     102 calls)
     fftw         :    752.71s CPU    764.05s WALL (  614250 calls)
     interpolate  :      0.56s CPU      0.56s WALL (      52 calls)

     Parallel routines

     Hubbard U routines
     new_ns       :     14.81s CPU     15.38s WALL (      25 calls)
     vhpsi        :     82.56s CPU     83.44s WALL (    4046 calls)
     force_hub    :    378.62s CPU    381.99s WALL (       1 calls)
                                        0.00s GPU  (       1 calls)
     stres_hub    :   1401.20s CPU   1415.06s WALL (       1 calls)
                                        0.00s GPU  (       1 calls)

     PWSCF        :      1h 4m CPU      1h 7m WALL


   This run was terminated on:  15: 3:50  15Oct2025            

=------------------------------------------------------------------------------=
   JOB DONE.
=------------------------------------------------------------------------------=
