
     Program PWSCF v.7.3 starts on 15Oct2025 at 13:56:29 

     This program is part of the open-source Quantum ESPRESSO suite
     for quantum simulation of materials; please cite
         "P. Giannozzi et al., J. Phys.:Condens. Matter 21 395502 (2009);
         "P. Giannozzi et al., J. Phys.:Condens. Matter 29 465901 (2017);
         "P. Giannozzi et al., J. Chem. Phys. 152 154105 (2020);
          URL http://www.quantum-espresso.org", 
     in publications or presentations arising from this work. More details at
     http://www.quantum-espresso.org/quote

     Parallel version (MPI), running on    24 processors

     MPI processes distributed on     1 nodes
     60398 MiB available memory on the printing compute node when the environment starts

     Reading input from lt_fm_fm_qe.scf.in
Warning: card &CELL ignored
Warning: card / ignored

     Current dimensions of program PWSCF are:
     Max number of different atomic species (ntypx) = 10
     Max number of k-points (npk) =  40000
     Max angular momentum in pseudopotentials (lmaxx) =  4
read_pp_mesh; mismatch in mesh size, discarding the one in header
read_pp_mesh; mismatch in mesh size, discarding the one in header
     file Cr.GGA-PBE-paw.UPF: wavefunction(s)  3S 4S 3P 4P 3D 4D renormalized
     file I.GGA-PBE-paw.UPF: wavefunction(s)  6S 6P renormalized

     IMPORTANT: XC functional enforced from input :
     Exchange-correlation= PBE
                           (   1   4   3   4   0   0   0)
     Any further DFT definition will be discarded
     Please, verify this is what you really want

     Message from routine find_sym:
     Not a group! Trying with lower acceptance parameter...
     Message from routine find_sym:
     Symmetry operations form a group

     R & G space division:  proc/nbgrp/npool/nimage =      24
     Subspace diagonalization in iterative solution of the eigenvalue problem:
     a serial algorithm will be used


     Parallelization info
     --------------------
     sticks:   dense  smooth     PW     G-vecs:    dense   smooth      PW
     Min         179     174     46                38065    36532    5046
     Max         180     175     47                38082    36557    5059
     Sum        4303    4189   1123               913669   876961  121297

     Using Slab Decomposition



     bravais-lattice index     =            0
     lattice parameter (alat)  =      12.9956  a.u.
     unit-cell volume          =    7602.9282 (a.u.)^3
     number of atoms/cell      =           16
     number of atomic types    =            2
     number of electrons       =       140.00 (up:  76.00, down:  64.00)
     number of Kohn-Sham states=          100
     kinetic-energy cutoff     =      90.0000  Ry
     charge density cutoff     =     370.0000  Ry
     scf convergence threshold =      1.0E-11
     mixing beta               =       0.5000
     number of iterations used =            8  plain     mixing
     Exchange-correlation= PBE
                           (   1   4   3   4   0   0   0)
     Hubbard projectors: ortho-atomic
     Hubbard parameters of DFT+U (Dudarev formulation) in eV:
     U(Cr-3d) =  4.3700

     Internal variables: lda_plus_u =T, lda_plus_u_kind = 0

     celldm(1)=  12.995613  celldm(2)=   0.000000  celldm(3)=   0.000000
     celldm(4)=   0.000000  celldm(5)=   0.000000  celldm(6)=   0.000000

     crystal axes: (cart. coord. in units of alat)
               a(1) = (   1.000000  -0.000000   0.000000 )  
               a(2) = (  -0.500000   0.866025   0.000000 )  
               a(3) = (  -0.000000   0.000000   4.000000 )  

     reciprocal axes: (cart. coord. in units 2 pi/alat)
               b(1) = (  1.000000  0.577350  0.000000 )  
               b(2) = (  0.000000  1.154701  0.000000 )  
               b(3) = ( -0.000000 -0.000000  0.250000 )  


     PseudoPot. # 1 for Cr read from file:
     ../../Cr.GGA-PBE-paw.UPF
     MD5 check sum: 0e9dc003703e132720ff5dfacba66d28
     Pseudo is Projector augmented-wave + core cor, Zval = 14.0
     Generated using ATOMPAW code
     Shape of augmentation charge: SINC**2
     Using radial grid of 2342 points,  6 beta functions with: 
                l(1) =   0
                l(2) =   0
                l(3) =   1
                l(4) =   1
                l(5) =   2
                l(6) =   2
     Q(r) pseudized with 0 coefficients 


     PseudoPot. # 2 for I  read from file:
     ../../I.GGA-PBE-paw.UPF
     MD5 check sum: 736bb4145856fa7ed29d0984862794a4
     Pseudo is Projector augmented-wave + core cor, Zval =  7.0
     Generated using ATOMPAW code
     Shape of augmentation charge: SINC**2
     Using radial grid of 2342 points,  4 beta functions with: 
                l(1) =   0
                l(2) =   0
                l(3) =   1
                l(4) =   1
     Q(r) pseudized with 0 coefficients 


     atomic species   valence    mass     pseudopotential
     Cr               14.00    51.99610     Cr( 1.00)
     I                 7.00   126.90447     I ( 1.00)

     Starting magnetic structure 
     atomic species   magnetization
     Cr              0.214
     I               0.000

     No symmetry found



   Cartesian axes

     site n.     atom                  positions (alat units)
         1        Cr     tau(   1) = (   0.3333302   0.5773476   2.4771345  )
         2        Cr     tau(   2) = (  -0.1666653   0.8660272   2.4783670  )
         3        I      tau(   3) = (   0.4785934   0.2878151   2.2541471  )
         4        I      tau(   4) = (   0.0099554   0.5963201   2.2541472  )
         5        I      tau(   5) = (  -0.4885529   0.8479194   2.2541494  )
         6        I      tau(   6) = (   0.1887678   0.2890994   2.7012541  )
         7        I      tau(   7) = (   0.1559814   0.8466725   2.7012541  )
         8        I      tau(   8) = (  -0.3447532   0.5962818   2.7012518  )
         9        Cr     tau(   9) = (   0.8333317   0.2886782   1.5216322  )
        10        Cr     tau(  10) = (   0.3333282   0.5773496   1.5228650  )
        11        I      tau(  11) = (   0.9778967  -0.0004210   1.2987495  )
        12        I      tau(  12) = (   0.5106847   0.3080297   1.2987460  )
        13        I      tau(  13) = (   0.0114148   0.5584203   1.2987445  )
        14        I      tau(  14) = (   0.6880724   0.0008651   1.7458527  )
        15        I      tau(  15) = (   0.6567094   0.5583828   1.7458520  )
        16        I      tau(  16) = (   0.1552143   0.3067811   1.7458532  )

     number of k points=    20
                       cart. coord. in units 2pi/alat
        k(    1) = (   0.0000000   0.0000000   0.0000000), wk =   0.0277778
        k(    2) = (   0.0000000   0.1924501   0.0000000), wk =   0.0555556
        k(    3) = (   0.0000000   0.3849002   0.0000000), wk =   0.0555556
        k(    4) = (   0.0000000  -0.5773503   0.0000000), wk =   0.0277778
        k(    5) = (   0.1666667   0.2886751   0.0000000), wk =   0.0555556
        k(    6) = (   0.1666667   0.4811252   0.0000000), wk =   0.0555556
        k(    7) = (   0.3333333   0.5773503   0.0000000), wk =   0.0555556
        k(    8) = (  -0.1666667   0.0962250   0.0000000), wk =   0.0555556
        k(    9) = (   0.1666667   0.0962250   0.0000000), wk =   0.0555556
        k(   10) = (  -0.3333333   0.1924501   0.0000000), wk =   0.0555556
        k(   11) = (   0.3333333   0.1924501   0.0000000), wk =   0.0555556
        k(   12) = (   0.5000000  -0.2886751   0.0000000), wk =   0.0277778
        k(   13) = (  -0.5000000  -0.2886751   0.0000000), wk =   0.0277778
        k(   14) = (  -0.1666667   0.2886751   0.0000000), wk =   0.0555556
        k(   15) = (   0.3333333   0.0000000   0.0000000), wk =   0.0555556
        k(   16) = (  -0.3333333   0.3849002   0.0000000), wk =   0.0555556
        k(   17) = (  -0.1666667   0.4811252   0.0000000), wk =   0.0555556
        k(   18) = (   0.5000000   0.0962250   0.0000000), wk =   0.0555556
        k(   19) = (  -0.3333333  -0.3849002   0.0000000), wk =   0.0555556
        k(   20) = (   0.5000000  -0.0962250   0.0000000), wk =   0.0555556

     Dense  grid:   913669 G-vectors     FFT dimensions: (  80,  80, 320)

     Smooth grid:   876961 G-vectors     FFT dimensions: (  80,  80, 320)

     Estimated max dynamical RAM per process >     592.63 MB

     Estimated total dynamical RAM >      13.89 GB
 ----2D----2D----2D----2D----2D----2D----2D----2D----2D----2D----2D----2D
  The code is running with the 2D cutoff
  Please refer to:
  Sohier, T., Calandra, M., & Mauri, F. (2017), 
  Density functional perturbation theory for gated two-dimensional heterostructures:
  Theoretical developments and application to flexural phonons in graphene.
  Physical Review B, 96(7), 75448. https://doi.org/10.1103/PhysRevB.96.075448
 ----2D----2D----2D----2D----2D----2D----2D----2D----2D----2D----2D----2D
     Generating pointlists ...
     new r_m :   0.1620 (alat units)  2.1047 (a.u.) for type    1
     new r_m :   0.1620 (alat units)  2.1047 (a.u.) for type    2
     Cannot read rho : file not found

     Initial potential from superposition of free atoms

     starting charge     139.9932, renormalised to     140.0000

     negative rho (up, down):  2.605E-02 2.652E-02

     STARTING HUBBARD OCCUPATIONS:

     =================== HUBBARD OCCUPATIONS ===================
     ------------------------ ATOM    1 ------------------------
     Tr[ns(  1)] (up, down, total) =   5.00000  0.00000  5.00000
     Atomic magnetic moment for atom   1 =   5.00000
     SPIN  1
     eigenvalues:
       1.000  1.000  1.000  1.000  1.000
     eigenvectors (columns):
       1.000  0.000  0.000  0.000  0.000
       0.000  1.000  0.000  0.000  0.000
       0.000  0.000  1.000  0.000  0.000
       0.000  0.000  0.000  1.000  0.000
       0.000  0.000  0.000  0.000  1.000
     occupation matrix ns (before diag.):
       1.000  0.000  0.000  0.000  0.000
       0.000  1.000  0.000  0.000  0.000
       0.000  0.000  1.000  0.000  0.000
       0.000  0.000  0.000  1.000  0.000
       0.000  0.000  0.000  0.000  1.000
     SPIN  2
     eigenvalues:
       0.000  0.000  0.000  0.000  0.000
     eigenvectors (columns):
       1.000  0.000  0.000  0.000  0.000
       0.000  1.000  0.000  0.000  0.000
       0.000  0.000  1.000  0.000  0.000
       0.000  0.000  0.000  1.000  0.000
       0.000  0.000  0.000  0.000  1.000
     occupation matrix ns (before diag.):
       0.000  0.000  0.000  0.000  0.000
       0.000  0.000  0.000  0.000  0.000
       0.000  0.000  0.000  0.000  0.000
       0.000  0.000  0.000  0.000  0.000
       0.000  0.000  0.000  0.000  0.000
     ------------------------ ATOM    2 ------------------------
     Tr[ns(  2)] (up, down, total) =   5.00000  0.00000  5.00000
     Atomic magnetic moment for atom   2 =   5.00000
     SPIN  1
     eigenvalues:
       1.000  1.000  1.000  1.000  1.000
     eigenvectors (columns):
       1.000  0.000  0.000  0.000  0.000
       0.000  1.000  0.000  0.000  0.000
       0.000  0.000  1.000  0.000  0.000
       0.000  0.000  0.000  1.000  0.000
       0.000  0.000  0.000  0.000  1.000
     occupation matrix ns (before diag.):
       1.000  0.000  0.000  0.000  0.000
       0.000  1.000  0.000  0.000  0.000
       0.000  0.000  1.000  0.000  0.000
       0.000  0.000  0.000  1.000  0.000
       0.000  0.000  0.000  0.000  1.000
     SPIN  2
     eigenvalues:
       0.000  0.000  0.000  0.000  0.000
     eigenvectors (columns):
       1.000  0.000  0.000  0.000  0.000
       0.000  1.000  0.000  0.000  0.000
       0.000  0.000  1.000  0.000  0.000
       0.000  0.000  0.000  1.000  0.000
       0.000  0.000  0.000  0.000  1.000
     occupation matrix ns (before diag.):
       0.000  0.000  0.000  0.000  0.000
       0.000  0.000  0.000  0.000  0.000
       0.000  0.000  0.000  0.000  0.000
       0.000  0.000  0.000  0.000  0.000
       0.000  0.000  0.000  0.000  0.000
     ------------------------ ATOM    9 ------------------------
     Tr[ns(  9)] (up, down, total) =   5.00000  0.00000  5.00000
     Atomic magnetic moment for atom   9 =   5.00000
     SPIN  1
     eigenvalues:
       1.000  1.000  1.000  1.000  1.000
     eigenvectors (columns):
       1.000  0.000  0.000  0.000  0.000
       0.000  1.000  0.000  0.000  0.000
       0.000  0.000  1.000  0.000  0.000
       0.000  0.000  0.000  1.000  0.000
       0.000  0.000  0.000  0.000  1.000
     occupation matrix ns (before diag.):
       1.000  0.000  0.000  0.000  0.000
       0.000  1.000  0.000  0.000  0.000
       0.000  0.000  1.000  0.000  0.000
       0.000  0.000  0.000  1.000  0.000
       0.000  0.000  0.000  0.000  1.000
     SPIN  2
     eigenvalues:
       0.000  0.000  0.000  0.000  0.000
     eigenvectors (columns):
       1.000  0.000  0.000  0.000  0.000
       0.000  1.000  0.000  0.000  0.000
       0.000  0.000  1.000  0.000  0.000
       0.000  0.000  0.000  1.000  0.000
       0.000  0.000  0.000  0.000  1.000
     occupation matrix ns (before diag.):
       0.000  0.000  0.000  0.000  0.000
       0.000  0.000  0.000  0.000  0.000
       0.000  0.000  0.000  0.000  0.000
       0.000  0.000  0.000  0.000  0.000
       0.000  0.000  0.000  0.000  0.000
     ------------------------ ATOM   10 ------------------------
     Tr[ns( 10)] (up, down, total) =   5.00000  0.00000  5.00000
     Atomic magnetic moment for atom  10 =   5.00000
     SPIN  1
     eigenvalues:
       1.000  1.000  1.000  1.000  1.000
     eigenvectors (columns):
       1.000  0.000  0.000  0.000  0.000
       0.000  1.000  0.000  0.000  0.000
       0.000  0.000  1.000  0.000  0.000
       0.000  0.000  0.000  1.000  0.000
       0.000  0.000  0.000  0.000  1.000
     occupation matrix ns (before diag.):
       1.000  0.000  0.000  0.000  0.000
       0.000  1.000  0.000  0.000  0.000
       0.000  0.000  1.000  0.000  0.000
       0.000  0.000  0.000  1.000  0.000
       0.000  0.000  0.000  0.000  1.000
     SPIN  2
     eigenvalues:
       0.000  0.000  0.000  0.000  0.000
     eigenvectors (columns):
       1.000  0.000  0.000  0.000  0.000
       0.000  1.000  0.000  0.000  0.000
       0.000  0.000  1.000  0.000  0.000
       0.000  0.000  0.000  1.000  0.000
       0.000  0.000  0.000  0.000  1.000
     occupation matrix ns (before diag.):
       0.000  0.000  0.000  0.000  0.000
       0.000  0.000  0.000  0.000  0.000
       0.000  0.000  0.000  0.000  0.000
       0.000  0.000  0.000  0.000  0.000
       0.000  0.000  0.000  0.000  0.000

     Number of occupied Hubbard levels =   20.0000

     Atomic wfc used for Hubbard projectors are orthogonalized

     Starting wfcs are  168 atomic wfcs
     Checking if some PAW data can be deallocated... 

     total cpu time spent up to now is       52.0 secs

     Self-consistent Calculation

     iteration #  1     ecut=    90.00 Ry     beta= 0.50
     Davidson diagonalization with overlap
     ethr =  1.00E-05,  avg # of iterations =  9.3

     =================== HUBBARD OCCUPATIONS ===================
     ------------------------ ATOM    1 ------------------------
     Tr[ns(  1)] (up, down, total) =   3.48139  0.29762  3.77901
     Atomic magnetic moment for atom   1 =   3.18378
     SPIN  1
     eigenvalues:
       0.407  0.407  0.888  0.888  0.892
     eigenvectors (columns):
      -0.000 -0.000 -0.000 -0.000 -1.000
      -0.705  0.423 -0.333 -0.461  0.000
       0.423  0.705  0.461 -0.333 -0.000
       0.488 -0.292 -0.483 -0.666  0.000
       0.292  0.488 -0.666  0.483  0.000
     occupation matrix ns (before diag.):
       0.892 -0.000  0.000  0.000  0.000
      -0.000  0.562  0.000  0.225 -0.000
       0.000  0.000  0.562 -0.000 -0.225
       0.000  0.225 -0.000  0.732  0.000
       0.000 -0.000 -0.225  0.000  0.732
     SPIN  2
     eigenvalues:
       0.032  0.035  0.035  0.098  0.098
     eigenvectors (columns):
       1.000 -0.000 -0.000  0.000 -0.000
       0.000  0.582  0.026  0.812 -0.026
      -0.000  0.026 -0.582  0.026  0.812
       0.000  0.812  0.037 -0.582  0.019
       0.000 -0.037  0.812  0.019  0.582
     occupation matrix ns (before diag.):
       0.032  0.000 -0.000 -0.000 -0.000
       0.000  0.076 -0.000 -0.030  0.000
      -0.000 -0.000  0.076  0.000  0.030
      -0.000 -0.030  0.000  0.056 -0.000
      -0.000  0.000  0.030 -0.000  0.056
     ------------------------ ATOM    2 ------------------------
     Tr[ns(  2)] (up, down, total) =   3.48628  0.29929  3.78557
     Atomic magnetic moment for atom   2 =   3.18698
     SPIN  1
     eigenvalues:
       0.410  0.410  0.888  0.888  0.892
     eigenvectors (columns):
      -0.000  0.000  0.000 -0.000  1.000
      -0.206  0.796  0.387 -0.418 -0.000
       0.796  0.206 -0.418 -0.387  0.000
       0.144 -0.551  0.561 -0.601 -0.000
       0.551  0.144  0.601  0.561 -0.000
     occupation matrix ns (before diag.):
       0.892 -0.000  0.000  0.000  0.000
      -0.000  0.565  0.000  0.224 -0.001
       0.000  0.000  0.565 -0.001 -0.224
       0.000  0.224 -0.001  0.733  0.000
       0.000 -0.001 -0.224  0.000  0.733
     SPIN  2
     eigenvalues:
       0.033  0.035  0.035  0.098  0.098
     eigenvectors (columns):
       1.000 -0.000  0.000  0.000 -0.000
      -0.000 -0.285  0.508  0.771 -0.258
      -0.000 -0.508 -0.285  0.258  0.771
      -0.000 -0.395  0.711 -0.552  0.187
       0.000  0.711  0.395  0.187  0.552
     occupation matrix ns (before diag.):
       0.033  0.000 -0.000  0.000 -0.000
       0.000  0.077 -0.000 -0.030  0.000
      -0.000 -0.000  0.077  0.000  0.030
       0.000 -0.030  0.000  0.057 -0.000
      -0.000  0.000  0.030 -0.000  0.057
     ------------------------ ATOM    9 ------------------------
     Tr[ns(  9)] (up, down, total) =   3.48628  0.29930  3.78558
     Atomic magnetic moment for atom   9 =   3.18698
     SPIN  1
     eigenvalues:
       0.410  0.410  0.888  0.888  0.892
     eigenvectors (columns):
      -0.000 -0.000 -0.000 -0.000  1.000
      -0.633  0.525  0.564 -0.080  0.000
      -0.525 -0.633 -0.080 -0.564 -0.000
       0.437 -0.365  0.814 -0.112  0.000
      -0.365 -0.437  0.112  0.814  0.000
     occupation matrix ns (before diag.):
       0.892  0.000 -0.000 -0.000 -0.000
       0.000  0.565 -0.000  0.224 -0.001
      -0.000 -0.000  0.565 -0.001 -0.224
      -0.000  0.224 -0.001  0.733 -0.000
      -0.000 -0.001 -0.224 -0.000  0.733
     SPIN  2
     eigenvalues:
       0.033  0.035  0.035  0.098  0.098
     eigenvectors (columns):
       1.000 -0.000 -0.000  0.000  0.000
      -0.000  0.365 -0.454  0.667 -0.464
       0.000  0.454  0.365  0.464  0.667
      -0.000  0.506 -0.636 -0.477  0.334
      -0.000 -0.636 -0.506  0.334  0.477
     occupation matrix ns (before diag.):
       0.033 -0.000  0.000  0.000  0.000
      -0.000  0.077 -0.000 -0.030  0.000
       0.000 -0.000  0.077  0.000  0.030
       0.000 -0.030  0.000  0.057  0.000
       0.000  0.000  0.030  0.000  0.057
     ------------------------ ATOM   10 ------------------------
     Tr[ns( 10)] (up, down, total) =   3.48139  0.29761  3.77900
     Atomic magnetic moment for atom  10 =   3.18378
     SPIN  1
     eigenvalues:
       0.407  0.407  0.888  0.888  0.892
     eigenvectors (columns):
       0.000 -0.000 -0.000 -0.000 -1.000
      -0.719  0.400  0.524  0.220 -0.000
       0.400  0.719  0.220 -0.524  0.000
       0.497 -0.276  0.758  0.320 -0.000
       0.276  0.497 -0.320  0.758 -0.000
     occupation matrix ns (before diag.):
       0.892  0.000  0.000 -0.000  0.000
       0.000  0.562  0.000  0.225 -0.000
       0.000  0.000  0.562 -0.000 -0.225
      -0.000  0.225 -0.000  0.732 -0.000
       0.000 -0.000 -0.225 -0.000  0.732
     SPIN  2
     eigenvalues:
       0.032  0.035  0.035  0.098  0.098
     eigenvectors (columns):
       1.000 -0.000  0.000 -0.000 -0.000
      -0.000 -0.370  0.450 -0.663  0.471
      -0.000  0.450  0.370  0.471  0.663
      -0.000 -0.516  0.628  0.475 -0.337
       0.000 -0.628 -0.516  0.337  0.475
     occupation matrix ns (before diag.):
       0.032 -0.000 -0.000  0.000 -0.000
      -0.000  0.076  0.000 -0.030  0.000
      -0.000  0.000  0.076  0.000  0.030
       0.000 -0.030  0.000  0.056 -0.000
      -0.000  0.000  0.030 -0.000  0.056

     Number of occupied Hubbard levels =   15.1292

     negative rho (up, down):  2.920E-02 3.277E-02

     total cpu time spent up to now is      307.9 secs

     total energy              =   -5538.21898535 Ry
     estimated scf accuracy    <       2.54340609 Ry

     total magnetization       =    12.00 Bohr mag/cell
     absolute magnetization    =    15.55 Bohr mag/cell

     iteration #  2     ecut=    90.00 Ry     beta= 0.50
     Davidson diagonalization with overlap
     ethr =  1.82E-03,  avg # of iterations =  4.0

     negative rho (up, down):  2.722E-02 3.100E-02

     total cpu time spent up to now is      399.1 secs

     total energy              =   -5537.21309551 Ry
     estimated scf accuracy    <      13.68573247 Ry

     total magnetization       =    12.00 Bohr mag/cell
     absolute magnetization    =    15.90 Bohr mag/cell

     iteration #  3     ecut=    90.00 Ry     beta= 0.50
     Davidson diagonalization with overlap
     ethr =  1.82E-03,  avg # of iterations =  2.3

     negative rho (up, down):  2.765E-02 3.368E-02

     total cpu time spent up to now is      470.7 secs

     total energy              =   -5539.39223737 Ry
     estimated scf accuracy    <       0.47670511 Ry

     total magnetization       =    12.00 Bohr mag/cell
     absolute magnetization    =    16.53 Bohr mag/cell

     iteration #  4     ecut=    90.00 Ry     beta= 0.50
     Davidson diagonalization with overlap
     ethr =  3.41E-04,  avg # of iterations =  2.4

     negative rho (up, down):  2.783E-02 3.551E-02

     total cpu time spent up to now is      536.7 secs

     total energy              =   -5539.43564334 Ry
     estimated scf accuracy    <       0.09750992 Ry

     total magnetization       =    12.00 Bohr mag/cell
     absolute magnetization    =    16.74 Bohr mag/cell

     iteration #  5     ecut=    90.00 Ry     beta= 0.50
     Davidson diagonalization with overlap
     ethr =  6.96E-05,  avg # of iterations =  3.8

     negative rho (up, down):  2.778E-02 3.593E-02

     total cpu time spent up to now is      615.1 secs

     total energy              =   -5539.44464668 Ry
     estimated scf accuracy    <       0.05254798 Ry

     total magnetization       =    12.00 Bohr mag/cell
     absolute magnetization    =    16.88 Bohr mag/cell

     iteration #  6     ecut=    90.00 Ry     beta= 0.50
     Davidson diagonalization with overlap
     ethr =  3.75E-05,  avg # of iterations =  3.0

     negative rho (up, down):  2.747E-02 3.595E-02

     total cpu time spent up to now is      681.5 secs

     total energy              =   -5539.45235154 Ry
     estimated scf accuracy    <       0.00137443 Ry

     total magnetization       =    12.00 Bohr mag/cell
     absolute magnetization    =    16.94 Bohr mag/cell

     iteration #  7     ecut=    90.00 Ry     beta= 0.50
     Davidson diagonalization with overlap
     ethr =  9.82E-07,  avg # of iterations =  7.8

     negative rho (up, down):  2.701E-02 3.609E-02

     total cpu time spent up to now is      829.6 secs

     total energy              =   -5539.45352978 Ry
     estimated scf accuracy    <       0.00200838 Ry

     total magnetization       =    12.00 Bohr mag/cell
     absolute magnetization    =    17.04 Bohr mag/cell

     iteration #  8     ecut=    90.00 Ry     beta= 0.50
     Davidson diagonalization with overlap
     ethr =  9.82E-07,  avg # of iterations =  1.5

     negative rho (up, down):  2.692E-02 3.615E-02

     total cpu time spent up to now is      891.2 secs

     total energy              =   -5539.45352763 Ry
     estimated scf accuracy    <       0.00083319 Ry

     total magnetization       =    12.00 Bohr mag/cell
     absolute magnetization    =    17.09 Bohr mag/cell

     iteration #  9     ecut=    90.00 Ry     beta= 0.50
     Davidson diagonalization with overlap
     ethr =  5.95E-07,  avg # of iterations =  1.0

     negative rho (up, down):  2.693E-02 3.618E-02

     total cpu time spent up to now is      949.6 secs

     total energy              =   -5539.45353876 Ry
     estimated scf accuracy    <       0.00032567 Ry

     total magnetization       =    12.00 Bohr mag/cell
     absolute magnetization    =    17.09 Bohr mag/cell

     iteration # 10     ecut=    90.00 Ry     beta= 0.50
     Davidson diagonalization with overlap
     ethr =  2.33E-07,  avg # of iterations =  1.2

     negative rho (up, down):  2.692E-02 3.619E-02

     total cpu time spent up to now is     1008.7 secs

     total energy              =   -5539.45357241 Ry
     estimated scf accuracy    <       0.00002230 Ry

     total magnetization       =    12.00 Bohr mag/cell
     absolute magnetization    =    17.07 Bohr mag/cell

     iteration # 11     ecut=    90.00 Ry     beta= 0.50
     Davidson diagonalization with overlap
     ethr =  1.59E-08,  avg # of iterations =  3.4

     negative rho (up, down):  2.690E-02 3.620E-02

     total cpu time spent up to now is     1091.1 secs

     total energy              =   -5539.45358581 Ry
     estimated scf accuracy    <       0.00000617 Ry

     total magnetization       =    12.00 Bohr mag/cell
     absolute magnetization    =    17.06 Bohr mag/cell

     iteration # 12     ecut=    90.00 Ry     beta= 0.50
     Davidson diagonalization with overlap
     ethr =  4.41E-09,  avg # of iterations =  2.9

     negative rho (up, down):  2.686E-02 3.620E-02

     total cpu time spent up to now is     1158.8 secs

     total energy              =   -5539.45358746 Ry
     estimated scf accuracy    <       0.00000336 Ry

     total magnetization       =    12.00 Bohr mag/cell
     absolute magnetization    =    17.06 Bohr mag/cell

     iteration # 13     ecut=    90.00 Ry     beta= 0.50
     Davidson diagonalization with overlap
     ethr =  2.40E-09,  avg # of iterations =  2.8

     negative rho (up, down):  2.685E-02 3.621E-02

     total cpu time spent up to now is     1233.3 secs

     total energy              =   -5539.45358882 Ry
     estimated scf accuracy    <       0.00000146 Ry

     total magnetization       =    12.00 Bohr mag/cell
     absolute magnetization    =    17.06 Bohr mag/cell

     iteration # 14     ecut=    90.00 Ry     beta= 0.50
     Davidson diagonalization with overlap
     ethr =  1.04E-09,  avg # of iterations =  2.0

     negative rho (up, down):  2.685E-02 3.620E-02

     total cpu time spent up to now is     1297.5 secs

     total energy              =   -5539.45358925 Ry
     estimated scf accuracy    <       0.00000016 Ry

     total magnetization       =    12.00 Bohr mag/cell
     absolute magnetization    =    17.06 Bohr mag/cell

     iteration # 15     ecut=    90.00 Ry     beta= 0.50
     Davidson diagonalization with overlap
     ethr =  1.12E-10,  avg # of iterations =  3.5

     negative rho (up, down):  2.685E-02 3.620E-02

     total cpu time spent up to now is     1376.8 secs

     total energy              =   -5539.45358933 Ry
     estimated scf accuracy    <       0.00000012 Ry

     total magnetization       =    12.00 Bohr mag/cell
     absolute magnetization    =    17.06 Bohr mag/cell

     iteration # 16     ecut=    90.00 Ry     beta= 0.50
     Davidson diagonalization with overlap
     ethr =  8.92E-11,  avg # of iterations =  1.5

     negative rho (up, down):  2.685E-02 3.620E-02

     total cpu time spent up to now is     1436.9 secs

     total energy              =   -5539.45358937 Ry
     estimated scf accuracy    <       0.00000003 Ry

     total magnetization       =    12.00 Bohr mag/cell
     absolute magnetization    =    17.06 Bohr mag/cell

     iteration # 17     ecut=    90.00 Ry     beta= 0.50
     Davidson diagonalization with overlap
     ethr =  2.32E-11,  avg # of iterations =  2.8

     negative rho (up, down):  2.685E-02 3.620E-02

     total cpu time spent up to now is     1506.6 secs

     total energy              =   -5539.45358939 Ry
     estimated scf accuracy    <       0.00000002 Ry

     total magnetization       =    12.00 Bohr mag/cell
     absolute magnetization    =    17.06 Bohr mag/cell

     iteration # 18     ecut=    90.00 Ry     beta= 0.50
     Davidson diagonalization with overlap
     ethr =  1.42E-11,  avg # of iterations =  2.1

     negative rho (up, down):  2.685E-02 3.620E-02

     total cpu time spent up to now is     1570.3 secs

     total energy              =   -5539.45358940 Ry
     estimated scf accuracy    <          3.8E-09 Ry

     total magnetization       =    12.00 Bohr mag/cell
     absolute magnetization    =    17.05 Bohr mag/cell

     iteration # 19     ecut=    90.00 Ry     beta= 0.50
     Davidson diagonalization with overlap
     ethr =  2.74E-12,  avg # of iterations =  3.8

     negative rho (up, down):  2.685E-02 3.620E-02

     total cpu time spent up to now is     1656.7 secs

     total energy              =   -5539.45358941 Ry
     estimated scf accuracy    <          1.2E-09 Ry

     total magnetization       =    12.00 Bohr mag/cell
     absolute magnetization    =    17.05 Bohr mag/cell

     iteration # 20     ecut=    90.00 Ry     beta= 0.50
     Davidson diagonalization with overlap
     ethr =  8.68E-13,  avg # of iterations =  2.0

     negative rho (up, down):  2.685E-02 3.620E-02

     total cpu time spent up to now is     1723.5 secs

     total energy              =   -5539.45358941 Ry
     estimated scf accuracy    <          7.7E-10 Ry

     total magnetization       =    12.00 Bohr mag/cell
     absolute magnetization    =    17.05 Bohr mag/cell

     iteration # 21     ecut=    90.00 Ry     beta= 0.50
     Davidson diagonalization with overlap
     ethr =  5.50E-13,  avg # of iterations =  1.5

     negative rho (up, down):  2.685E-02 3.620E-02

     total cpu time spent up to now is     1784.6 secs

     total energy              =   -5539.45358941 Ry
     estimated scf accuracy    <          6.4E-10 Ry

     total magnetization       =    12.00 Bohr mag/cell
     absolute magnetization    =    17.05 Bohr mag/cell

     iteration # 22     ecut=    90.00 Ry     beta= 0.50
     Davidson diagonalization with overlap
     ethr =  4.58E-13,  avg # of iterations =  1.4

     negative rho (up, down):  2.685E-02 3.620E-02

     total cpu time spent up to now is     1844.0 secs

     total energy              =   -5539.45358941 Ry
     estimated scf accuracy    <          1.0E-10 Ry

     total magnetization       =    12.00 Bohr mag/cell
     absolute magnetization    =    17.05 Bohr mag/cell

     iteration # 23     ecut=    90.00 Ry     beta= 0.50
     Davidson diagonalization with overlap
     ethr =  1.00E-13,  avg # of iterations =  2.5

     negative rho (up, down):  2.685E-02 3.620E-02

     Magnetic moment per site  (integrated on atomic sphere of radius R)
     atom   1 (R=0.162)  charge= 12.3758  magn=  3.3114
     atom   2 (R=0.162)  charge= 12.3804  magn=  3.3121
     atom   3 (R=0.162)  charge=  4.0508  magn= -0.1370
     atom   4 (R=0.162)  charge=  4.0508  magn= -0.1370
     atom   5 (R=0.162)  charge=  4.0508  magn= -0.1370
     atom   6 (R=0.162)  charge=  4.0528  magn= -0.1339
     atom   7 (R=0.162)  charge=  4.0528  magn= -0.1339
     atom   8 (R=0.162)  charge=  4.0526  magn= -0.1339
     atom   9 (R=0.162)  charge= 12.3805  magn=  3.3121
     atom  10 (R=0.162)  charge= 12.3759  magn=  3.3114
     atom  11 (R=0.162)  charge=  4.0527  magn= -0.1339
     atom  12 (R=0.162)  charge=  4.0527  magn= -0.1339
     atom  13 (R=0.162)  charge=  4.0527  magn= -0.1339
     atom  14 (R=0.162)  charge=  4.0507  magn= -0.1370
     atom  15 (R=0.162)  charge=  4.0506  magn= -0.1370
     atom  16 (R=0.162)  charge=  4.0507  magn= -0.1370

     total cpu time spent up to now is     1908.7 secs

     End of self-consistent calculation

     =================== HUBBARD OCCUPATIONS ===================
     ------------------------ ATOM    1 ------------------------
     Tr[ns(  1)] (up, down, total) =   3.77053  0.49698  4.26752
     Atomic magnetic moment for atom   1 =   3.27355
     SPIN  1
     eigenvalues:
       0.510  0.510  0.915  0.915  0.921
     eigenvectors (columns):
      -0.000 -0.000  0.000 -0.000 -1.000
      -0.362 -0.731  0.518 -0.257  0.000
       0.731 -0.362  0.257  0.518 -0.000
       0.258  0.518  0.730 -0.365  0.000
       0.518 -0.258 -0.365 -0.730  0.000
     occupation matrix ns (before diag.):
       0.921 -0.000  0.000  0.000  0.000
      -0.000  0.646  0.000  0.191 -0.001
       0.000  0.000  0.646 -0.001 -0.191
       0.000  0.191 -0.001  0.779  0.000
       0.000 -0.001 -0.191  0.000  0.779
     SPIN  2
     eigenvalues:
       0.043  0.047  0.047  0.181  0.181
     eigenvectors (columns):
      -1.000 -0.000  0.000  0.000 -0.000
      -0.000  0.573 -0.018  0.818 -0.041
       0.000  0.018  0.573  0.041  0.818
      -0.000  0.819 -0.027 -0.573  0.030
      -0.000 -0.027 -0.819  0.030  0.573
     occupation matrix ns (before diag.):
       0.043  0.000 -0.000 -0.000 -0.000
       0.000  0.137 -0.000 -0.063  0.000
      -0.000 -0.000  0.137  0.000  0.063
      -0.000 -0.063  0.000  0.091 -0.000
      -0.000  0.000  0.063 -0.000  0.091
     ------------------------ ATOM    2 ------------------------
     Tr[ns(  2)] (up, down, total) =   3.77134  0.49772  4.26906
     Atomic magnetic moment for atom   2 =   3.27362
     SPIN  1
     eigenvalues:
       0.511  0.511  0.915  0.915  0.920
     eigenvectors (columns):
      -0.000  0.000 -0.000  0.000 -1.000
      -0.236 -0.780 -0.564  0.135  0.000
       0.780 -0.236 -0.135 -0.564 -0.000
       0.169  0.554 -0.792  0.192  0.000
       0.554 -0.169  0.192  0.792  0.000
     occupation matrix ns (before diag.):
       0.920 -0.000  0.000 -0.000  0.000
      -0.000  0.646  0.000  0.191 -0.000
       0.000  0.000  0.646 -0.000 -0.191
      -0.000  0.191 -0.000  0.779  0.000
       0.000 -0.000 -0.191  0.000  0.779
     SPIN  2
     eigenvalues:
       0.043  0.047  0.047  0.181  0.181
     eigenvectors (columns):
       1.000 -0.000 -0.000 -0.000 -0.000
      -0.000 -0.280  0.501  0.655 -0.491
      -0.000 -0.501 -0.280  0.491  0.655
      -0.000 -0.398  0.715 -0.459  0.345
       0.000  0.715  0.398  0.345  0.459
     occupation matrix ns (before diag.):
       0.043  0.000 -0.000  0.000 -0.000
       0.000  0.137 -0.000 -0.063  0.000
      -0.000 -0.000  0.137  0.000  0.063
       0.000 -0.063  0.000  0.091 -0.000
      -0.000  0.000  0.063 -0.000  0.091
     ------------------------ ATOM    9 ------------------------
     Tr[ns(  9)] (up, down, total) =   3.77133  0.49773  4.26907
     Atomic magnetic moment for atom   9 =   3.27360
     SPIN  1
     eigenvalues:
       0.511  0.511  0.915  0.915  0.920
     eigenvectors (columns):
      -0.000 -0.000  0.000  0.000 -1.000
      -0.712  0.396 -0.283 -0.506 -0.000
      -0.396 -0.712  0.506 -0.283  0.000
       0.506 -0.282 -0.399 -0.711 -0.000
      -0.282 -0.506 -0.711  0.399 -0.000
     occupation matrix ns (before diag.):
       0.920  0.000 -0.000 -0.000 -0.000
       0.000  0.646 -0.000  0.191 -0.000
      -0.000 -0.000  0.646 -0.000 -0.191
      -0.000  0.191 -0.000  0.779 -0.000
      -0.000 -0.000 -0.191 -0.000  0.779
     SPIN  2
     eigenvalues:
       0.043  0.047  0.047  0.181  0.181
     eigenvectors (columns):
       1.000  0.000 -0.000  0.000  0.000
      -0.000  0.350 -0.455  0.625 -0.528
       0.000  0.455  0.350  0.528  0.625
      -0.000  0.498 -0.650 -0.438  0.372
      -0.000 -0.650 -0.498  0.372  0.438
     occupation matrix ns (before diag.):
       0.043 -0.000  0.000  0.000  0.000
      -0.000  0.137 -0.000 -0.063  0.000
       0.000 -0.000  0.137  0.000  0.063
       0.000 -0.063  0.000  0.091  0.000
       0.000  0.000  0.063  0.000  0.091
     ------------------------ ATOM   10 ------------------------
     Tr[ns( 10)] (up, down, total) =   3.77054  0.49697  4.26752
     Atomic magnetic moment for atom  10 =   3.27357
     SPIN  1
     eigenvalues:
       0.510  0.510  0.915  0.915  0.921
     eigenvectors (columns):
       0.000 -0.000 -0.000  0.000 -1.000
      -0.815 -0.039  0.043 -0.577 -0.000
      -0.039  0.815 -0.577 -0.043  0.000
       0.578  0.029  0.063 -0.813 -0.000
      -0.029  0.578  0.813  0.063 -0.000
     occupation matrix ns (before diag.):
       0.921  0.000  0.000 -0.000  0.000
       0.000  0.646 -0.000  0.191 -0.001
       0.000 -0.000  0.646 -0.001 -0.191
      -0.000  0.191 -0.001  0.779 -0.000
       0.000 -0.001 -0.191 -0.000  0.779
     SPIN  2
     eigenvalues:
       0.043  0.047  0.047  0.181  0.181
     eigenvectors (columns):
       1.000 -0.000  0.000  0.000 -0.000
      -0.000 -0.361  0.446 -0.626  0.528
       0.000  0.446  0.361  0.528  0.626
      -0.000 -0.516  0.636  0.439 -0.369
      -0.000 -0.636 -0.516  0.369  0.439
     occupation matrix ns (before diag.):
       0.043 -0.000 -0.000  0.000 -0.000
      -0.000  0.137  0.000 -0.063  0.000
      -0.000  0.000  0.137  0.000  0.063
       0.000 -0.063  0.000  0.091 -0.000
      -0.000  0.000  0.063 -0.000  0.091

     Number of occupied Hubbard levels =   17.0732

 ------ SPIN UP ------------


          k = 0.0000 0.0000 0.0000 (109591 PWs)   bands (ev):

   -78.6735 -78.6735 -78.6471 -78.6471 -50.0069 -50.0069 -50.0060 -50.0060
   -50.0060 -50.0060 -49.9807 -49.9807 -49.9801 -49.9801 -49.9801 -49.9801
   -18.5921 -18.5053 -17.7412 -17.6187 -17.4480 -17.4480 -17.4351 -17.4351
   -17.3016 -17.3016 -17.2937 -17.2937 -10.5174 -10.4698 -10.4075 -10.1045
    -9.8417  -9.8417  -9.8397  -9.8397  -9.7634  -9.7634  -9.7390  -9.7390
    -8.8542  -8.8035  -8.7990  -8.6896  -8.6896  -8.6880  -8.6712  -8.6712
    -8.6036  -8.5976  -8.2280  -8.2280  -8.1667  -8.1667  -7.9611  -7.9611
    -7.9359  -7.9359  -7.4340  -7.3991  -7.3991  -7.3212  -7.2820  -7.2820
    -7.1907  -7.1397  -6.8726  -6.3931  -6.3931  -6.2459  -6.2459  -6.1136
    -5.7562  -5.7562  -5.6886  -5.6886  -4.6365  -4.6365  -4.4989  -4.4989
    -4.1113  -4.1112  -4.0959  -4.0959  -1.1105  -0.7217  -0.5996  -0.2100
    -0.0591  -0.0496   0.8279   0.9183   0.9183   0.9671   0.9671   1.1704
     1.6619   1.6619   1.7323   1.7878

          k = 0.0000 0.1925 0.0000 (109722 PWs)   bands (ev):

   -78.6735 -78.6735 -78.6471 -78.6471 -50.0069 -50.0069 -50.0060 -50.0060
   -50.0060 -50.0060 -49.9807 -49.9807 -49.9802 -49.9801 -49.9801 -49.9801
   -18.5310 -18.4463 -17.7078 -17.5904 -17.5399 -17.5104 -17.4809 -17.4537
   -17.3189 -17.3147 -17.2966 -17.2939 -10.4828 -10.4595 -10.3531 -10.0807
    -9.9505  -9.9282  -9.8704  -9.8618  -9.6913  -9.6717  -9.6073  -9.5914
    -8.8735  -8.8166  -8.7956  -8.7429  -8.7196  -8.6726  -8.6547  -8.6351
    -8.6267  -8.6097  -8.2101  -8.1771  -8.1421  -8.1284  -8.0878  -8.0236
    -7.9333  -7.9058  -7.4836  -7.3686  -7.3445  -7.2622  -7.2077  -7.1621
    -7.0779  -7.0263  -6.7540  -6.4266  -6.3555  -6.3211  -6.2609  -6.1603
    -6.0307  -5.8801  -5.8080  -5.7630  -4.6374  -4.6011  -4.4999  -4.4854
    -4.3014  -4.2712  -4.1525  -4.1416  -0.9830  -0.6683  -0.2662   0.0606
     0.2073   0.3741   0.5175   0.6474   0.6991   0.9393   1.2733   1.3677
     1.5095   1.5616   1.6915   1.7708

          k = 0.0000 0.3849 0.0000 (109616 PWs)   bands (ev):

   -78.6735 -78.6735 -78.6471 -78.6471 -50.0069 -50.0069 -50.0060 -50.0060
   -50.0060 -50.0059 -49.9807 -49.9807 -49.9802 -49.9802 -49.9801 -49.9801
   -18.3630 -18.2872 -17.7557 -17.7079 -17.6174 -17.5309 -17.5152 -17.4904
   -17.3776 -17.3412 -17.3275 -17.3107 -10.5097 -10.4696 -10.1895 -10.0195
    -9.9502  -9.8995  -9.7823  -9.7426  -9.5847  -9.5479  -9.5016  -9.4092
    -9.0224  -8.9735  -8.9099  -8.8644  -8.8295  -8.8031  -8.5890  -8.5861
    -8.5654  -8.5218  -8.3515  -8.3152  -8.1608  -8.1578  -7.8899  -7.8599
    -7.8288  -7.7362  -7.5701  -7.4383  -7.3746  -7.1550  -7.0425  -6.9850
    -6.9388  -6.8203  -6.5841  -6.4691  -6.4471  -6.4314  -6.4220  -6.3384
    -6.2951  -5.9451  -5.9150  -5.8858  -4.6283  -4.5443  -4.4879  -4.4543
    -4.4333  -4.3590  -4.2888  -4.2772  -0.9331  -0.8524  -0.0720   0.0278
     0.3438   0.5149   0.7570   0.8076   0.8791   0.9700   1.0278   1.1302
     1.1470   1.3238   1.3889   1.4910

          k = 0.0000-0.5774 0.0000 (109602 PWs)   bands (ev):

   -78.6735 -78.6735 -78.6471 -78.6471 -50.0069 -50.0069 -50.0060 -50.0060
   -50.0060 -50.0059 -49.9807 -49.9807 -49.9802 -49.9802 -49.9801 -49.9801
   -18.1915 -18.1566 -17.9173 -17.8882 -17.5523 -17.5205 -17.5072 -17.4865
   -17.4095 -17.3907 -17.3544 -17.3203 -10.5511 -10.5002 -10.0433 -10.0100
    -9.8896  -9.8886  -9.6298  -9.6210  -9.4561  -9.4490  -9.3947  -9.2168
    -9.2012  -9.1865  -9.0923  -9.0762  -8.8867  -8.8567  -8.5758  -8.5682
    -8.5088  -8.4962  -8.4182  -8.3837  -8.1843  -8.1788  -7.8560  -7.7205
    -7.6391  -7.6253  -7.5860  -7.4619  -7.4410  -7.2349  -7.0359  -6.9701
    -6.8230  -6.6884  -6.6329  -6.5887  -6.5545  -6.5366  -6.3712  -6.3335
    -6.1619  -6.0397  -5.9309  -5.8897  -4.5828  -4.5569  -4.4977  -4.4871
    -4.4218  -4.3582  -4.2992  -4.2800  -1.1592  -1.0574   0.0024   0.0068
     0.0868   0.2861   0.6504   0.7543   0.8144   1.0720   1.1149   1.1761
     1.1937   1.2371   1.3582   1.5561

          k = 0.1667 0.2887 0.0000 (109615 PWs)   bands (ev):

   -78.6735 -78.6735 -78.6471 -78.6471 -50.0069 -50.0069 -50.0060 -50.0060
   -50.0059 -50.0059 -49.9807 -49.9807 -49.9802 -49.9802 -49.9801 -49.9801
   -18.4156 -18.3359 -17.6691 -17.6468 -17.6459 -17.5408 -17.5253 -17.5082
   -17.3505 -17.3394 -17.3092 -17.3036 -10.4197 -10.4039 -10.2820 -10.1212
   -10.0578  -9.9444  -9.7467  -9.7082  -9.6530  -9.6076  -9.5113  -9.4651
    -8.9458  -8.9240  -8.8966  -8.8339  -8.7180  -8.6883  -8.6744  -8.6097
    -8.5761  -8.5642  -8.3266  -8.3161  -8.0923  -8.0781  -8.0463  -8.0389
    -7.7869  -7.7424  -7.5676  -7.4869  -7.2385  -7.1501  -7.0776  -7.0601
    -6.9897  -6.9026  -6.6149  -6.4539  -6.4003  -6.3962  -6.3723  -6.2839
    -6.2425  -5.9360  -5.9280  -5.8455  -4.6308  -4.5412  -4.5233  -4.4840
    -4.4495  -4.4004  -4.1917  -4.1517  -0.8568  -0.6977  -0.2464  -0.1808
     0.4059   0.4326   0.5722   0.6721   0.9683   1.0385   1.2175   1.2350
     1.3499   1.3740   1.4749   1.5512

          k = 0.1667 0.4811 0.0000 (109606 PWs)   bands (ev):

   -78.6735 -78.6735 -78.6471 -78.6471 -50.0069 -50.0069 -50.0060 -50.0060
   -50.0059 -50.0059 -49.9807 -49.9807 -49.9802 -49.9802 -49.9801 -49.9801
   -18.2192 -18.1579 -17.8757 -17.8421 -17.5898 -17.5602 -17.5395 -17.4642
   -17.4112 -17.3761 -17.3416 -17.3196 -10.4169 -10.3622 -10.1306 -10.0416
   -10.0213  -9.8937  -9.6598  -9.6232  -9.5935  -9.5430  -9.4164  -9.3116
    -9.1068  -9.0992  -8.9350  -8.9000  -8.8757  -8.8567  -8.6278  -8.5912
    -8.5276  -8.5123  -8.4822  -8.4540  -8.1016  -8.0714  -7.9490  -7.8979
    -7.7887  -7.6905  -7.4782  -7.3664  -7.2720  -7.1361  -7.0722  -6.9942
    -6.9245  -6.8367  -6.6178  -6.5489  -6.5132  -6.4509  -6.3827  -6.2954
    -6.1532  -6.0579  -5.9323  -5.8823  -4.6004  -4.5494  -4.4827  -4.4376
    -4.3895  -4.3627  -4.2373  -4.2014  -1.0091  -0.9445  -0.5125  -0.3931
     0.1204   0.3513   0.4948   0.5575   0.6961   0.7969   1.0389   1.1164
     1.1376   1.2084   1.2552   1.3763

          k = 0.3333 0.5774 0.0000 (109542 PWs)   bands (ev):

   -78.6736 -78.6735 -78.6471 -78.6471 -50.0069 -50.0069 -50.0061 -50.0060
   -50.0059 -50.0059 -49.9807 -49.9807 -49.9802 -49.9802 -49.9801 -49.9801
   -18.0435 -18.0157 -18.0157 -17.9760 -17.6253 -17.6253 -17.4732 -17.4420
   -17.4420 -17.3933 -17.3416 -17.3416 -10.1680 -10.1680 -10.1410 -10.0607
   -10.0607 -10.0273  -9.7353  -9.6459  -9.6459  -9.5879  -9.2653  -9.2203
    -9.2203  -9.1160  -8.9302  -8.9302  -8.7883  -8.7883  -8.6754  -8.6470
    -8.6470  -8.5953  -8.4726  -8.4726  -8.0319  -8.0319  -7.9385  -7.8865
    -7.8865  -7.8800  -7.2990  -7.2245  -7.2245  -7.0659  -7.0659  -7.0286
    -7.0286  -6.8945  -6.6580  -6.6580  -6.4159  -6.3738  -6.3738  -6.3513
    -6.1102  -5.9846  -5.9846  -5.8573  -4.5772  -4.5772  -4.4250  -4.3691
    -4.3690  -4.3430  -4.1426  -4.1426  -0.9988  -0.8772  -0.8772  -0.7924
     0.1251   0.1251   0.1433   0.3801   0.4458   0.4458   0.8492   0.8492
     1.0136   1.0873   1.2002   1.2002

          k =-0.1667 0.0962 0.0000 (109722 PWs)   bands (ev):

   -78.6735 -78.6735 -78.6471 -78.6471 -50.0069 -50.0069 -50.0060 -50.0060
   -50.0060 -50.0060 -49.9807 -49.9807 -49.9802 -49.9801 -49.9801 -49.9801
   -18.5310 -18.4463 -17.7078 -17.5904 -17.5399 -17.5104 -17.4809 -17.4537
   -17.3189 -17.3147 -17.2966 -17.2939 -10.4828 -10.4595 -10.3531 -10.0807
    -9.9505  -9.9282  -9.8704  -9.8618  -9.6913  -9.6717  -9.6072  -9.5914
    -8.8735  -8.8166  -8.7956  -8.7429  -8.7196  -8.6726  -8.6547  -8.6351
    -8.6267  -8.6097  -8.2100  -8.1771  -8.1421  -8.1284  -8.0878  -8.0236
    -7.9333  -7.9058  -7.4836  -7.3686  -7.3445  -7.2622  -7.2077  -7.1621
    -7.0779  -7.0263  -6.7540  -6.4266  -6.3555  -6.3211  -6.2609  -6.1603
    -6.0307  -5.8801  -5.8080  -5.7630  -4.6374  -4.6011  -4.4999  -4.4854
    -4.3014  -4.2712  -4.1525  -4.1416  -0.9830  -0.6683  -0.2662   0.0606
     0.2073   0.3741   0.5175   0.6473   0.6991   0.9393   1.2733   1.3677
     1.5095   1.5616   1.6915   1.7708

          k = 0.1667 0.0962 0.0000 (109722 PWs)   bands (ev):

   -78.6735 -78.6735 -78.6471 -78.6471 -50.0069 -50.0069 -50.0060 -50.0060
   -50.0060 -50.0060 -49.9807 -49.9807 -49.9802 -49.9802 -49.9801 -49.9801
   -18.5310 -18.4463 -17.7078 -17.5904 -17.5399 -17.5103 -17.4809 -17.4537
   -17.3189 -17.3147 -17.2966 -17.2939 -10.4828 -10.4595 -10.3531 -10.0807
    -9.9505  -9.9282  -9.8704  -9.8618  -9.6913  -9.6717  -9.6072  -9.5914
    -8.8735  -8.8166  -8.7956  -8.7429  -8.7196  -8.6726  -8.6547  -8.6351
    -8.6267  -8.6097  -8.2101  -8.1771  -8.1421  -8.1284  -8.0878  -8.0236
    -7.9333  -7.9058  -7.4836  -7.3686  -7.3445  -7.2622  -7.2077  -7.1621
    -7.0779  -7.0263  -6.7540  -6.4266  -6.3555  -6.3211  -6.2609  -6.1603
    -6.0307  -5.8801  -5.8080  -5.7630  -4.6374  -4.6011  -4.4999  -4.4854
    -4.3014  -4.2712  -4.1525  -4.1416  -0.9830  -0.6683  -0.2662   0.0606
     0.2073   0.3741   0.5175   0.6473   0.6991   0.9393   1.2733   1.3677
     1.5095   1.5616   1.6915   1.7708

          k =-0.3333 0.1925 0.0000 (109616 PWs)   bands (ev):

   -78.6735 -78.6735 -78.6471 -78.6471 -50.0069 -50.0069 -50.0060 -50.0060
   -50.0060 -50.0059 -49.9807 -49.9807 -49.9802 -49.9802 -49.9801 -49.9801
   -18.3630 -18.2872 -17.7557 -17.7079 -17.6174 -17.5309 -17.5152 -17.4904
   -17.3776 -17.3412 -17.3275 -17.3107 -10.5097 -10.4696 -10.1895 -10.0195
    -9.9502  -9.8995  -9.7823  -9.7426  -9.5847  -9.5479  -9.5016  -9.4092
    -9.0224  -8.9735  -8.9099  -8.8645  -8.8295  -8.8031  -8.5890  -8.5862
    -8.5654  -8.5218  -8.3515  -8.3152  -8.1608  -8.1578  -7.8899  -7.8599
    -7.8288  -7.7362  -7.5701  -7.4383  -7.3746  -7.1550  -7.0425  -6.9850
    -6.9388  -6.8203  -6.5841  -6.4691  -6.4471  -6.4314  -6.4220  -6.3384
    -6.2951  -5.9451  -5.9150  -5.8858  -4.6283  -4.5443  -4.4879  -4.4543
    -4.4333  -4.3590  -4.2888  -4.2772  -0.9331  -0.8524  -0.0720   0.0278
     0.3438   0.5148   0.7570   0.8076   0.8791   0.9700   1.0278   1.1302
     1.1470   1.3238   1.3889   1.4910

          k = 0.3333 0.1925 0.0000 (109616 PWs)   bands (ev):

   -78.6735 -78.6735 -78.6471 -78.6471 -50.0069 -50.0069 -50.0060 -50.0060
   -50.0060 -50.0059 -49.9807 -49.9807 -49.9802 -49.9802 -49.9801 -49.9801
   -18.3630 -18.2872 -17.7557 -17.7079 -17.6174 -17.5309 -17.5152 -17.4904
   -17.3776 -17.3412 -17.3275 -17.3107 -10.5097 -10.4696 -10.1895 -10.0195
    -9.9502  -9.8995  -9.7823  -9.7426  -9.5847  -9.5479  -9.5016  -9.4092
    -9.0224  -8.9735  -8.9099  -8.8645  -8.8295  -8.8031  -8.5890  -8.5861
    -8.5654  -8.5218  -8.3515  -8.3152  -8.1608  -8.1578  -7.8899  -7.8599
    -7.8288  -7.7362  -7.5701  -7.4383  -7.3746  -7.1550  -7.0425  -6.9850
    -6.9388  -6.8202  -6.5841  -6.4691  -6.4471  -6.4314  -6.4220  -6.3384
    -6.2951  -5.9451  -5.9150  -5.8859  -4.6283  -4.5443  -4.4879  -4.4543
    -4.4333  -4.3590  -4.2888  -4.2772  -0.9331  -0.8524  -0.0720   0.0278
     0.3438   0.5149   0.7570   0.8076   0.8791   0.9700   1.0278   1.1302
     1.1470   1.3237   1.3889   1.4910

          k = 0.5000-0.2887 0.0000 (109602 PWs)   bands (ev):

   -78.6735 -78.6735 -78.6471 -78.6471 -50.0069 -50.0069 -50.0060 -50.0060
   -50.0060 -50.0059 -49.9807 -49.9807 -49.9802 -49.9802 -49.9801 -49.9801
   -18.1915 -18.1566 -17.9173 -17.8882 -17.5523 -17.5205 -17.5072 -17.4865
   -17.4095 -17.3907 -17.3544 -17.3203 -10.5511 -10.5002 -10.0433 -10.0100
    -9.8896  -9.8886  -9.6298  -9.6210  -9.4561  -9.4490  -9.3947  -9.2168
    -9.2012  -9.1865  -9.0923  -9.0762  -8.8867  -8.8567  -8.5758  -8.5682
    -8.5088  -8.4962  -8.4182  -8.3837  -8.1843  -8.1788  -7.8560  -7.7205
    -7.6391  -7.6253  -7.5860  -7.4619  -7.4410  -7.2349  -7.0359  -6.9701
    -6.8230  -6.6884  -6.6329  -6.5887  -6.5545  -6.5366  -6.3712  -6.3335
    -6.1619  -6.0397  -5.9309  -5.8897  -4.5828  -4.5569  -4.4977  -4.4871
    -4.4219  -4.3582  -4.2992  -4.2800  -1.1592  -1.0574   0.0024   0.0068
     0.0868   0.2861   0.6504   0.7543   0.8144   1.0720   1.1150   1.1761
     1.1937   1.2371   1.3582   1.5561

          k =-0.5000-0.2887 0.0000 (109602 PWs)   bands (ev):

   -78.6735 -78.6735 -78.6471 -78.6471 -50.0069 -50.0069 -50.0060 -50.0060
   -50.0060 -50.0059 -49.9807 -49.9807 -49.9802 -49.9802 -49.9801 -49.9801
   -18.1915 -18.1566 -17.9173 -17.8882 -17.5523 -17.5205 -17.5072 -17.4865
   -17.4095 -17.3907 -17.3544 -17.3203 -10.5511 -10.5002 -10.0433 -10.0100
    -9.8896  -9.8886  -9.6298  -9.6210  -9.4561  -9.4490  -9.3947  -9.2168
    -9.2012  -9.1865  -9.0923  -9.0762  -8.8867  -8.8567  -8.5758  -8.5682
    -8.5088  -8.4962  -8.4182  -8.3837  -8.1843  -8.1788  -7.8560  -7.7205
    -7.6391  -7.6253  -7.5860  -7.4619  -7.4410  -7.2349  -7.0359  -6.9701
    -6.8230  -6.6884  -6.6329  -6.5887  -6.5545  -6.5366  -6.3712  -6.3335
    -6.1619  -6.0397  -5.9309  -5.8897  -4.5828  -4.5569  -4.4977  -4.4871
    -4.4218  -4.3582  -4.2992  -4.2800  -1.1592  -1.0574   0.0024   0.0068
     0.0868   0.2861   0.6504   0.7543   0.8144   1.0720   1.1149   1.1761
     1.1937   1.2371   1.3582   1.5560

          k =-0.1667 0.2887 0.0000 (109615 PWs)   bands (ev):

   -78.6735 -78.6735 -78.6471 -78.6471 -50.0069 -50.0069 -50.0060 -50.0060
   -50.0059 -50.0059 -49.9807 -49.9807 -49.9802 -49.9802 -49.9801 -49.9801
   -18.4156 -18.3359 -17.6691 -17.6468 -17.6459 -17.5408 -17.5253 -17.5082
   -17.3505 -17.3394 -17.3092 -17.3036 -10.4197 -10.4039 -10.2820 -10.1212
   -10.0578  -9.9444  -9.7467  -9.7082  -9.6530  -9.6076  -9.5113  -9.4651
    -8.9458  -8.9240  -8.8966  -8.8339  -8.7180  -8.6883  -8.6744  -8.6097
    -8.5761  -8.5642  -8.3266  -8.3161  -8.0923  -8.0781  -8.0463  -8.0389
    -7.7869  -7.7424  -7.5676  -7.4869  -7.2385  -7.1501  -7.0776  -7.0601
    -6.9897  -6.9026  -6.6149  -6.4539  -6.4003  -6.3962  -6.3723  -6.2839
    -6.2425  -5.9360  -5.9280  -5.8455  -4.6308  -4.5412  -4.5233  -4.4840
    -4.4495  -4.4004  -4.1917  -4.1517  -0.8568  -0.6977  -0.2464  -0.1808
     0.4059   0.4326   0.5722   0.6721   0.9683   1.0385   1.2175   1.2349
     1.3499   1.3740   1.4749   1.5512

          k = 0.3333 0.0000 0.0000 (109615 PWs)   bands (ev):

   -78.6735 -78.6735 -78.6471 -78.6471 -50.0069 -50.0069 -50.0060 -50.0060
   -50.0059 -50.0059 -49.9807 -49.9807 -49.9802 -49.9802 -49.9801 -49.9801
   -18.4156 -18.3359 -17.6691 -17.6468 -17.6459 -17.5408 -17.5253 -17.5082
   -17.3505 -17.3394 -17.3092 -17.3036 -10.4197 -10.4039 -10.2820 -10.1212
   -10.0578  -9.9444  -9.7467  -9.7081  -9.6530  -9.6076  -9.5113  -9.4651
    -8.9458  -8.9240  -8.8966  -8.8339  -8.7180  -8.6883  -8.6744  -8.6097
    -8.5761  -8.5642  -8.3266  -8.3161  -8.0923  -8.0781  -8.0463  -8.0389
    -7.7869  -7.7424  -7.5676  -7.4869  -7.2385  -7.1501  -7.0776  -7.0601
    -6.9897  -6.9026  -6.6149  -6.4539  -6.4003  -6.3962  -6.3723  -6.2839
    -6.2425  -5.9360  -5.9280  -5.8455  -4.6308  -4.5412  -4.5233  -4.4840
    -4.4495  -4.4004  -4.1917  -4.1517  -0.8568  -0.6977  -0.2464  -0.1808
     0.4059   0.4326   0.5722   0.6721   0.9683   1.0385   1.2175   1.2349
     1.3499   1.3740   1.4749   1.5512

          k =-0.3333 0.3849 0.0000 (109606 PWs)   bands (ev):

   -78.6735 -78.6735 -78.6471 -78.6471 -50.0069 -50.0069 -50.0060 -50.0060
   -50.0059 -50.0059 -49.9807 -49.9807 -49.9802 -49.9802 -49.9801 -49.9801
   -18.2192 -18.1579 -17.8757 -17.8421 -17.5898 -17.5602 -17.5395 -17.4642
   -17.4112 -17.3761 -17.3416 -17.3196 -10.4169 -10.3622 -10.1306 -10.0416
   -10.0213  -9.8937  -9.6598  -9.6232  -9.5935  -9.5430  -9.4164  -9.3116
    -9.1068  -9.0992  -8.9350  -8.9000  -8.8757  -8.8567  -8.6278  -8.5912
    -8.5276  -8.5123  -8.4822  -8.4540  -8.1016  -8.0714  -7.9490  -7.8979
    -7.7887  -7.6905  -7.4782  -7.3664  -7.2720  -7.1361  -7.0722  -6.9942
    -6.9245  -6.8367  -6.6178  -6.5489  -6.5132  -6.4509  -6.3827  -6.2954
    -6.1532  -6.0579  -5.9323  -5.8823  -4.6004  -4.5494  -4.4827  -4.4376
    -4.3895  -4.3627  -4.2373  -4.2014  -1.0091  -0.9445  -0.5125  -0.3931
     0.1204   0.3513   0.4948   0.5575   0.6961   0.7969   1.0389   1.1164
     1.1376   1.2084   1.2552   1.3763

          k =-0.1667 0.4811 0.0000 (109606 PWs)   bands (ev):

   -78.6735 -78.6735 -78.6471 -78.6471 -50.0069 -50.0069 -50.0060 -50.0060
   -50.0059 -50.0059 -49.9807 -49.9807 -49.9802 -49.9802 -49.9801 -49.9801
   -18.2194 -18.1576 -17.8788 -17.8389 -17.5898 -17.5630 -17.5372 -17.4635
   -17.4127 -17.3740 -17.3440 -17.3185 -10.4200 -10.3566 -10.1375 -10.0556
    -9.9913  -9.9096  -9.6560  -9.6079  -9.5987  -9.5521  -9.4031  -9.3357
    -9.1072  -9.0763  -8.9392  -8.9081  -8.8934  -8.8426  -8.6210  -8.5785
    -8.5262  -8.5144  -8.5043  -8.4472  -8.1172  -8.0716  -7.9440  -7.8765
    -7.7810  -7.7001  -7.4917  -7.3728  -7.2552  -7.1276  -7.0686  -7.0096
    -6.9670  -6.7874  -6.6343  -6.5460  -6.5113  -6.4250  -6.3833  -6.2983
    -6.2081  -6.0063  -5.9376  -5.8927  -4.5855  -4.5783  -4.4848  -4.4341
    -4.3792  -4.3492  -4.2427  -4.2076  -1.0263  -0.9237  -0.5128  -0.3967
     0.1304   0.3362   0.4761   0.5533   0.6947   0.8664   0.9760   1.0596
     1.1883   1.2467   1.3134   1.3527

          k = 0.5000 0.0962 0.0000 (109606 PWs)   bands (ev):

   -78.6735 -78.6735 -78.6471 -78.6471 -50.0069 -50.0069 -50.0060 -50.0060
   -50.0059 -50.0059 -49.9807 -49.9807 -49.9802 -49.9802 -49.9801 -49.9801
   -18.2192 -18.1580 -17.8757 -17.8421 -17.5898 -17.5602 -17.5395 -17.4642
   -17.4111 -17.3761 -17.3417 -17.3196 -10.4169 -10.3622 -10.1306 -10.0416
   -10.0213  -9.8938  -9.6598  -9.6232  -9.5935  -9.5430  -9.4164  -9.3116
    -9.1068  -9.0992  -8.9350  -8.9000  -8.8757  -8.8567  -8.6278  -8.5912
    -8.5276  -8.5123  -8.4822  -8.4540  -8.1016  -8.0714  -7.9490  -7.8979
    -7.7887  -7.6905  -7.4782  -7.3664  -7.2720  -7.1361  -7.0721  -6.9942
    -6.9245  -6.8367  -6.6178  -6.5489  -6.5132  -6.4509  -6.3827  -6.2954
    -6.1532  -6.0579  -5.9323  -5.8823  -4.6004  -4.5494  -4.4827  -4.4376
    -4.3895  -4.3627  -4.2373  -4.2014  -1.0091  -0.9445  -0.5125  -0.3931
     0.1204   0.3513   0.4948   0.5574   0.6961   0.7969   1.0389   1.1164
     1.1376   1.2084   1.2552   1.3763

          k =-0.3333-0.3849 0.0000 (109606 PWs)   bands (ev):

   -78.6735 -78.6735 -78.6471 -78.6471 -50.0069 -50.0069 -50.0060 -50.0060
   -50.0059 -50.0059 -49.9807 -49.9807 -49.9802 -49.9802 -49.9801 -49.9801
   -18.2194 -18.1576 -17.8788 -17.8389 -17.5898 -17.5630 -17.5372 -17.4635
   -17.4127 -17.3740 -17.3440 -17.3185 -10.4200 -10.3566 -10.1375 -10.0556
    -9.9913  -9.9096  -9.6560  -9.6079  -9.5987  -9.5521  -9.4031  -9.3357
    -9.1072  -9.0763  -8.9392  -8.9081  -8.8934  -8.8426  -8.6210  -8.5785
    -8.5262  -8.5144  -8.5043  -8.4472  -8.1172  -8.0716  -7.9440  -7.8765
    -7.7810  -7.7001  -7.4917  -7.3728  -7.2552  -7.1276  -7.0686  -7.0096
    -6.9670  -6.7874  -6.6343  -6.5460  -6.5113  -6.4250  -6.3833  -6.2983
    -6.2081  -6.0063  -5.9376  -5.8927  -4.5855  -4.5783  -4.4848  -4.4341
    -4.3792  -4.3492  -4.2427  -4.2076  -1.0263  -0.9237  -0.5128  -0.3967
     0.1304   0.3362   0.4761   0.5533   0.6947   0.8664   0.9760   1.0596
     1.1883   1.2467   1.3134   1.3526

          k = 0.5000-0.0962 0.0000 (109606 PWs)   bands (ev):

   -78.6735 -78.6735 -78.6471 -78.6471 -50.0069 -50.0069 -50.0060 -50.0060
   -50.0059 -50.0059 -49.9807 -49.9807 -49.9802 -49.9802 -49.9801 -49.9801
   -18.2194 -18.1576 -17.8788 -17.8389 -17.5898 -17.5630 -17.5372 -17.4635
   -17.4127 -17.3740 -17.3440 -17.3185 -10.4200 -10.3566 -10.1375 -10.0556
    -9.9913  -9.9096  -9.6560  -9.6079  -9.5987  -9.5521  -9.4031  -9.3357
    -9.1072  -9.0763  -8.9392  -8.9081  -8.8934  -8.8426  -8.6210  -8.5785
    -8.5262  -8.5144  -8.5043  -8.4472  -8.1172  -8.0716  -7.9440  -7.8765
    -7.7810  -7.7001  -7.4917  -7.3728  -7.2552  -7.1276  -7.0686  -7.0096
    -6.9670  -6.7874  -6.6343  -6.5460  -6.5113  -6.4250  -6.3833  -6.2983
    -6.2081  -6.0063  -5.9376  -5.8927  -4.5855  -4.5783  -4.4848  -4.4341
    -4.3792  -4.3492  -4.2427  -4.2076  -1.0263  -0.9237  -0.5128  -0.3967
     0.1304   0.3362   0.4761   0.5533   0.6947   0.8664   0.9760   1.0596
     1.1883   1.2467   1.3134   1.3526

 ------ SPIN DOWN ----------


          k = 0.0000 0.0000 0.0000 (109591 PWs)   bands (ev):

   -75.2042 -75.2042 -75.1780 -75.1779 -46.5974 -46.5974 -46.5883 -46.5883
   -46.5883 -46.5883 -46.5700 -46.5699 -46.5632 -46.5632 -46.5632 -46.5632
   -18.6677 -18.5762 -17.8746 -17.7535 -17.5569 -17.5569 -17.5446 -17.5446
   -17.3772 -17.3772 -17.3705 -17.3705 -10.0750 -10.0220  -9.7139  -9.2190
    -9.0915  -9.0915  -8.9946  -8.9946  -8.8382  -8.7525  -8.7525  -8.7518
    -8.7026  -8.7026  -7.9568  -7.9447  -7.6253  -7.6253  -7.5185  -7.5185
    -7.3437  -7.3035  -7.2350  -7.2350  -7.1879  -7.1879  -6.9864  -6.3573
    -6.3573  -6.2907  -6.2907  -6.2753  -5.9179  -5.9179  -5.8593  -5.8593
    -2.2504  -2.2504  -2.2275  -2.2274  -2.1543  -2.1543  -2.1484  -2.0991
    -2.0991  -2.0858  -1.9815  -1.9791  -1.7556  -1.7556  -1.7539  -1.7539
    -1.5881  -1.5881  -1.5819  -1.5819  -0.3259  -0.2066  -0.1267   0.1579
     0.1659   0.3384   1.0139   1.2125   1.2125   1.2274   1.2274   1.3810
     1.8051   1.9785   1.9785   2.0547

          k = 0.0000 0.1925 0.0000 (109722 PWs)   bands (ev):

   -75.2042 -75.2042 -75.1780 -75.1779 -46.5974 -46.5974 -46.5883 -46.5883
   -46.5882 -46.5882 -46.5700 -46.5699 -46.5632 -46.5632 -46.5632 -46.5632
   -18.6083 -18.5193 -17.8360 -17.7208 -17.6484 -17.6189 -17.5944 -17.5674
   -17.3940 -17.3859 -17.3718 -17.3681 -10.0409 -10.0158  -9.6739  -9.2625
    -9.1820  -9.1405  -9.0071  -8.9663  -8.9136  -8.8605  -8.7265  -8.6926
    -8.3306  -8.2647  -7.8215  -7.7338  -7.6847  -7.6814  -7.6479  -7.5387
    -7.3491  -7.2673  -7.2360  -7.1728  -7.1366  -7.1155  -6.8432  -6.5218
    -6.4508  -6.4252  -6.3682  -6.3307  -6.2166  -6.0978  -6.0119  -5.9428
    -2.2697  -2.2640  -2.2424  -2.2023  -2.1778  -2.1625  -2.1445  -2.1156
    -2.0268  -2.0073  -1.9631  -1.9485  -1.7663  -1.7594  -1.7494  -1.7387
    -1.6783  -1.6660  -1.6419  -1.6291  -0.2088   0.0594   0.1183   0.4107
     0.5746   0.5935   0.7032   0.8953   0.9438   1.1512   1.4496   1.6800
     1.7358   1.7535   1.9800   2.0247

          k = 0.0000 0.3849 0.0000 (109616 PWs)   bands (ev):

   -75.2042 -75.2042 -75.1780 -75.1779 -46.5974 -46.5974 -46.5883 -46.5883
   -46.5882 -46.5882 -46.5700 -46.5699 -46.5633 -46.5633 -46.5632 -46.5632
   -18.4441 -18.3647 -17.8618 -17.8129 -17.7335 -17.6555 -17.6374 -17.6085
   -17.4540 -17.4074 -17.4044 -17.3759  -9.9936  -9.9595  -9.5403  -9.3431
    -9.2858  -9.1408  -9.0776  -8.8901  -8.8223  -8.6151  -8.5400  -8.3777
    -8.2177  -8.0483  -7.8487  -7.7590  -7.7277  -7.6244  -7.5471  -7.3602
    -7.3197  -7.2122  -7.1950  -7.1480  -7.1126  -7.0866  -6.9231  -6.8555
    -6.7387  -6.6835  -6.4887  -6.4178  -6.3855  -6.1383  -6.1300  -6.0681
    -2.3159  -2.2974  -2.2659  -2.2500  -2.2197  -2.1789  -2.1295  -2.1186
    -2.0626  -2.0409  -1.8776  -1.8750  -1.8602  -1.8204  -1.7659  -1.7485
    -1.7145  -1.6932  -1.6419  -1.6243  -0.2797  -0.2048   0.4916   0.5776
     0.7393   0.8119   0.9231   1.0223   1.1533   1.1749   1.2798   1.3648
     1.4404   1.5757   1.6403   1.7465

          k = 0.0000-0.5774 0.0000 (109602 PWs)   bands (ev):

   -75.2042 -75.2042 -75.1779 -75.1779 -46.5974 -46.5974 -46.5883 -46.5883
   -46.5881 -46.5881 -46.5700 -46.5699 -46.5633 -46.5633 -46.5632 -46.5632
   -18.2711 -18.2354 -18.0234 -17.9935 -17.6790 -17.6369 -17.6310 -17.5925
   -17.4953 -17.4697 -17.4143 -17.3820  -9.9901  -9.9320  -9.3952  -9.3710
    -9.3143  -9.1855  -8.8527  -8.7545  -8.6225  -8.6082  -8.5072  -8.4749
    -8.2004  -8.0768  -7.9124  -7.8199  -7.6720  -7.6544  -7.5688  -7.4396
    -7.4118  -7.3837  -7.3235  -7.1206  -6.9210  -6.9207  -6.8690  -6.8232
    -6.7778  -6.7041  -6.5744  -6.5058  -6.3573  -6.2940  -6.0377  -6.0370
    -2.4157  -2.3974  -2.2713  -2.2530  -2.2193  -2.2039  -2.1515  -2.1403
    -2.0085  -2.0005  -1.9852  -1.9679  -1.9026  -1.8505  -1.6991  -1.6906
    -1.6642  -1.6494  -1.6334  -1.6236  -0.5434  -0.3854   0.2242   0.5002
     0.8315   0.8791   0.8984   0.9708   1.1702   1.3117   1.3480   1.3907
     1.4464   1.5686   1.6513   1.7724

          k = 0.1667 0.2887 0.0000 (109615 PWs)   bands (ev):

   -75.2042 -75.2042 -75.1780 -75.1779 -46.5974 -46.5974 -46.5883 -46.5883
   -46.5882 -46.5882 -46.5700 -46.5699 -46.5633 -46.5633 -46.5632 -46.5632
   -18.4959 -18.4125 -17.7743 -17.7663 -17.7517 -17.6659 -17.6455 -17.6239
   -17.4279 -17.4122 -17.3813 -17.3714  -9.9675  -9.9443  -9.6098  -9.3216
    -9.2438  -9.2191  -9.0532  -8.9899  -8.8793  -8.6922  -8.5515  -8.4736
    -8.1133  -7.9658  -7.9248  -7.8567  -7.7385  -7.6945  -7.4817  -7.3636
    -7.3167  -7.2805  -7.1813  -7.1453  -7.0493  -7.0142  -6.9953  -6.8631
    -6.5614  -6.5095  -6.4639  -6.4357  -6.4057  -6.1646  -6.1159  -6.0694
    -2.2844  -2.2440  -2.2370  -2.2146  -2.1939  -2.1865  -2.1474  -2.1379
    -2.1046  -2.0992  -1.8535  -1.8355  -1.8245  -1.8142  -1.7793  -1.7314
    -1.7060  -1.6904  -1.6584  -1.6293  -0.1623  -0.0240   0.3222   0.4118
     0.6201   0.6530   0.8363   0.8906   1.1535   1.1990   1.4270   1.5085
     1.5449   1.6221   1.7051   1.7785

          k = 0.1667 0.4811 0.0000 (109606 PWs)   bands (ev):

   -75.2042 -75.2041 -75.1779 -75.1779 -46.5974 -46.5974 -46.5883 -46.5883
   -46.5881 -46.5881 -46.5700 -46.5699 -46.5633 -46.5633 -46.5631 -46.5631
   -18.3027 -18.2384 -17.9770 -17.9408 -17.7142 -17.6859 -17.6502 -17.5757
   -17.4958 -17.4604 -17.4023 -17.3825  -9.8735  -9.8217  -9.4541  -9.3698
    -9.3032  -9.0946  -9.0728  -8.8648  -8.8040  -8.5367  -8.5134  -8.4508
    -8.3233  -8.1756  -7.8911  -7.8150  -7.6658  -7.6193  -7.5088  -7.4645
    -7.4313  -7.3775  -7.2262  -7.0472  -6.9791  -6.8650  -6.8102  -6.7621
    -6.7056  -6.6615  -6.5329  -6.4624  -6.3418  -6.2378  -6.1587  -6.1039
    -2.3356  -2.3247  -2.2579  -2.2280  -2.2185  -2.2036  -2.1890  -2.1548
    -2.0967  -2.0593  -2.0075  -1.9407  -1.8980  -1.8453  -1.6992  -1.6979
    -1.6517  -1.6427  -1.6088  -1.5860  -0.4185  -0.2829   0.1605   0.1735
     0.3998   0.7206   0.7670   0.8092   0.9887   1.0778   1.2588   1.3687
     1.4190   1.4433   1.4969   1.6244

          k = 0.3333 0.5774 0.0000 (109542 PWs)   bands (ev):

   -75.2041 -75.2041 -75.1779 -75.1779 -46.5974 -46.5974 -46.5883 -46.5883
   -46.5881 -46.5881 -46.5700 -46.5699 -46.5633 -46.5633 -46.5631 -46.5631
   -18.1324 -18.1042 -18.1042 -18.0639 -17.7550 -17.7550 -17.5728 -17.5401
   -17.5401 -17.4959 -17.3984 -17.3984  -9.6307  -9.5620  -9.5620  -9.4764
    -9.1136  -9.1073  -9.1073  -8.8703  -8.8651  -8.8651  -8.4416  -8.3509
    -8.3509  -8.2648  -8.2648  -8.0467  -7.5856  -7.5856  -7.5425  -7.5425
    -7.1805  -7.1804  -7.1757  -6.9748  -6.9748  -6.8275  -6.7240  -6.6617
    -6.6617  -6.6041  -6.5300  -6.5300  -6.2694  -6.2257  -6.2257  -6.1840
    -2.2894  -2.2781  -2.2781  -2.2411  -2.2326  -2.2326  -2.1695  -2.1695
    -2.1512  -2.1007  -2.1007  -2.0378  -1.8502  -1.8502  -1.6505  -1.6461
    -1.6461  -1.5858  -1.5858  -1.5571  -0.3361  -0.2647  -0.2647  -0.2185
     0.4108   0.4108   0.5589   0.6844   0.6844   0.7587   1.1127   1.1127
     1.2534   1.4233   1.4912   1.4913

          k =-0.1667 0.0962 0.0000 (109722 PWs)   bands (ev):

   -75.2042 -75.2042 -75.1780 -75.1779 -46.5974 -46.5974 -46.5883 -46.5883
   -46.5882 -46.5882 -46.5700 -46.5699 -46.5632 -46.5632 -46.5632 -46.5632
   -18.6083 -18.5193 -17.8360 -17.7208 -17.6484 -17.6189 -17.5944 -17.5674
   -17.3940 -17.3859 -17.3718 -17.3681 -10.0409 -10.0158  -9.6739  -9.2625
    -9.1820  -9.1405  -9.0071  -8.9663  -8.9136  -8.8605  -8.7265  -8.6926
    -8.3306  -8.2647  -7.8215  -7.7338  -7.6847  -7.6814  -7.6479  -7.5387
    -7.3491  -7.2673  -7.2360  -7.1728  -7.1366  -7.1155  -6.8432  -6.5218
    -6.4508  -6.4252  -6.3682  -6.3307  -6.2166  -6.0978  -6.0119  -5.9428
    -2.2697  -2.2640  -2.2424  -2.2023  -2.1778  -2.1625  -2.1445  -2.1156
    -2.0268  -2.0073  -1.9631  -1.9485  -1.7663  -1.7594  -1.7494  -1.7387
    -1.6783  -1.6660  -1.6419  -1.6291  -0.2088   0.0594   0.1183   0.4107
     0.5746   0.5935   0.7032   0.8953   0.9438   1.1512   1.4496   1.6800
     1.7358   1.7535   1.9800   2.0247

          k = 0.1667 0.0962 0.0000 (109722 PWs)   bands (ev):

   -75.2042 -75.2042 -75.1780 -75.1779 -46.5974 -46.5974 -46.5883 -46.5883
   -46.5882 -46.5882 -46.5700 -46.5699 -46.5632 -46.5632 -46.5632 -46.5632
   -18.6083 -18.5193 -17.8360 -17.7208 -17.6484 -17.6189 -17.5944 -17.5674
   -17.3940 -17.3859 -17.3718 -17.3681 -10.0409 -10.0158  -9.6739  -9.2625
    -9.1820  -9.1405  -9.0071  -8.9663  -8.9136  -8.8605  -8.7265  -8.6926
    -8.3306  -8.2647  -7.8215  -7.7338  -7.6847  -7.6814  -7.6479  -7.5387
    -7.3491  -7.2673  -7.2360  -7.1728  -7.1366  -7.1155  -6.8432  -6.5218
    -6.4508  -6.4252  -6.3682  -6.3307  -6.2166  -6.0978  -6.0119  -5.9428
    -2.2697  -2.2640  -2.2424  -2.2023  -2.1778  -2.1625  -2.1445  -2.1156
    -2.0268  -2.0073  -1.9631  -1.9485  -1.7663  -1.7594  -1.7494  -1.7387
    -1.6783  -1.6660  -1.6419  -1.6291  -0.2088   0.0594   0.1183   0.4107
     0.5746   0.5935   0.7032   0.8953   0.9438   1.1512   1.4496   1.6800
     1.7358   1.7535   1.9800   2.0247

          k =-0.3333 0.1925 0.0000 (109616 PWs)   bands (ev):

   -75.2042 -75.2042 -75.1780 -75.1779 -46.5974 -46.5974 -46.5883 -46.5883
   -46.5882 -46.5882 -46.5700 -46.5699 -46.5633 -46.5633 -46.5632 -46.5632
   -18.4441 -18.3647 -17.8618 -17.8128 -17.7335 -17.6555 -17.6374 -17.6085
   -17.4540 -17.4074 -17.4044 -17.3759  -9.9936  -9.9595  -9.5403  -9.3431
    -9.2857  -9.1408  -9.0776  -8.8901  -8.8223  -8.6151  -8.5400  -8.3777
    -8.2177  -8.0483  -7.8487  -7.7590  -7.7277  -7.6244  -7.5471  -7.3602
    -7.3197  -7.2122  -7.1950  -7.1480  -7.1126  -7.0866  -6.9231  -6.8555
    -6.7387  -6.6835  -6.4887  -6.4178  -6.3855  -6.1383  -6.1300  -6.0681
    -2.3159  -2.2974  -2.2659  -2.2500  -2.2197  -2.1789  -2.1295  -2.1186
    -2.0626  -2.0409  -1.8776  -1.8750  -1.8602  -1.8204  -1.7659  -1.7485
    -1.7145  -1.6932  -1.6419  -1.6243  -0.2797  -0.2048   0.4916   0.5776
     0.7393   0.8119   0.9231   1.0223   1.1533   1.1749   1.2798   1.3648
     1.4404   1.5757   1.6403   1.7465

          k = 0.3333 0.1925 0.0000 (109616 PWs)   bands (ev):

   -75.2042 -75.2042 -75.1780 -75.1779 -46.5974 -46.5974 -46.5883 -46.5883
   -46.5882 -46.5882 -46.5700 -46.5699 -46.5633 -46.5633 -46.5632 -46.5632
   -18.4441 -18.3647 -17.8618 -17.8128 -17.7336 -17.6555 -17.6374 -17.6085
   -17.4540 -17.4074 -17.4044 -17.3759  -9.9936  -9.9595  -9.5403  -9.3431
    -9.2857  -9.1408  -9.0776  -8.8901  -8.8223  -8.6151  -8.5400  -8.3777
    -8.2177  -8.0483  -7.8487  -7.7590  -7.7277  -7.6244  -7.5471  -7.3602
    -7.3197  -7.2122  -7.1950  -7.1480  -7.1126  -7.0866  -6.9231  -6.8555
    -6.7387  -6.6835  -6.4887  -6.4178  -6.3855  -6.1383  -6.1300  -6.0681
    -2.3158  -2.2974  -2.2659  -2.2500  -2.2197  -2.1789  -2.1295  -2.1186
    -2.0626  -2.0409  -1.8776  -1.8750  -1.8602  -1.8204  -1.7659  -1.7485
    -1.7145  -1.6932  -1.6419  -1.6243  -0.2797  -0.2048   0.4916   0.5776
     0.7393   0.8119   0.9231   1.0223   1.1533   1.1749   1.2798   1.3648
     1.4404   1.5757   1.6403   1.7465

          k = 0.5000-0.2887 0.0000 (109602 PWs)   bands (ev):

   -75.2042 -75.2042 -75.1779 -75.1779 -46.5974 -46.5974 -46.5883 -46.5883
   -46.5881 -46.5881 -46.5700 -46.5699 -46.5633 -46.5633 -46.5632 -46.5631
   -18.2711 -18.2354 -18.0234 -17.9935 -17.6790 -17.6369 -17.6310 -17.5925
   -17.4953 -17.4697 -17.4143 -17.3820  -9.9901  -9.9320  -9.3952  -9.3710
    -9.3143  -9.1855  -8.8527  -8.7545  -8.6225  -8.6082  -8.5072  -8.4749
    -8.2004  -8.0768  -7.9124  -7.8199  -7.6720  -7.6544  -7.5688  -7.4396
    -7.4118  -7.3837  -7.3235  -7.1206  -6.9210  -6.9207  -6.8690  -6.8232
    -6.7778  -6.7041  -6.5744  -6.5058  -6.3573  -6.2940  -6.0377  -6.0370
    -2.4157  -2.3974  -2.2714  -2.2530  -2.2193  -2.2039  -2.1515  -2.1403
    -2.0085  -2.0005  -1.9852  -1.9679  -1.9026  -1.8505  -1.6991  -1.6906
    -1.6642  -1.6494  -1.6334  -1.6236  -0.5434  -0.3854   0.2242   0.5002
     0.8315   0.8791   0.8984   0.9708   1.1702   1.3117   1.3480   1.3907
     1.4464   1.5685   1.6513   1.7724

          k =-0.5000-0.2887 0.0000 (109602 PWs)   bands (ev):

   -75.2042 -75.2042 -75.1779 -75.1779 -46.5974 -46.5974 -46.5883 -46.5883
   -46.5881 -46.5881 -46.5700 -46.5699 -46.5633 -46.5633 -46.5632 -46.5632
   -18.2711 -18.2354 -18.0234 -17.9935 -17.6790 -17.6369 -17.6310 -17.5925
   -17.4953 -17.4697 -17.4143 -17.3820  -9.9901  -9.9320  -9.3952  -9.3710
    -9.3143  -9.1855  -8.8527  -8.7545  -8.6225  -8.6082  -8.5072  -8.4749
    -8.2004  -8.0768  -7.9124  -7.8199  -7.6720  -7.6544  -7.5688  -7.4397
    -7.4118  -7.3837  -7.3235  -7.1206  -6.9210  -6.9207  -6.8690  -6.8232
    -6.7778  -6.7041  -6.5744  -6.5058  -6.3573  -6.2940  -6.0377  -6.0370
    -2.4157  -2.3974  -2.2713  -2.2530  -2.2193  -2.2039  -2.1515  -2.1403
    -2.0085  -2.0005  -1.9852  -1.9679  -1.9026  -1.8505  -1.6991  -1.6906
    -1.6642  -1.6494  -1.6334  -1.6237  -0.5434  -0.3854   0.2242   0.5002
     0.8315   0.8791   0.8984   0.9708   1.1702   1.3117   1.3480   1.3907
     1.4464   1.5686   1.6513   1.7724

          k =-0.1667 0.2887 0.0000 (109615 PWs)   bands (ev):

   -75.2042 -75.2042 -75.1780 -75.1779 -46.5974 -46.5974 -46.5883 -46.5883
   -46.5882 -46.5882 -46.5700 -46.5699 -46.5633 -46.5633 -46.5632 -46.5632
   -18.4959 -18.4125 -17.7743 -17.7663 -17.7517 -17.6659 -17.6455 -17.6239
   -17.4279 -17.4122 -17.3813 -17.3714  -9.9675  -9.9443  -9.6098  -9.3216
    -9.2438  -9.2191  -9.0532  -8.9899  -8.8793  -8.6922  -8.5515  -8.4736
    -8.1133  -7.9658  -7.9248  -7.8567  -7.7385  -7.6945  -7.4817  -7.3636
    -7.3167  -7.2805  -7.1813  -7.1453  -7.0493  -7.0142  -6.9953  -6.8631
    -6.5614  -6.5095  -6.4639  -6.4357  -6.4057  -6.1646  -6.1159  -6.0694
    -2.2844  -2.2440  -2.2370  -2.2146  -2.1939  -2.1865  -2.1474  -2.1379
    -2.1046  -2.0992  -1.8535  -1.8355  -1.8245  -1.8142  -1.7793  -1.7315
    -1.7060  -1.6904  -1.6584  -1.6293  -0.1623  -0.0240   0.3222   0.4118
     0.6201   0.6530   0.8363   0.8906   1.1535   1.1990   1.4270   1.5085
     1.5449   1.6221   1.7051   1.7785

          k = 0.3333 0.0000 0.0000 (109615 PWs)   bands (ev):

   -75.2042 -75.2042 -75.1780 -75.1779 -46.5974 -46.5974 -46.5883 -46.5883
   -46.5882 -46.5882 -46.5700 -46.5699 -46.5633 -46.5633 -46.5632 -46.5632
   -18.4959 -18.4125 -17.7743 -17.7663 -17.7517 -17.6659 -17.6455 -17.6239
   -17.4279 -17.4122 -17.3813 -17.3714  -9.9675  -9.9443  -9.6098  -9.3216
    -9.2438  -9.2191  -9.0532  -8.9899  -8.8793  -8.6922  -8.5515  -8.4736
    -8.1133  -7.9658  -7.9248  -7.8567  -7.7385  -7.6945  -7.4817  -7.3636
    -7.3167  -7.2805  -7.1813  -7.1453  -7.0493  -7.0142  -6.9953  -6.8631
    -6.5614  -6.5095  -6.4639  -6.4357  -6.4057  -6.1646  -6.1159  -6.0694
    -2.2844  -2.2440  -2.2370  -2.2146  -2.1939  -2.1865  -2.1474  -2.1379
    -2.1046  -2.0992  -1.8535  -1.8355  -1.8245  -1.8142  -1.7793  -1.7315
    -1.7060  -1.6904  -1.6584  -1.6293  -0.1623  -0.0240   0.3222   0.4118
     0.6201   0.6530   0.8363   0.8906   1.1535   1.1990   1.4270   1.5085
     1.5449   1.6221   1.7051   1.7785

          k =-0.3333 0.3849 0.0000 (109606 PWs)   bands (ev):

   -75.2042 -75.2041 -75.1779 -75.1779 -46.5974 -46.5974 -46.5883 -46.5883
   -46.5881 -46.5881 -46.5700 -46.5699 -46.5633 -46.5633 -46.5631 -46.5631
   -18.3027 -18.2384 -17.9770 -17.9408 -17.7142 -17.6859 -17.6502 -17.5757
   -17.4958 -17.4604 -17.4023 -17.3825  -9.8735  -9.8217  -9.4541  -9.3698
    -9.3032  -9.0946  -9.0728  -8.8648  -8.8040  -8.5367  -8.5134  -8.4508
    -8.3233  -8.1756  -7.8911  -7.8150  -7.6658  -7.6194  -7.5088  -7.4645
    -7.4313  -7.3775  -7.2262  -7.0472  -6.9791  -6.8650  -6.8102  -6.7621
    -6.7056  -6.6615  -6.5329  -6.4624  -6.3418  -6.2378  -6.1587  -6.1039
    -2.3356  -2.3247  -2.2579  -2.2280  -2.2185  -2.2036  -2.1890  -2.1548
    -2.0967  -2.0593  -2.0075  -1.9407  -1.8980  -1.8453  -1.6992  -1.6979
    -1.6517  -1.6427  -1.6088  -1.5860  -0.4185  -0.2829   0.1605   0.1735
     0.3998   0.7206   0.7670   0.8092   0.9887   1.0778   1.2588   1.3687
     1.4190   1.4433   1.4969   1.6244

          k =-0.1667 0.4811 0.0000 (109606 PWs)   bands (ev):

   -75.2042 -75.2041 -75.1779 -75.1779 -46.5974 -46.5974 -46.5883 -46.5883
   -46.5881 -46.5881 -46.5700 -46.5699 -46.5633 -46.5633 -46.5631 -46.5631
   -18.3028 -18.2381 -17.9795 -17.9379 -17.7174 -17.6828 -17.6501 -17.5768
   -17.4940 -17.4613 -17.4039 -17.3812  -9.8810  -9.8079  -9.4953  -9.3223
    -9.3022  -9.1063  -9.0799  -8.8474  -8.7999  -8.5918  -8.5067  -8.4139
    -8.3341  -8.1663  -7.8748  -7.8372  -7.6721  -7.6059  -7.5229  -7.4485
    -7.4193  -7.3987  -7.2255  -7.0369  -6.9551  -6.8822  -6.8693  -6.7567
    -6.6523  -6.6503  -6.5442  -6.4796  -6.3464  -6.2308  -6.1477  -6.1142
    -2.3492  -2.3137  -2.2529  -2.2267  -2.2127  -2.1982  -2.1843  -2.1778
    -2.0907  -2.0764  -1.9669  -1.9589  -1.9042  -1.8426  -1.7217  -1.6861
    -1.6505  -1.6362  -1.6066  -1.5900  -0.4142  -0.2862   0.1129   0.2266
     0.4242   0.6345   0.7645   0.8694   0.9676   1.0892   1.2831   1.3178
     1.4192   1.4502   1.5582   1.6687

          k = 0.5000 0.0962 0.0000 (109606 PWs)   bands (ev):

   -75.2042 -75.2041 -75.1779 -75.1779 -46.5974 -46.5974 -46.5883 -46.5883
   -46.5881 -46.5881 -46.5700 -46.5699 -46.5633 -46.5633 -46.5631 -46.5631
   -18.3027 -18.2384 -17.9770 -17.9408 -17.7142 -17.6859 -17.6502 -17.5757
   -17.4958 -17.4604 -17.4023 -17.3825  -9.8735  -9.8217  -9.4541  -9.3698
    -9.3032  -9.0946  -9.0728  -8.8648  -8.8040  -8.5367  -8.5134  -8.4508
    -8.3233  -8.1756  -7.8911  -7.8150  -7.6658  -7.6194  -7.5088  -7.4645
    -7.4313  -7.3775  -7.2262  -7.0472  -6.9791  -6.8650  -6.8102  -6.7621
    -6.7056  -6.6615  -6.5329  -6.4624  -6.3418  -6.2378  -6.1587  -6.1039
    -2.3356  -2.3247  -2.2579  -2.2280  -2.2185  -2.2036  -2.1890  -2.1548
    -2.0967  -2.0593  -2.0075  -1.9407  -1.8980  -1.8453  -1.6992  -1.6979
    -1.6517  -1.6427  -1.6088  -1.5860  -0.4185  -0.2829   0.1605   0.1735
     0.3999   0.7206   0.7670   0.8092   0.9887   1.0778   1.2588   1.3687
     1.4190   1.4434   1.4969   1.6244

          k =-0.3333-0.3849 0.0000 (109606 PWs)   bands (ev):

   -75.2042 -75.2041 -75.1779 -75.1779 -46.5974 -46.5974 -46.5883 -46.5883
   -46.5881 -46.5881 -46.5700 -46.5699 -46.5633 -46.5633 -46.5631 -46.5631
   -18.3029 -18.2381 -17.9795 -17.9379 -17.7174 -17.6828 -17.6501 -17.5768
   -17.4940 -17.4613 -17.4039 -17.3812  -9.8810  -9.8079  -9.4953  -9.3223
    -9.3022  -9.1063  -9.0799  -8.8474  -8.7999  -8.5918  -8.5067  -8.4139
    -8.3341  -8.1663  -7.8748  -7.8372  -7.6721  -7.6059  -7.5229  -7.4485
    -7.4193  -7.3987  -7.2255  -7.0369  -6.9551  -6.8822  -6.8693  -6.7567
    -6.6523  -6.6503  -6.5442  -6.4796  -6.3464  -6.2308  -6.1477  -6.1142
    -2.3492  -2.3137  -2.2529  -2.2267  -2.2127  -2.1981  -2.1843  -2.1778
    -2.0907  -2.0764  -1.9669  -1.9589  -1.9042  -1.8426  -1.7217  -1.6861
    -1.6504  -1.6362  -1.6066  -1.5900  -0.4142  -0.2862   0.1129   0.2266
     0.4242   0.6345   0.7645   0.8694   0.9676   1.0892   1.2831   1.3178
     1.4192   1.4502   1.5582   1.6687

          k = 0.5000-0.0962 0.0000 (109606 PWs)   bands (ev):

   -75.2042 -75.2041 -75.1779 -75.1779 -46.5974 -46.5974 -46.5883 -46.5883
   -46.5881 -46.5881 -46.5700 -46.5699 -46.5633 -46.5633 -46.5631 -46.5631
   -18.3029 -18.2381 -17.9795 -17.9379 -17.7174 -17.6828 -17.6501 -17.5768
   -17.4940 -17.4613 -17.4039 -17.3812  -9.8810  -9.8079  -9.4952  -9.3223
    -9.3022  -9.1063  -9.0799  -8.8474  -8.7999  -8.5918  -8.5067  -8.4139
    -8.3341  -8.1663  -7.8748  -7.8372  -7.6722  -7.6059  -7.5229  -7.4485
    -7.4193  -7.3987  -7.2255  -7.0369  -6.9551  -6.8822  -6.8693  -6.7567
    -6.6523  -6.6503  -6.5442  -6.4797  -6.3464  -6.2308  -6.1477  -6.1142
    -2.3492  -2.3137  -2.2529  -2.2267  -2.2127  -2.1981  -2.1843  -2.1778
    -2.0907  -2.0764  -1.9669  -1.9589  -1.9042  -1.8426  -1.7217  -1.6861
    -1.6505  -1.6362  -1.6066  -1.5900  -0.4142  -0.2862   0.1129   0.2266
     0.4242   0.6345   0.7645   0.8694   0.9676   1.0892   1.2831   1.3178
     1.4192   1.4502   1.5582   1.6687

     highest occupied, lowest unoccupied level (ev):    -5.6886   -4.6374

!    total energy              =   -5539.45358941 Ry
     total all-electron energy =     -5539.453589 Ry
     estimated scf accuracy    <          8.3E-12 Ry

     The total energy is the sum of the following terms:
     one-electron contribution =   -9586.61599642 Ry
     hartree contribution      =    4766.66495863 Ry
     xc contribution           =    -165.79148697 Ry
     ewald contribution        =    3989.39166454 Ry
     Hubbard energy            =       0.74169379 Ry
     one-center paw contrib.   =   -4543.84442297 Ry

     total magnetization       =    12.00 Bohr mag/cell
     absolute magnetization    =    17.05 Bohr mag/cell

     convergence has been achieved in  23 iterations

     negative rho (up, down):  2.685E-02 3.620E-02

     Forces acting on atoms (cartesian axes, Ry/au):

     atom    1 type  1   force =    -0.00000145   -0.00000009   -0.00094681
     atom    2 type  1   force =     0.00000484    0.00000044    0.00004720
     atom    3 type  2   force =     0.01316253    0.00010222   -0.02082294
     atom    4 type  2   force =    -0.00649198   -0.01144971   -0.02082258
     atom    5 type  2   force =    -0.00666964    0.01134722   -0.02082083
     atom    6 type  2   force =    -0.01313839    0.00011917    0.02299131
     atom    7 type  2   force =     0.00667463    0.01131712    0.02298980
     atom    8 type  2   force =     0.00646423   -0.01143852    0.02299045
     atom    9 type  1   force =    -0.00000460    0.00000402   -0.00004706
     atom   10 type  1   force =     0.00000180   -0.00000406    0.00094947
     atom   11 type  2   force =     0.01313822   -0.00012492   -0.02299108
     atom   12 type  2   force =    -0.00667715   -0.01131561   -0.02299118
     atom   13 type  2   force =    -0.00646086    0.01144079   -0.02299050
     atom   14 type  2   force =    -0.01316257   -0.00010658    0.02082198
     atom   15 type  2   force =     0.00648734    0.01145247    0.02082134
     atom   16 type  2   force =     0.00667303   -0.01134398    0.02082143

     Total force =     0.088599     Total SCF correction =     0.000007


     Computing stress (Cartesian axis) and pressure


     negative rho (up, down):  2.685E-02 3.620E-02
          total   stress  (Ry/bohr**3)                   (kbar)     P=       20.53
   0.00014159  -0.00000000  -0.00000000           20.83       -0.00       -0.00
  -0.00000000   0.00014159  -0.00000000           -0.00       20.83       -0.00
  -0.00000000  -0.00000000   0.00013548           -0.00       -0.00       19.93


     Writing all to output data dir ./lt_fm_qe/lt_fm_qe.save/ :
     XML data file, charge density, pseudopotentials, collected wavefunctions

     init_run     :     49.72s CPU     50.99s WALL (       1 calls)
     electrons    :   1782.82s CPU   1857.18s WALL (       1 calls)
     forces       :    385.51s CPU    388.91s WALL (       1 calls)
     stress       :   1530.41s CPU   1544.83s WALL (       1 calls)

     Called by init_run:
     wfcinit      :     47.09s CPU     48.19s WALL (       1 calls)
     potinit      :      1.09s CPU      1.15s WALL (       1 calls)
     hinit0       :      0.91s CPU      0.94s WALL (       1 calls)

     Called by electrons:
     c_bands      :   1491.72s CPU   1555.48s WALL (      23 calls)
     sum_band     :    256.22s CPU    264.48s WALL (      23 calls)
     v_of_rho     :      5.23s CPU      5.41s WALL (      24 calls)
     newd         :      7.64s CPU      8.86s WALL (      24 calls)
     PAW_pot      :     19.97s CPU     20.33s WALL (      24 calls)
     mix_rho      :      2.54s CPU      2.69s WALL (      23 calls)

     Called by c_bands:
     init_us_2    :     23.06s CPU     23.52s WALL (    2080 calls)
     init_us_2:cp :     23.03s CPU     23.51s WALL (    2080 calls)
     cegterg      :   1441.18s CPU   1503.60s WALL (     920 calls)

     Called by *egterg:
     cdiaghg      :    142.65s CPU    144.10s WALL (    3654 calls)
     h_psi        :    957.92s CPU    992.02s WALL (    3694 calls)
     s_psi        :     63.54s CPU     64.57s WALL (    3894 calls)
     g_psi        :      8.27s CPU      8.45s WALL (    2734 calls)

     Called by h_psi:
     h_psi:calbec :     66.08s CPU     68.09s WALL (    3694 calls)
     vloc_psi     :    748.40s CPU    766.61s WALL (    3694 calls)
     add_vuspsi   :     55.39s CPU     56.39s WALL (    3694 calls)
     vhpsi        :     74.07s CPU     75.91s WALL (    3694 calls)

     General routines
     calbec       :    377.47s CPU    383.41s WALL (   71508 calls)
     fft          :      4.21s CPU      4.46s WALL (     638 calls)
     ffts         :      0.31s CPU      0.34s WALL (      94 calls)
     fftw         :    696.80s CPU    713.56s WALL (  573602 calls)
     interpolate  :      0.51s CPU      0.60s WALL (      48 calls)

     Parallel routines

     Hubbard U routines
     new_ns       :     13.64s CPU     14.26s WALL (      23 calls)
     vhpsi        :     74.07s CPU     75.91s WALL (    3694 calls)
     force_hub    :    377.97s CPU    381.22s WALL (       1 calls)
                                        0.00s GPU  (       1 calls)
     stres_hub    :   1400.33s CPU   1413.06s WALL (       1 calls)
                                        0.00s GPU  (       1 calls)

     PWSCF        :      1h 2m CPU      1h 5m WALL


   This run was terminated on:  15: 1:42  15Oct2025            

=------------------------------------------------------------------------------=
   JOB DONE.
=------------------------------------------------------------------------------=
