==================================================================================
It's Thu 16 May 2024 10:40:21 PM BST.
*** Starting onetep_launcher (node nid002294, PIDs 44096 44097 44098 44099 44100 44101 44102 44103 44104 44105 44106 44107 44108 44109 44110 44111)...
    - ONETEP arguments: hBN_66_nspF.dat
    - Current directory: /mnt/lustre/a2fs-work3/work/e89/e89/ndmh3/hBN_def/hBN_66_nspF
    - Launcher executable directory: /mnt/lustre/a2fs-work3/work/e89/e89/ndmh3/onetep/utils
    - (-e) ONETEP executable specified through command-line: /work/e89/e89/ndmh3/onetep/bin/onetep.archer2_2023_cray
      ... trying /work/e89/e89/ndmh3/onetep/bin/onetep.archer2_2023_cray
          -> looks OK
*** Setting up environment...
    - (-s) Process stack size: unlimited
    - (-t) OMP_NUM_THREADS: 8
    - (-o) OMP_STACKSIZE: 64M
    - (-c) Maximum core file size: 2048000
    - (-d) decfort_dump_flag: n
    - (-m) I_MPI_OFA_TRANSLATION_CACHE: 0
    - (-m) I_MPI_DAPL_TRANSLATION_CACHE: 0
    - (-m) I_MPI_DAPL_UD_TRANSLATION_CACHE: 0
*** Starting ONETEP...
    - /work/e89/e89/ndmh3/onetep/bin/onetep.archer2_2023_cray hBN_66_nspF.dat
=================================================================================
_________________________________________________________________________________
 +---------------------------------------------------------------+
 |                                                               |
 |        ####### #     # ####### ####### ####### ######         |
 |        #     # ##    # #          #    #       #     #        |
 |        #     # # #   # #          #    #       #     #        |
 |        #     # #  #  # #####      #    #####   ######         |
 |        #     # #   # # #          #    #       #              |
 |        #     # #    ## #          #    #       #              |
 |        ####### #     # #######    #    ####### #              |
 |                                                               |
 |        Linear-Scaling Ab Initio Total Energy Program          |
 |                                                               |
 |          Release for academic collaborators of ODG            |
 |                                             Version 7.1.29    |
 | Remote: git@github.com:onetep-devel/onetep.git                |
 | Local branch: master                                          |
 | Commit ID: 91e6f3e6b89d8869bed7d0d1b91ca8f87d72fd1f           |
 | Date: Tue May 14 12:35:29 2024 +0200                          |
 | Working tree clean                                            |
 |                                                               |
 +---------------------------------------------------------------+
 |                                                               |
 |  Authors:                                                     |
 |  Jacek Dziedzic, Peter D. Haynes, Nicholas D. M. Hine,        |
 |  Arash A. Mostofi, Mike C. Payne and Chris-Kriton Skylaris    |
 |                                                               |
 |  Contributors:                                                |
 |  J. Aarons, L. Andrinopoulos, P. W. Avraam, R. A. Bell,       |
 |  A. Bhandari, G. A. Bramley, R. J. Charlton, S. J. Clark,     |
 |  R. J. Clements, G. C. Constantinescu, F. Corsetti,           |
 |  N. Corsini, O. Dieguez, S. M. M. Dubois, K. K. B. Duff,      |
 |  J. M. Escartin, M. Escobar Azor, A. Greco,                   |
 |  H. Helal, Q. O. Hill, L. P. Lee, J.-H. Li,                   |
 |  E. B. Linscott, G. Moynihan, D. D. O`Regan,                  |
 |  O. K. Okan, M. J. S. Phipps, C. J. Pickard,                  |
 |  J. C. A. Prentice, M. I. J. Probert, L. E. Ratcliff,         |
 |  M. Robinson, A. Ruiz Serrano, M. dos Santos Dias,            |
 |  J. S. Spencer, E. W. Tait, G. Teobaldi, D. Turban,           |
 |  V. Vitale, K. A. Wilkinson, C. Weber, J. C. Womack,          |
 |  N. Yeung and T. J. Zuehlsdorff                               |
 |                                                               |
 |                                   Copyright (c) 2004-2024     |
 |                                                               |
 |  Please cite:                                                 |
 |  "The ONETEP linear-scaling density functional theory program"|
 |   J. Chem. Phys. 152(17) 174111 (2020)                        |
 |                                                               |
 |          in all publications arising from your use of ONETEP. |
 |                                                               |
 +---------------------------------------------------------------+
 |                                                               |
 |   ONETEP is based on developments described in the following  |
 |   publications:                                               |
 |                                                               |
 |  "Nonorthogonal generalized Wannier function pseudopotential  |
 |   plane-wave method".                                         |
 |   C.-K. Skylaris, A. A. Mostofi, P. D. Haynes, O. Dieguez,    |
 |   M. C. Payne.                                                |
 |   Phys. Rev. B 66 035119 (2002).                              |
 |                                                               |
 |  "Preconditioned iterative minimization for linear-scaling    |
 |   electronic structure calculations".                         |
 |   A. A. Mostofi, P. D. Haynes, C.-K. Skylaris, M. C. Payne.   |
 |   J. Chem. Phys. 119(17), pp.8842-8848 (2003).                |
 |                                                               |
 |  "Total-energy calculations on a real space grid with         |
 |   localized functions and a plane-wave basis".                |
 |   A. A. Mostofi, C.-K. Skylaris, P. D. Haynes, M. C. Payne.   |
 |   Comput. Phys. Commun. 147, pp.788-802 (2002).               |
 |                                                               |
 |  "Accurate kinetic energy evaluation in electronic structure  |
 |   calculations with localized functions on real space grids"  |
 |   C.-K. Skylaris, A. A. Mostofi, P. D. Haynes, C. J. Pickard, |
 |   M. C. Payne.                                                |
 |   Comput. Phys. Commun. 140, pp.315-322 (2001).               |
 |                                                               |
 |  "Accurate ionic forces and geometry optimization in linear-  |
 |   scaling density-functional theory with local orbitals"      |
 |   N. D. M. Hine, M. Robinson, P. D. Haynes, C.-K. Skylaris,   |
 |   M. C. Payne, and A. A. Mostofi.                             |
 |   Phys. Rev. B 83 195102 (2011).                              |
 |                                                               |
 +---------------------------------------------------------------+

Job started: 16-05-2024 22:40 (+0100)
 
Reading parameters from file "hBN_66_nspF.dat" ...... done

If your calculation crashes here, before "Checking processes and threads..."
is displayed, then your stack size is insufficient.
If so, use "ulimit -s unlimited" at runtime.
You can disable this check with "check_stack_size F".

Checking processes and threads...
   Running with 16 MPI processes.
   There are 16 MPI processes running on the same node as the root process.
   Each MPI process is using: 
               1 threads for simulation cell FFTs.
               1 threads for threaded FFT box operations.
               8 threads for loops over batched FFT box operations.
               8 threads in other parallel regions.
   MPI Interface: S1 (use mpi_f08) (-DMPI -DUSE_MPI_F08).
   MPI_ASYNC_PROTECTS_NONBLOCKING: Yes. MPI_SUBARRAYS_SUPPORTED: Yes.
   FFTW Interface: OMP-capable and MODERN. (-DUSE_MODERN_FFTW specified).
   GPU Interface: None.
... done

Basic input checks...... done

Reading geometry and species blocks from file "hBN_66_nspF.dat" ...
  <species_atomic_set> block not found: NGWF initialisation set to SOLVE
... done


--------------------------------------------------------------------------------
---------------------------------- INPUT FILE ----------------------------------
--------------------------------------------------------------------------------

charge : 0                                                                      
comms_group_size : 8                                                            
cutoff_energy : 800 eV                                                          
do_properties : T                                                               
edft : F                                                                        
edft_maxit : 15                                                                 
edft_spin_fix : 0                                                               
fast_density : F                                                                
fine_grid_scale : 2                                                             
forces_output_detail : VERBOSE                                                  
geom_continuation : F                                                           
geom_force_tol : 0.01 eV/Ang                                                    
homo_plot : 1                                                                   
lumo_plot : 1                                                                   
maxit_ngwf_cg : 30                                                              
ngwf_threshold_orig : 1e-06                                                     
ngwfs_spin_polarized : F                                                        
output_detail : BRIEF                                                           
paw : T                                                                         
pseudo_path : .                                                                 
read_denskern : F                                                               
read_hamiltonian : F                                                            
read_tightbox_ngwfs : F                                                         
run_time : 86000                                                                
stress_assumed_symmetry : hexa2d                                                
stress_relax : T                                                                
task : SINGLEPOINT                                                              
write_denskern : T                                                              
write_forces : T                                                                
write_hamiltonian : F                                                           
write_tightbox_ngwfs : T                                                        
xc_functional : PBE                                                             
%BLOCK LATTICE_CART                                                             
ang                                                                             
15.06648071       0.00000000       0.00000000                                   
-7.53324036      13.04795505       0.00000000                                   
0.00000000       0.00000000      16.00000008                                    
%ENDBLOCK LATTICE_CART                                                          
%BLOCK POSITIONS_ABS                                                            
ang                                                                             
B     0.000000     0.000000     8.000000                                        
N     1.255540     0.724886     8.000000                                        
B    -1.255540     2.174659     8.000000                                        
N     0.000000     2.899546     8.000000                                        
B    -2.511080     4.349318     8.000000                                        
N    -1.255540     5.074205     8.000000                                        
B    -3.766620     6.523978     8.000000                                        
N    -2.511080     7.248864     8.000000                                        
B    -5.022160     8.698637     8.000000                                        
N    -3.766620     9.423523     8.000000                                        
B    -6.277700    10.873296     8.000000                                        
N    -5.022160    11.598182     8.000000                                        
B     2.511080     0.000000     8.000000                                        
N     3.766620     0.724886     8.000000                                        
B     1.255540     2.174659     8.000000                                        
N     2.511080     2.899546     8.000000                                        
B     0.000000     4.349318     8.000000                                        
N     1.255540     5.074205     8.000000                                        
B    -1.255540     6.523978     8.000000                                        
N    -0.000000     7.248864     8.000000                                        
B    -2.511080     8.698637     8.000000                                        
N    -1.255540     9.423523     8.000000                                        
B    -3.766620    10.873296     8.000000                                        
N    -2.511080    11.598182     8.000000                                        
B     5.022160     0.000000     8.000000                                        
N     6.277700     0.724886     8.000000                                        
B     3.766620     2.174659     8.000000                                        
N     5.022160     2.899546     8.000000                                        
B     2.511080     4.349318     8.000000                                        
N     3.766620     5.074205     8.000000                                        
B     1.255540     6.523978     8.000000                                        
N     2.511080     7.248864     8.000000                                        
B     0.000000     8.698637     8.000000                                        
N     1.255540     9.423523     8.000000                                        
B    -1.255540    10.873296     8.000000                                        
N     0.000000    11.598182     8.000000                                        
B     7.533240     0.000000     8.000000                                        
N     8.788780     0.724886     8.000000                                        
B     6.277700     2.174659     8.000000                                        
N     7.533240     2.899546     8.000000                                        
B     5.022160     4.349318     8.000000                                        
N     6.277700     5.074205     8.000000                                        
B     3.766620     6.523978     8.000000                                        
N     5.022160     7.248864     8.000000                                        
B     2.511080     8.698637     8.000000                                        
N     3.766620     9.423523     8.000000                                        
B     1.255540    10.873296     8.000000                                        
N     2.511080    11.598182     8.000000                                        
B    10.044320     0.000000     8.000000                                        
N    11.299861     0.724886     8.000000                                        
B     8.788780     2.174659     8.000000                                        
N    10.044320     2.899546     8.000000                                        
B     7.533240     4.349318     8.000000                                        
N     8.788780     5.074205     8.000000                                        
B     6.277700     6.523978     8.000000                                        
N     7.533240     7.248864     8.000000                                        
B     5.022160     8.698637     8.000000                                        
N     6.277700     9.423523     8.000000                                        
B     3.766620    10.873296     8.000000                                        
N     5.022160    11.598182     8.000000                                        
B    12.555401     0.000000     8.000000                                        
N    13.810941     0.724886     8.000000                                        
B    11.299861     2.174659     8.000000                                        
N    12.555401     2.899546     8.000000                                        
B    10.044320     4.349318     8.000000                                        
N    11.299861     5.074205     8.000000                                        
B     8.788780     6.523978     8.000000                                        
N    10.044320     7.248864     8.000000                                        
B     7.533240     8.698637     8.000000                                        
N     8.788780     9.423523     8.000000                                        
B     6.277700    10.873296     8.000000                                        
N     7.533240    11.598182     8.000000                                        
%ENDBLOCK POSITIONS_ABS                                                         
%BLOCK SPECIES                                                                  
B B 5 -1 10.0                                                                   
N N 7 -1 10.0                                                                   
%ENDBLOCK SPECIES                                                               
%BLOCK SPECIES_POT                                                              
B B.PBE-paw.abinit                                                              
N N.PBE-paw.abinit                                                              
%ENDBLOCK SPECIES_POT                                                           

--------------------------------------------------------------------------------
-------------------------------- END INPUT FILE --------------------------------
--------------------------------------------------------------------------------


 
 ESDF WARNING(1): "charge" (esdf_physical) has no units. Assume "e".
<<<<<<<<<<<<<<<<<<<<<<<<<<<<<<<<< Full system >>>>>>>>>>>>>>>>>>>>>>>>>>>>>>>>>>
<<<<<<<<<<<<<<<<<<<<<<<<<<< PAW Dataset information >>>>>>>>>>>>>>>>>>>>>>>>>>>
File: B.PBE-paw.abinit; rc = 1.70 bohr; shape type =  2; rshape = 1.61 bohr;
  Atomic number:  5;  ionic charge:  3.000000
    Partial Wave 1: l = 0
    Partial Wave 2: l = 0
    Partial Wave 3: l = 1
    Partial Wave 4: l = 1
  Core charge supplied for Nonlinear Core Corrections
File: N.PBE-paw.abinit; rc = 1.20 bohr; shape type =  2; rshape = 1.01 bohr;
  Atomic number:  7;  ionic charge:  5.000000
    Partial Wave 1: l = 0
    Partial Wave 2: l = 0
    Partial Wave 3: l = 1
    Partial Wave 4: l = 1
  Core charge supplied for Nonlinear Core Corrections
<<<<<<<<<<<<<<<<<<<<<<<<<<<<<<<<<<<<<<< >>>>>>>>>>>>>>>>>>>>>>>>>>>>>>>>>>>>>>>

-------------------------- Atom counting information ---------------------------
Symbol    Natoms    Nngwfs    Nprojs
  B         36       144       288
  N         36       144       288
.......   ......    ......    ......
Totals:     72       288       576
--------------------------------------------------------------------------------

=============================== PSINC grid sizes ===============================
                      Simulation cell:   63 x  63 x  63
                              FFT-box:   63 x  63 x  63
                                  PPD:    7 x   7 x   1
================================================================================
energy_and_force_init_cell: WARNING in internal_setup_spin:
        even number of electrons in cell and zero spin
        but continuing with spin-polarised calculation

Atom SCF Calculation for B  : Z (AE atom) =   5 : Z (PS atom) =   3
Config String: 2s2.0 2p1.0
Orbitals (num,occ):  2     2.00 1.00
Orbitals   (num,l):  2        0    1
Atom SCF converged after  23 iterations to a total energy of     -2.61457988

Atom SCF Calculation for N  : Z (AE atom) =   7 : Z (PS atom) =   5
Config String: 2s2.0 2p3.0
Orbitals (num,occ):  2     2.00 3.00
Orbitals   (num,l):  2        0    1
Atom SCF converged after  23 iterations to a total energy of     -9.72185112
Calculating Ewald energy ...             1151.558063 Hartree

============================= Charge Augmentation ==============================
                           Aug box size:   21 x  21 x  21
================================================================================

================================= Core Density =================================
               Core den box size:   33 x  33 x  25
================================================================================
Density kernel initialisation

################################################################################
###################### NGWF self-consistent optimisation #######################
################################################################################
|ITER|    RMS GRADIENT   |     TOTAL ENERGY    |   step   |     Epredicted      
   0     0.00049610404490   -464.35240318759884   1.474613   -466.93124875746776        
   1     0.00017583732662   -466.95657335812797   1.620304   -467.31586654409341        
   2     0.00007626582974   -467.32165299874595   1.619836   -467.38974526607598        
   3     0.00003947191802   -467.39082696282145   1.678896   -467.40970433356335        
   4     0.00002425593711   -467.40985773204983   1.190231   -467.41483360421756        
   5     0.00001492524680   -467.41483453226738   2.137205   -467.41821775914178        
   6     0.00001061990626   -467.41820138985668   1.931794   -467.41974042368139        
   7     0.00000665249847   -467.41969405022451   1.735010   -467.42022308833771        
   8     0.00000439606246   -467.42019411398007   1.563173   -467.42040876679584        
   9     0.00000345372849   -467.42040383238793   2.152610   -467.42058172668158        
  10     0.00000216127055   -467.42056000993745   1.109521   -467.42059260662575        

================================================================================
           ---------------- ENERGY COMPONENTS (Eh) ----------------
           | Kinetic                    :      283.56727984271009 |
           | Core Hartree               :    -3355.16718688051242 |
           | CoreHart (non-coul chg cor):        0.00000000000000
           | Hartree                    :     1541.61836843009473 |
           | Exchange-correlation       :     -137.50881287316025 |
           | Ewald                      :     1151.55806341611697 |
           | Dij0                       :       56.43918437439212 |
           | Dijhartree                 :        0.30121105833905 |
           | Exc [AE core]              :     -349.26137706755821 |
           | Exc DC [AE core]           :     -123.78534467435176 |
           | Exc [PS core]              :      -90.91323098037279 |
           | Exc DC [PS core]           :     -108.18763370913464 |
           | Exc [Core]                 :     -250.11945076588285 |
           | Total [Sphere]             :       48.51170011142864 |
           | Total                      :     -467.42058795332235 |
           --------------------------------------------------------
           Integrated compensation chrg.:        7.07614638593017
           Integrated density           :      287.99999999999943
           Integrated spin density      :       -0.00000000000008
           Integrated |spin density|    :        0.00000008028028
================================================================================

  11     0.00000031292896   -467.42058795332719  <-- CG                                 

======================== Writing density and potential =========================
Writing "hBN_66_nspF_ps_density.cube" ... done
Writing "hBN_66_nspF_ps_spindensity.cube" ... done
Writing "hBN_66_nspF_ae_density.cube" ... done
Writing "hBN_66_nspF_ae_spindensity.cube" ... done
Writing "hBN_66_nspF_potential.cube" ... done
Writing "hBN_66_nspF_electrostatic_potential.cube" ... done
================================================================================

    Mulliken Atomic Populations
    ---------------------------
Species  Ion    Total   Charge (e)    Spin (hbar)
=================================================
  B      1       2.142      0.858     -0.00
  N      2       5.858     -0.858      0.00
  B      3       2.142      0.858     -0.00
  N      4       5.858     -0.858      0.00
  B      5       2.142      0.858      0.00
  N      6       5.858     -0.858     -0.00
  B      7       2.142      0.858     -0.00
  N      8       5.858     -0.858      0.00
  B      9       2.142      0.858      0.00
  N     10       5.858     -0.858     -0.00
  B     11       2.142      0.858      0.00
  N     12       5.858     -0.858     -0.00
  B     13       2.142      0.858      0.00
  N     14       5.858     -0.858     -0.00
  B     15       2.142      0.858     -0.00
  N     16       5.858     -0.858      0.00
  B     17       2.142      0.858      0.00
  N     18       5.858     -0.858     -0.00
  B     19       2.142      0.858      0.00
  N     20       5.858     -0.858     -0.00
  B     21       2.142      0.858     -0.00
  N     22       5.858     -0.858      0.00
  B     23       2.142      0.858      0.00
  N     24       5.858     -0.858     -0.00
  B     25       2.142      0.858     -0.00
  N     26       5.858     -0.858     -0.00
  B     27       2.142      0.858     -0.00
  N     28       5.858     -0.858     -0.00
  B     29       2.142      0.858      0.00
  N     30       5.858     -0.858     -0.00
  B     31       2.142      0.858     -0.00
  N     32       5.858     -0.858      0.00
  B     33       2.142      0.858      0.00
  N     34       5.858     -0.858     -0.00
  B     35       2.142      0.858      0.00
  N     36       5.858     -0.858     -0.00
  B     37       2.142      0.858      0.00
  N     38       5.858     -0.858     -0.00
  B     39       2.142      0.858      0.00
  N     40       5.858     -0.858      0.00
  B     41       2.142      0.858      0.00
  N     42       5.858     -0.858     -0.00
  B     43       2.142      0.858     -0.00
  N     44       5.858     -0.858     -0.00
  B     45       2.142      0.858      0.00
  N     46       5.858     -0.858      0.00
  B     47       2.142      0.858      0.00
  N     48       5.858     -0.858      0.00
  B     49       2.142      0.858      0.00
  N     50       5.858     -0.858      0.00
  B     51       2.142      0.858      0.00
  N     52       5.858     -0.858     -0.00
  B     53       2.142      0.858     -0.00
  N     54       5.858     -0.858     -0.00
  B     55       2.142      0.858      0.00
  N     56       5.858     -0.858      0.00
  B     57       2.142      0.858      0.00
  N     58       5.858     -0.858      0.00
  B     59       2.142      0.858     -0.00
  N     60       5.858     -0.858      0.00
  B     61       2.142      0.858     -0.00
  N     62       5.858     -0.858      0.00
  B     63       2.142      0.858      0.00
  N     64       5.858     -0.858     -0.00
  B     65       2.142      0.858      0.00
  N     66       5.858     -0.858     -0.00
  B     67       2.142      0.858      0.00
  N     68       5.858     -0.858     -0.00
  B     69       2.142      0.858     -0.00
  N     70       5.858     -0.858     -0.00
  B     71       2.142      0.858      0.00
  N     72       5.858     -0.858      0.00
=================================================

        Bond         Population      Spin       Length (bohr)
=============================================================
 N    36 -- B    47        0.87      0.00      1.58175
 N    60 -- B    71        0.87      0.00      1.58175
 N    48 -- B    59        0.87     -0.00      1.58175
 N    24 -- B    35        0.87      0.00      1.58175
 N    12 -- B    23        0.87     -0.00      1.58175
 N    32 -- B    43        0.87     -0.00      1.58175
 N    26 -- B    37        0.87      0.00      1.58175
 N     8 -- B    19        0.87      0.00      1.58175
 N    44 -- B    55        0.87      0.00      1.58175
 N    14 -- B    25        0.87     -0.00      1.58175
 N     2 -- B    13        0.87      0.00      1.58175
 N    10 -- B    21        0.87     -0.00      1.58175
 N    20 -- B    31        0.87     -0.00      1.58175
 N    34 -- B    45        0.87     -0.00      1.58175
 N    22 -- B    33        0.87      0.00      1.58175
 N    50 -- B    61        0.87     -0.00      1.58175
 N    46 -- B    57        0.87      0.00      1.58175
 N    56 -- B    67        0.87      0.00      1.58175
 N    58 -- B    69        0.87     -0.00      1.58175
 N    38 -- B    49        0.87      0.00      1.58175
 B     3 -- N    64        0.87     -0.00      1.58175
 B     5 -- N    66        0.87      0.00      1.58175
 N    40 -- B    51        0.87      0.00      1.58175
 N    16 -- B    27        0.87     -0.00      1.58175
 N    28 -- B    39        0.87      0.00      1.58175
 N    42 -- B    53        0.87     -0.00      1.58175
 N    18 -- B    29        0.87      0.00      1.58175
 N     4 -- B    15        0.87     -0.00      1.58175
 N     6 -- B    17        0.87      0.00      1.58175
 N    30 -- B    41        0.87      0.00      1.58175
 N    54 -- B    65        0.87      0.00      1.58175
 N    52 -- B    63        0.87      0.00      1.58175
 N    40 -- B    53        0.87     -0.00      2.73967
 N    52 -- B    65        0.87      0.00      2.73967
 N    16 -- B    29        0.87      0.00      2.73967
 N    28 -- B    41        0.87      0.00      2.73967
 N     4 -- B    17        0.87      0.00      2.73967
 B     5 -- N    64        0.87      0.00      2.73967
 B     1 -- N    62        0.87     -0.00      2.73967
 B    57 -- N    58        0.87      0.00      2.73967
 B    71 -- N    72        0.87      0.00      2.73967
 B    37 -- N    38        0.87      0.00      2.73967
 B    11 -- N    12        0.87      0.00      2.73967
 B    21 -- N    22        0.87     -0.00      2.73967
 B    61 -- N    62        0.87     -0.00      2.73967
 B    25 -- N    26        0.87     -0.00      2.73967
 B    33 -- N    34        0.87      0.00      2.73967
 B    69 -- N    70        0.87     -0.00      2.73967
 B    55 -- N    56        0.87      0.00      2.73967
 B    45 -- N    46        0.87      0.00      2.73967
 B    23 -- N    24        0.87      0.00      2.73967
 B     7 -- N     8        0.87     -0.00      2.73967
 B    35 -- N    36        0.87      0.00      2.73967
 B    31 -- N    32        0.87     -0.00      2.73967
 B    13 -- N    14        0.87      0.00      2.73967
 B     1 -- N     2        0.87     -0.00      2.73967
 B     9 -- N    10        0.87      0.00      2.73967
 B    59 -- N    60        0.87     -0.00      2.73967
 B    47 -- N    48        0.87      0.00      2.73967
 B    67 -- N    68        0.87      0.00      2.73967
 B    19 -- N    20        0.87      0.00      2.73967
 B    43 -- N    44        0.87     -0.00      2.73967
 N    32 -- B    45        0.87      0.00      2.73967
 N    44 -- B    57        0.87      0.00      2.73967
 N     8 -- B    21        0.87     -0.00      2.73967
 N    20 -- B    33        0.87      0.00      2.73967
 N    56 -- B    69        0.87     -0.00      2.73967
 N    38 -- B    51        0.87      0.00      2.73967
 N     2 -- B    15        0.87     -0.00      2.73967
 N    50 -- B    63        0.87      0.00      2.73967
 N    26 -- B    39        0.87      0.00      2.73967
 N    14 -- B    27        0.87     -0.00      2.73967
 N    18 -- B    31        0.87     -0.00      2.73967
 N    42 -- B    55        0.87      0.00      2.73967
 N    54 -- B    67        0.87      0.00      2.73967
 N    30 -- B    43        0.87     -0.00      2.73967
 N     6 -- B    19        0.87      0.00      2.73967
 N    34 -- B    47        0.87      0.00      2.73967
 N    58 -- B    71        0.87      0.00      2.73967
 N    10 -- B    23        0.87     -0.00      2.73967
 N    22 -- B    35        0.87     -0.00      2.73967
 N    46 -- B    59        0.87     -0.00      2.73967
 B     3 -- N    62        0.87     -0.00      2.73967
 B    41 -- N    42        0.87      0.00      2.73967
 B    29 -- N    30        0.87      0.00      2.73967
 B    53 -- N    54        0.87     -0.00      2.73967
 B    63 -- N    64        0.87      0.00      2.73967
 B    15 -- N    16        0.87     -0.00      2.73967
 B    17 -- N    18        0.87      0.00      2.73967
 B    51 -- N    52        0.87      0.00      2.73967
 B    27 -- N    28        0.87     -0.00      2.73967
 B    39 -- N    40        0.87      0.00      2.73967
 B     1 -- N    72        0.87     -0.00      2.73967
 B     7 -- N    68        0.87     -0.00      2.73967
 B    11 -- N    72        0.87      0.00      2.73967
 B     9 -- N    70        0.87      0.00      2.73967
 B    49 -- N    50        0.87      0.00      2.73967
 B    65 -- N    66        0.87      0.00      2.73968
 N    28 -- B    29       -0.09     -0.00      3.16350
 N    40 -- B    41       -0.09     -0.00      3.16350
 N    16 -- B    17       -0.09     -0.00      3.16350
 N    52 -- B    53       -0.09     -0.00      3.16350
 N    56 -- B    57       -0.09      0.00      3.16350
 N    38 -- B    39       -0.09     -0.00      3.16350
 N    20 -- B    21       -0.09     -0.00      3.16350
 N    32 -- B    33       -0.09      0.00      3.16350
 N    58 -- B    59       -0.09     -0.00      3.16350
 N    44 -- B    45       -0.09     -0.00      3.16350
 N     8 -- B     9       -0.09      0.00      3.16350
 N    22 -- B    23       -0.09      0.00      3.16350
 N    54 -- B    55       -0.09      0.00      3.16350
 N    34 -- B    35       -0.09     -0.00      3.16350
 N    70 -- B    71       -0.09      0.00      3.16350
 N    46 -- B    47       -0.09      0.00      3.16350
 N    68 -- B    69       -0.09     -0.00      3.16350
 N    14 -- B    15       -0.09      0.00      3.16350
 N    30 -- B    31       -0.09      0.00      3.16350
 N    62 -- B    63       -0.09      0.00      3.16350
 N     6 -- B     7       -0.09     -0.00      3.16350
 N    42 -- B    43       -0.09     -0.00      3.16350
 N    10 -- B    11       -0.09     -0.00      3.16350
 N    26 -- B    27       -0.09      0.00      3.16350
 N    18 -- B    19       -0.09      0.00      3.16350
 N    64 -- B    65       -0.09     -0.00      3.16350
 N    66 -- B    67       -0.09      0.00      3.16350
 N    50 -- B    51       -0.09      0.00      3.16350
 B     7 -- N    66        0.87     -0.00      4.18492
 N    36 -- B    37        0.87      0.00      4.18492
 N    48 -- B    49        0.87      0.00      4.18492
 N    24 -- B    25        0.87      0.00      4.18492
 N    12 -- B    13        0.87      0.00      4.18492
 B     3 -- N     4        0.87     -0.00      4.18492
 B     5 -- N     6        0.87      0.00      4.18492
 B     9 -- N    68        0.87      0.00      4.18492
 B    11 -- N    70        0.87      0.00      4.18492
 N    60 -- B    61        0.87     -0.00      4.18492
 B    63 -- B    65       -0.21     -0.00      4.74525
 N    66 -- N    68       -0.10      0.00      4.74525
 B     1 -- B    61       -0.21      0.00      4.74525
 B     3 -- B    63       -0.21      0.00      4.74525
 N     2 -- N    62       -0.10     -0.00      4.74525
 N     4 -- N    64       -0.10      0.00      4.74525
 N     6 -- N    66       -0.10      0.00      4.74525
 B     3 -- B    61       -0.21      0.00      4.74525
 B     5 -- B    63       -0.21     -0.00      4.74525
 N    68 -- N    70       -0.10     -0.00      4.74525
 N    20 -- N    22       -0.10      0.00      4.74525
 B     7 -- B     9       -0.21     -0.00      4.74525
 N    32 -- N    34       -0.10     -0.00      4.74525
 B    31 -- B    33       -0.21      0.00      4.74525
 B    67 -- B    69       -0.21      0.00      4.74525
 N    10 -- N    12       -0.10      0.00      4.74525
 N    56 -- N    58       -0.10      0.00      4.74525
 N     8 -- N    10       -0.10      0.00      4.74525
 N    44 -- N    46       -0.10     -0.00      4.74525
 N    70 -- N    72       -0.10     -0.00      4.74525
 B    19 -- B    21       -0.21     -0.00      4.74525
 B    43 -- B    45       -0.21      0.00      4.74525
 B    49 -- B    51       -0.21     -0.00      4.74525
 N    34 -- N    36       -0.10      0.00      4.74525
 B     3 -- B     5       -0.21      0.00      4.74525
 B    51 -- B    53       -0.21      0.00      4.74525
 B    61 -- B    63       -0.21      0.00      4.74525
 B    25 -- B    27       -0.21      0.00      4.74525
 B    55 -- B    57       -0.21     -0.00      4.74525
 N    22 -- N    24       -0.10     -0.00      4.74525
 N    46 -- N    48       -0.10      0.00      4.74525
 N    52 -- N    54       -0.10      0.00      4.74525
 N    40 -- N    42       -0.10      0.00      4.74525
 B    13 -- B    15       -0.21     -0.00      4.74525
 B    15 -- B    17       -0.21     -0.00      4.74525
 N    28 -- N    30       -0.10     -0.00      4.74525
 N    64 -- N    66       -0.10     -0.00      4.74525
 N    58 -- N    60       -0.10     -0.00      4.74525
 B    37 -- B    39       -0.21     -0.00      4.74525
 N     6 -- N     8       -0.10      0.00      4.74525
 B    27 -- B    29       -0.21      0.00      4.74525
 N     4 -- N     6       -0.10      0.00      4.74525
 N    18 -- N    20       -0.10      0.00      4.74525
 B    39 -- B    41       -0.21     -0.00      4.74525
 N    16 -- N    18       -0.10     -0.00      4.74525
 N    30 -- N    32       -0.10      0.00      4.74525
 N    54 -- N    56       -0.10      0.00      4.74525
 N    42 -- N    44       -0.10     -0.00      4.74525
 B    57 -- B    59       -0.21      0.00      4.74525
 B    33 -- B    35       -0.21     -0.00      4.74525
 B     9 -- B    11       -0.21     -0.00      4.74525
 B    45 -- B    47       -0.21     -0.00      4.74525
 B    21 -- B    23       -0.21      0.00      4.74525
 B    69 -- B    71       -0.21      0.00      4.74525
 N    44 -- N    58       -0.10     -0.00      4.74525
 N    40 -- N    54       -0.10      0.00      4.74525
 N    32 -- N    46       -0.10     -0.00      4.74525
 B    31 -- B    45       -0.21      0.00      4.74525
 B     7 -- B    21       -0.21      0.00      4.74525
 N    20 -- N    34       -0.10      0.00      4.74525
 N     8 -- N    22       -0.10      0.00      4.74525
 B    39 -- B    53       -0.21      0.00      4.74525
 B    13 -- B    27       -0.21     -0.00      4.74525
 B    55 -- B    69       -0.21      0.00      4.74525
 N    28 -- N    42       -0.10     -0.00      4.74525
 N    58 -- N    72       -0.10     -0.00      4.74525
 N    10 -- N    24       -0.10      0.00      4.74525
 N    56 -- N    70       -0.10      0.00      4.74525
 B    19 -- B    33       -0.21     -0.00      4.74525
 B    25 -- B    39       -0.21     -0.00      4.74525
 N    16 -- N    30       -0.10     -0.00      4.74525
 B    37 -- B    51       -0.21     -0.00      4.74525
 N    34 -- N    48       -0.10     -0.00      4.74525
 N     6 -- N    20       -0.10      0.00      4.74525
 N    30 -- N    44       -0.10      0.00      4.74525
 B     1 -- B    15       -0.21      0.00      4.74525
 B    57 -- B    71       -0.21     -0.00      4.74525
 N    46 -- N    60       -0.10      0.00      4.74525
 N    18 -- N    32       -0.10      0.00      4.74525
 B    43 -- B    57       -0.21      0.00      4.74525
 N    22 -- N    36       -0.10     -0.00      4.74525
 N    42 -- N    56       -0.10     -0.00      4.74525
 B    15 -- B    29       -0.21      0.00      4.74525
 B     1 -- B     3       -0.21      0.00      4.74525
 N     4 -- N    18       -0.10     -0.00      4.74525
 B    33 -- B    47       -0.21     -0.00      4.74525
 B    27 -- B    41       -0.21     -0.00      4.74525
 B    51 -- B    65       -0.21     -0.00      4.74525
 B     9 -- B    23       -0.21     -0.00      4.74525
 B    21 -- B    35       -0.21      0.00      4.74525
 B    45 -- B    59       -0.21      0.00      4.74525
 N    54 -- N    68       -0.10     -0.00      4.74525
 B    41 -- B    53       -0.21     -0.00      4.74525
 N    26 -- N    38       -0.10      0.00      4.74525
 N    60 -- N    72       -0.10     -0.00      4.74525
 B    31 -- B    43       -0.21      0.00      4.74525
 B    57 -- B    69       -0.21      0.00      4.74525
 N    46 -- N    58       -0.10     -0.00      4.74525
 N    44 -- N    56       -0.10     -0.00      4.74525
 N    18 -- N    30       -0.10      0.00      4.74525
 N    42 -- N    54       -0.10      0.00      4.74525
 B    25 -- B    37       -0.21     -0.00      4.74525
 N    40 -- N    52       -0.10      0.00      4.74525
 B    39 -- B    51       -0.21     -0.00      4.74525
 B    15 -- B    27       -0.21      0.00      4.74525
 N    10 -- N    22       -0.10      0.00      4.74525
 B     7 -- B    19       -0.21     -0.00      4.74525
 N    34 -- N    46       -0.10     -0.00      4.74525
 B    33 -- B    45       -0.21     -0.00      4.74525
 N    32 -- N    44       -0.10      0.00      4.74525
 N    30 -- N    42       -0.10     -0.00      4.74525
 B    35 -- B    47       -0.21      0.00      4.74525
 N    14 -- N    26       -0.10      0.00      4.74525
 B    13 -- B    25       -0.21     -0.00      4.74525
 B    59 -- B    71       -0.21      0.00      4.74525
 B     1 -- B    13       -0.21     -0.00      4.74525
 N     2 -- N    14       -0.10     -0.00      4.74525
 N    20 -- N    32       -0.10      0.00      4.74525
 N    48 -- N    60       -0.10     -0.00      4.74525
 B    47 -- B    59       -0.21      0.00      4.74525
 N     8 -- N    20       -0.10     -0.00      4.74525
 B    43 -- B    55       -0.21      0.00      4.74525
 B    17 -- B    29       -0.21     -0.00      4.74525
 N    16 -- N    28       -0.10      0.00      4.74525
 B    11 -- B    23       -0.21     -0.00      4.74525
 N    36 -- N    48       -0.10      0.00      4.74525
 B    23 -- B    35       -0.21     -0.00      4.74525
 B     9 -- B    21       -0.21     -0.00      4.74525
 B    21 -- B    33       -0.21      0.00      4.74525
 N     4 -- N    16       -0.10     -0.00      4.74525
 N     6 -- N    18       -0.10     -0.00      4.74525
 B    29 -- B    41       -0.21     -0.00      4.74525
 N    28 -- N    40       -0.10     -0.00      4.74525
 B    27 -- B    39       -0.21      0.00      4.74525
 N    24 -- N    36       -0.10     -0.00      4.74525
 N    22 -- N    34       -0.10      0.00      4.74525
 B    19 -- B    31       -0.21     -0.00      4.74525
 B     3 -- B    15       -0.21      0.00      4.74525
 N    12 -- N    24       -0.10      0.00      4.74525
 B     5 -- B    17       -0.21     -0.00      4.74525
 N    58 -- N    70       -0.10      0.00      4.74525
 B    55 -- B    67       -0.21     -0.00      4.74525
 N    50 -- N    62       -0.10     -0.00      4.74525
 B    45 -- B    57       -0.21     -0.00      4.74525
 B    37 -- B    49       -0.21     -0.00      4.74525
 N    56 -- N    68       -0.10      0.00      4.74525
 B    53 -- B    65       -0.21     -0.00      4.74525
 B     1 -- B    71       -0.21      0.00      4.74525
 N     2 -- N    72       -0.10      0.00      4.74525
 B    49 -- B    59       -0.21      0.00      4.74525
 B    13 -- B    23       -0.21     -0.00      4.74525
 B    25 -- B    35       -0.21     -0.00      4.74525
 B     1 -- B    11       -0.21      0.00      4.74525
 B    37 -- B    47       -0.21     -0.00      4.74525
 N     2 -- N    12       -0.10     -0.00      4.74525
 N    14 -- N    24       -0.10      0.00      4.74525
 N    26 -- N    36       -0.10     -0.00      4.74525
 N    38 -- N    48       -0.10     -0.00      4.74525
 B    61 -- B    71       -0.21      0.00      4.74525
 N    50 -- N    60       -0.10     -0.00      4.74525
 N    62 -- N    72       -0.10     -0.00      4.74525
 B    49 -- B    63       -0.21     -0.00      4.74525
 N    52 -- N    66       -0.10      0.00      4.74525
 B     5 -- B    65       -0.21     -0.00      4.74525
 N     8 -- N    68       -0.10      0.00      4.74525
 B    11 -- B    71       -0.21     -0.00      4.74525
 B     9 -- B    69       -0.21      0.00      4.74525
 B     7 -- B    67       -0.21      0.00      4.74525
 N    12 -- N    72       -0.10      0.00      4.74525
 N    10 -- N    70       -0.10     -0.00      4.74525
 N    38 -- N    40       -0.10      0.00      4.74526
 N    26 -- N    28       -0.10      0.00      4.74526
 N    14 -- N    16       -0.10      0.00      4.74526
 N    62 -- N    64       -0.10     -0.00      4.74526
 B    29 -- B    43       -0.21      0.00      4.74526
 N     2 -- N    16       -0.10     -0.00      4.74526
 B    41 -- B    55       -0.21     -0.00      4.74526
 N     2 -- N     4       -0.10      0.00      4.74526
 N    14 -- N    28       -0.10      0.00      4.74526
 N    26 -- N    40       -0.10      0.00      4.74526
 B    53 -- B    55       -0.21     -0.00      4.74526
 N    50 -- N    64       -0.10     -0.00      4.74526
 B    17 -- B    31       -0.21     -0.00      4.74526
 B    29 -- B    31       -0.21      0.00      4.74526
 B    65 -- B    67       -0.21     -0.00      4.74526
 B    17 -- B    19       -0.21     -0.00      4.74526
 N    38 -- N    52       -0.10      0.00      4.74526
 B    53 -- B    67       -0.21      0.00      4.74526
 B    41 -- B    43       -0.21     -0.00      4.74526
 N    50 -- N    52       -0.10     -0.00      4.74526
 N    52 -- N    64       -0.10      0.00      4.74526
 B    49 -- B    61       -0.21      0.00      4.74526
 N    54 -- N    66       -0.10     -0.00      4.74526
 B    51 -- B    63       -0.21     -0.00      4.74526
 N    38 -- N    50       -0.10      0.00      4.74526
 B     5 -- B     7       -0.21      0.00      4.74526
 B    33 -- N    36       -0.09      0.00      5.47935
 B    31 -- N    34       -0.09     -0.00      5.47935
 B    69 -- N    72       -0.09     -0.00      5.47935
 B    67 -- N    70       -0.09      0.00      5.47935
 B    57 -- N    60       -0.09      0.00      5.47935
 B    55 -- N    58       -0.09      0.00      5.47935
 B     9 -- N    12       -0.09     -0.00      5.47935
 B    21 -- N    24       -0.09      0.00      5.47935
 B    19 -- N    22       -0.09     -0.00      5.47935
 B    45 -- N    48       -0.09      0.00      5.47935
 B    43 -- N    46       -0.09     -0.00      5.47935
 B     7 -- N    10       -0.09     -0.00      5.47935
 B    61 -- N    72       -0.09     -0.00      5.47935
 N    28 -- B    53       -0.09     -0.00      5.47935
 N    40 -- B    65       -0.09     -0.00      5.47935
 N     4 -- B    29       -0.09     -0.00      5.47935
 N     4 -- B     5       -0.09      0.00      5.47935
 N    16 -- B    41       -0.09     -0.00      5.47935
 B     3 -- N    50       -0.09      0.00      5.47935
 N    18 -- B    43       -0.09      0.00      5.47935
 N    26 -- B    51       -0.09      0.00      5.47935
 N     2 -- B    27       -0.09     -0.00      5.47935
 N    30 -- B    55       -0.09      0.00      5.47935
 N    20 -- B    45       -0.09      0.00      5.47935
 N    14 -- B    39       -0.09      0.00      5.47935
 N     6 -- B    31       -0.09     -0.00      5.47935
 N     8 -- B    33       -0.09     -0.00      5.47935
 N    44 -- B    69       -0.09     -0.00      5.47935
 N    34 -- B    59       -0.09     -0.00      5.47935
 N    32 -- B    57       -0.09      0.00      5.47935
 N    10 -- B    35       -0.09      0.00      5.47935
 N    22 -- B    47       -0.09     -0.00      5.47935
 N    46 -- B    71       -0.09      0.00      5.47935
 N    42 -- B    67       -0.09      0.00      5.47935
 N     2 -- B     3       -0.09      0.00      5.47935
 B     5 -- N    52       -0.09      0.00      5.47935
 B     1 -- N    60       -0.09     -0.00      5.47935
 B    13 -- N    72       -0.09     -0.00      5.47935
 B     1 -- N    12       -0.09     -0.00      5.47935
 B    13 -- N    24       -0.09     -0.00      5.47935
 B    25 -- N    36       -0.09     -0.00      5.47935
 B    49 -- N    60       -0.09      0.00      5.47935
 B    37 -- N    48       -0.09     -0.00      5.47935
 B    13 -- N    16       -0.09     -0.00      5.47935
 B    61 -- N    64       -0.09      0.00      5.47935
 B    25 -- N    28       -0.09      0.00      5.47935
 B    49 -- N    52       -0.09     -0.00      5.47935
 B     1 -- N     4       -0.09      0.00      5.47935
 B    37 -- N    40       -0.09     -0.00      5.47935
 B    27 -- N    30       -0.09     -0.00      5.47935
 B    63 -- N    66       -0.09     -0.00      5.47935
 B    51 -- N    54       -0.09     -0.00      5.47935
 B    39 -- N    42       -0.09     -0.00      5.47935
 B    15 -- N    18       -0.09     -0.00      5.47935
 B    29 -- N    32       -0.09      0.00      5.47935
 B    65 -- N    68       -0.09      0.00      5.47935
 B    53 -- N    56       -0.09     -0.00      5.47935
 B    17 -- N    20       -0.09      0.00      5.47935
 B    41 -- N    44       -0.09     -0.00      5.47935
 N    38 -- B    63       -0.09      0.00      5.47935
 N     6 -- N    64       -0.10      0.00      8.21902
 N     8 -- N    66       -0.10      0.00      8.21902
 B    35 -- B    37       -0.21     -0.00      8.21902
 N    36 -- N    38       -0.10      0.00      8.21902
 B    11 -- B    13       -0.21     -0.00      8.21902
 B    23 -- B    25       -0.21     -0.00      8.21902
 B    47 -- B    49       -0.21     -0.00      8.21902
 N    24 -- N    26       -0.10      0.00      8.21902
 N    12 -- N    14       -0.10     -0.00      8.21902
 B     3 -- B    17       -0.21      0.00      8.21902
 N    10 -- N    68       -0.10     -0.00      8.21902
 B     9 -- B    67       -0.21     -0.00      8.21902
 N    12 -- N    70       -0.10      0.00      8.21902
 B    11 -- B    69       -0.21      0.00      8.21902
 B    59 -- B    61       -0.21      0.00      8.21902
 N    48 -- N    50       -0.10     -0.00      8.21902
 N    60 -- N    62       -0.10     -0.00      8.21902
 N     4 -- N    62       -0.10      0.00      8.21902
 B     5 -- B    19       -0.21     -0.00      8.21902
 B     7 -- B    65       -0.21      0.00      8.21902
 B    17 -- N    64       -0.09     -0.00      8.36984
 N    38 -- B    47       -0.09      0.00      8.36984
 N    26 -- B    35       -0.09     -0.00      8.36984
 N    14 -- B    23       -0.09     -0.00      8.36984
 N     2 -- B    11       -0.09      0.00      8.36984
 N    50 -- B    59       -0.09      0.00      8.36984
 N    62 -- B    71       -0.09      0.00      8.36984
 B    15 -- N    62       -0.09      0.00      8.36984
 B    19 -- N    66       -0.09     -0.00      8.36984
 N    24 -- B    37       -0.09     -0.00      8.36984
 N    36 -- B    49       -0.09     -0.00      8.36984
 N    12 -- B    25       -0.09     -0.00      8.36984
 B     3 -- N     6       -0.09     -0.00      8.36984
 B     5 -- N     8       -0.09      0.00      8.36984
 B    21 -- N    68       -0.09      0.00      8.36984
 B     9 -- N    56       -0.09      0.00      8.36984
 B    23 -- N    70       -0.09     -0.00      8.36984
 B     7 -- N    54       -0.09     -0.00      8.36984
 B    11 -- N    58       -0.09      0.00      8.36984
 N    48 -- B    61       -0.09      0.00      8.36984
=============================================================


============== Orbital energy and occupancy information for spin 1 =============

      Total number of orbitals:     288
   Number of occupied orbitals:     144.000000000
   Occupancy sum (eigenvalues):     144.000000000
                 HOMO-LUMO gap:       0.170740655 Eh
                 Mid-gap level:      -0.048167434 Eh

                        Orbital | Energy (Eh) | Occupancy
                            1    -0.781237090   1.0000000
                        .......   ...........   .........
                          135    -0.172661309   1.0000000
                          136    -0.172657868   1.0000000
                          137    -0.172657807   1.0000000
                          138    -0.172657785   1.0000000
                          139    -0.172657773   1.0000000
                          140    -0.166687008   1.0000000
                          141    -0.166684377   1.0000000
                          142    -0.166678827   1.0000000
                          143    -0.133537771   1.0000000
                          144    -0.133537761   1.0000000
                        .......   --- gap ---   .........
                          145     0.037202894   0.0000000
                          146     0.037202894   0.0000000
                          147     0.044961610   0.0000000
                          148     0.044962764   0.0000000
                          149     0.044969204   0.0000000
                          150     0.068229622   0.0000000
                          151     0.068229732   0.0000000
                          152     0.068230167   0.0000000
                          153     0.068230173   0.0000000
                          154     0.068230571   0.0000000
                        .......   ...........   .........
                          288     0.663168431   0.0000000

================================================================================

============== Orbital energy and occupancy information for spin 2 =============

      Total number of orbitals:     288
   Number of occupied orbitals:     144.000000000
   Occupancy sum (eigenvalues):     144.000000000
                 HOMO-LUMO gap:       0.170740654 Eh
                 Mid-gap level:      -0.048167433 Eh

                        Orbital | Energy (Eh) | Occupancy
                            1    -0.781237090   1.0000000
                        .......   ...........   .........
                          135    -0.172661309   1.0000000
                          136    -0.172657867   1.0000000
                          137    -0.172657807   1.0000000
                          138    -0.172657786   1.0000000
                          139    -0.172657772   1.0000000
                          140    -0.166687008   1.0000000
                          141    -0.166684377   1.0000000
                          142    -0.166678826   1.0000000
                          143    -0.133537771   1.0000000
                          144    -0.133537761   1.0000000
                        .......   --- gap ---   .........
                          145     0.037202894   0.0000000
                          146     0.037202894   0.0000000
                          147     0.044961610   0.0000000
                          148     0.044962765   0.0000000
                          149     0.044969204   0.0000000
                          150     0.068229622   0.0000000
                          151     0.068229733   0.0000000
                          152     0.068230167   0.0000000
                          153     0.068230173   0.0000000
                          154     0.068230571   0.0000000
                        .......   ...........   .........
                          288     0.663168431   0.0000000

================================================================================

===================== Writing canonical molecular orbitals =====================
    Spin 1
| Orbital  Energy (eV)  Norm     |
| HOMO-1   -3.63374764  1.000000 | Writing "hBN_66_nspF_HOMO-1_UP.cube" ... done
| HOMO     -3.63374738  1.000000 | Writing "hBN_66_nspF_HOMO_UP.cube" ... done
| LUMO      1.01234225  1.000000 | Writing "hBN_66_nspF_LUMO_UP.cube" ... done
| LUMO+1    1.01234227  1.000000 | Writing "hBN_66_nspF_LUMO+1_UP.cube" ... done
================================================================================

===================== Writing canonical molecular orbitals =====================
    Spin 2
| Orbital  Energy (eV)  Norm     |
| HOMO-1   -3.63374765  1.000000 | Writing "hBN_66_nspF_HOMO-1_DN.cube" ... done
| HOMO     -3.63374736  1.000000 | Writing "hBN_66_nspF_HOMO_DN.cube" ... done
| LUMO      1.01234225  1.000000 | Writing "hBN_66_nspF_LUMO_DN.cube" ... done
| LUMO+1    1.01234227  1.000000 | Writing "hBN_66_nspF_LUMO+1_DN.cube" ... done
================================================================================
 
=============== Density of States (DOS) calculation for UP spin ================
Writing "hBN_66_nspF_UP_DOS.txt" ... done
================================================================================
 
============== Density of States (DOS) calculation for DOWN spin ===============
Writing "hBN_66_nspF_DN_DOS.txt" ... done
================================================================================
 
Writing bands to file "hBN_66_nspF.val_bands" ... done

================================= Core Density =================================
               Core den box size:   33 x  33 x  25
================================================================================
 
********************* Unconstrained **********************
********************** Ewald forces **********************
*                                                        *
* Element  Atom         Cartesian components (Eh/a)      *
* ------------------------------------------------------ *
*                       x            y            z      *
*                                                        *
*    B       1      0.00000105  -0.00000127   0.00000000 *
*    N       2      0.00000023   0.00000189  -0.00000000 *
*    B       3     -0.00000008  -0.00000124   0.00000000 *
*    N       4      0.00000001  -0.00000331  -0.00000000 *
*    B       5     -0.00000076   0.00000173  -0.00000000 *
*    N       6     -0.00000046   0.00000053  -0.00000000 *
*    B       7     -0.00000243  -0.00000074  -0.00000000 *
*    N       8     -0.00000139  -0.00000001  -0.00000000 *
*    B       9     -0.00000099  -0.00000017  -0.00000000 *
*    N      10     -0.00000120   0.00000017  -0.00000000 *
*    B      11     -0.00000087   0.00000016   0.00000000 *
*    N      12     -0.00000069   0.00000086   0.00000000 *
*    B      13     -0.00000045  -0.00000068   0.00000000 *
*    N      14      0.00000001   0.00000240   0.00000000 *
*    B      15      0.00000005  -0.00000088  -0.00000000 *
*    N      16      0.00000004  -0.00000351   0.00000000 *
*    B      17     -0.00000011   0.00000234   0.00000000 *
*    N      18     -0.00000009   0.00000041  -0.00000000 *
*    B      19     -0.00000034  -0.00000162   0.00000000 *
*    N      20     -0.00000027   0.00000007  -0.00000000 *
*    B      21     -0.00000053  -0.00000128   0.00000000 *
*    N      22     -0.00000034   0.00000079   0.00000000 *
*    B      23     -0.00000043  -0.00000098  -0.00000000 *
*    N      24      0.00000001   0.00000150  -0.00000000 *
*    B      25     -0.00000025  -0.00000037   0.00000000 *
*    N      26      0.00000037   0.00000267  -0.00000000 *
*    B      27      0.00000005  -0.00000087   0.00000000 *
*    N      28      0.00000025  -0.00000344  -0.00000000 *
*    B      29      0.00000002   0.00000227   0.00000000 *
*    N      30      0.00000014   0.00000040  -0.00000000 *
*    B      31     -0.00000006  -0.00000164  -0.00000000 *
*    N      32      0.00000003   0.00000011  -0.00000000 *
*    B      33     -0.00000012  -0.00000102  -0.00000000 *
*    N      34      0.00000001   0.00000107   0.00000000 *
*    B      35     -0.00000008  -0.00000065   0.00000000 *
*    N      36      0.00000044   0.00000193   0.00000000 *
*    B      37      0.00000008  -0.00000014  -0.00000000 *
*    N      38      0.00000178   0.00000314   0.00000000 *
*    B      39      0.00000026  -0.00000079  -0.00000000 *
*    N      40      0.00000083  -0.00000337  -0.00000000 *
*    B      41      0.00000017   0.00000228  -0.00000000 *
*    N      42      0.00000050   0.00000041  -0.00000000 *
*    B      43      0.00000009  -0.00000163   0.00000000 *
*    N      44      0.00000029   0.00000012  -0.00000000 *
*    B      45      0.00000003  -0.00000094  -0.00000000 *
*    N      46      0.00000011   0.00000115   0.00000000 *
*    B      47      0.00000012  -0.00000038   0.00000000 *
*    N      48      0.00000063   0.00000290   0.00000000 *
*    B      49      0.00000213   0.00000200  -0.00000000 *
*    N      50     -0.00000366   0.00000184  -0.00000000 *
*    B      51      0.00000103  -0.00000082  -0.00000000 *
*    N      52      0.00000328  -0.00000501   0.00000000 *
*    B      53      0.00000051   0.00000230  -0.00000000 *
*    N      54      0.00000178   0.00000043   0.00000000 *
*    B      55      0.00000030  -0.00000163  -0.00000000 *
*    N      56      0.00000086   0.00000018   0.00000000 *
*    B      57      0.00000017  -0.00000096  -0.00000000 *
*    N      58      0.00000061   0.00000105   0.00000000 *
*    B      59     -0.00000002  -0.00000018  -0.00000000 *
*    N      60     -0.00000076   0.00000203   0.00000000 *
*    B      61     -0.00000036  -0.00000020  -0.00000000 *
*    N      62     -0.00000113   0.00000283   0.00000000 *
*    B      63     -0.00000296   0.00000088   0.00000000 *
*    N      64     -0.00000266  -0.00000293   0.00000000 *
*    B      65      0.00000250   0.00000382  -0.00000000 *
*    N      66     -0.00000428  -0.00000103   0.00000000 *
*    B      67      0.00000085  -0.00000170   0.00000000 *
*    N      68      0.00000146  -0.00000146   0.00000000 *
*    B      69      0.00000062  -0.00000089   0.00000000 *
*    N      70      0.00000162  -0.00000015  -0.00000000 *
*    B      71      0.00000040  -0.00000070  -0.00000000 *
*    N      72      0.00000206  -0.00000009   0.00000000 *
*                                                        *
**********************************************************
TOTAL:              0.00000000  -0.00000000  -0.00000000
 
********************* Unconstrained **********************
***************** Local potential forces *****************
*                                                        *
* Element  Atom         Cartesian components (Eh/a)      *
* ------------------------------------------------------ *
*                       x            y            z      *
*                                                        *
*    B       1      0.00000152   0.00000009  -0.00000015 *
*    N       2      0.00000964  -0.00000605   0.00000027 *
*    B       3      0.00000360   0.00000082  -0.00000015 *
*    N       4      0.00001179   0.00000211   0.00000028 *
*    B       5      0.00000338  -0.00000207  -0.00000015 *
*    N       6      0.00001037  -0.00000433   0.00000027 *
*    B       7      0.00000581  -0.00000011  -0.00000015 *
*    N       8      0.00001328  -0.00000135   0.00000028 *
*    B       9      0.00000337  -0.00000097  -0.00000015 *
*    N      10      0.00001125  -0.00000417   0.00000027 *
*    B      11      0.00000411  -0.00000102  -0.00000015 *
*    N      12      0.00001268  -0.00000214   0.00000028 *
*    B      13      0.00000321  -0.00000127  -0.00000016 *
*    N      14      0.00001478  -0.00000559   0.00000027 *
*    B      15      0.00000107   0.00000100  -0.00000015 *
*    N      16      0.00001320   0.00000533   0.00000027 *
*    B      17      0.00000285  -0.00000363  -0.00000016 *
*    N      18      0.00001493  -0.00000321   0.00000027 *
*    B      19      0.00000150   0.00000133  -0.00000015 *
*    N      20      0.00001354   0.00000158   0.00000027 *
*    B      21      0.00000331  -0.00000070  -0.00000016 *
*    N      22      0.00001520  -0.00000386   0.00000027 *
*    B      23      0.00000161   0.00000075  -0.00000015 *
*    N      24      0.00001333   0.00000016   0.00000027 *
*    B      25      0.00000285  -0.00000072  -0.00000015 *
*    N      26      0.00000951  -0.00000685   0.00000027 *
*    B      27      0.00000338   0.00000047  -0.00000015 *
*    N      28      0.00001158   0.00000227   0.00000028 *
*    B      29      0.00000256  -0.00000266  -0.00000015 *
*    N      30      0.00000980  -0.00000416   0.00000027 *
*    B      31      0.00000351   0.00000085  -0.00000015 *
*    N      32      0.00001181  -0.00000146   0.00000028 *
*    B      33      0.00000271  -0.00000006  -0.00000015 *
*    N      34      0.00000994  -0.00000514   0.00000027 *
*    B      35      0.00000354  -0.00000012  -0.00000015 *
*    N      36      0.00001147  -0.00000328   0.00000028 *
*    B      37      0.00000267  -0.00000187  -0.00000016 *
*    N      38      0.00001293  -0.00000628   0.00000027 *
*    B      39      0.00000087   0.00000092  -0.00000015 *
*    N      40      0.00001241   0.00000520   0.00000027 *
*    B      41      0.00000257  -0.00000356  -0.00000016 *
*    N      42      0.00001433  -0.00000319   0.00000027 *
*    B      43      0.00000106   0.00000139  -0.00000015 *
*    N      44      0.00001296   0.00000155   0.00000027 *
*    B      45      0.00000273  -0.00000103  -0.00000016 *
*    N      46      0.00001475  -0.00000425   0.00000027 *
*    B      47      0.00000104   0.00000013  -0.00000015 *
*    N      48      0.00001272  -0.00000127   0.00000027 *
*    B      49      0.00000060  -0.00000311  -0.00000015 *
*    N      50      0.00001359  -0.00000626   0.00000027 *
*    B      51      0.00000245   0.00000043  -0.00000015 *
*    N      52      0.00000862   0.00000365   0.00000028 *
*    B      53      0.00000204  -0.00000271  -0.00000015 *
*    N      54      0.00000807  -0.00000417   0.00000027 *
*    B      55      0.00000314   0.00000086  -0.00000015 *
*    N      56      0.00001098  -0.00000149   0.00000028 *
*    B      57      0.00000244  -0.00000011  -0.00000015 *
*    N      58      0.00000935  -0.00000507   0.00000027 *
*    B      59      0.00000349  -0.00000058  -0.00000015 *
*    N      60      0.00001248  -0.00000336   0.00000028 *
*    B      61      0.00000301  -0.00000182  -0.00000016 *
*    N      62      0.00001611  -0.00000600   0.00000027 *
*    B      63      0.00000402  -0.00000088  -0.00000015 *
*    N      64      0.00001603   0.00000485   0.00000027 *
*    B      65      0.00000033  -0.00000519  -0.00000016 *
*    N      66      0.00001910  -0.00000185   0.00000027 *
*    B      67      0.00000027   0.00000150  -0.00000015 *
*    N      68      0.00001164   0.00000303   0.00000027 *
*    B      69      0.00000213  -0.00000105  -0.00000016 *
*    N      70      0.00001313  -0.00000308   0.00000027 *
*    B      71      0.00000076   0.00000046  -0.00000015 *
*    N      72      0.00001120   0.00000157   0.00000027 *
*                                                        *
**********************************************************
TOTAL:              0.00053803  -0.00009084   0.00000419
 
********************* Unconstrained **********************
************** Compensation density forces ***************
*                                                        *
* Element  Atom         Cartesian components (Eh/a)      *
* ------------------------------------------------------ *
*                       x            y            z      *
*                                                        *
*    B       1     -0.00000040   0.00000032   0.00000045 *
*    N       2     -0.00000004   0.00000050   0.00000154 *
*    B       3     -0.00000063   0.00000020   0.00000045 *
*    N       4     -0.00000025   0.00000031   0.00000154 *
*    B       5     -0.00000040   0.00000029   0.00000045 *
*    N       6     -0.00000004   0.00000050   0.00000154 *
*    B       7     -0.00000062   0.00000020   0.00000045 *
*    N       8     -0.00000025   0.00000031   0.00000154 *
*    B       9     -0.00000038   0.00000031   0.00000045 *
*    N      10     -0.00000004   0.00000050   0.00000154 *
*    B      11     -0.00000062   0.00000019   0.00000045 *
*    N      12     -0.00000026   0.00000031   0.00000154 *
*    B      13     -0.00000041   0.00000058   0.00000045 *
*    N      14     -0.00000032   0.00000035   0.00000155 *
*    B      15     -0.00000028   0.00000024   0.00000045 *
*    N      16     -0.00000031   0.00000003   0.00000155 *
*    B      17     -0.00000041   0.00000055   0.00000045 *
*    N      18     -0.00000032   0.00000035   0.00000155 *
*    B      19     -0.00000028   0.00000025   0.00000045 *
*    N      20     -0.00000031   0.00000003   0.00000155 *
*    B      21     -0.00000041   0.00000058   0.00000045 *
*    N      22     -0.00000032   0.00000035   0.00000155 *
*    B      23     -0.00000028   0.00000025   0.00000045 *
*    N      24     -0.00000031   0.00000003   0.00000155 *
*    B      25     -0.00000040   0.00000032   0.00000045 *
*    N      26     -0.00000004   0.00000050   0.00000154 *
*    B      27     -0.00000063   0.00000019   0.00000045 *
*    N      28     -0.00000025   0.00000031   0.00000154 *
*    B      29     -0.00000040   0.00000029   0.00000045 *
*    N      30     -0.00000004   0.00000050   0.00000154 *
*    B      31     -0.00000063   0.00000021   0.00000045 *
*    N      32     -0.00000025   0.00000031   0.00000154 *
*    B      33     -0.00000040   0.00000032   0.00000045 *
*    N      34     -0.00000004   0.00000050   0.00000154 *
*    B      35     -0.00000063   0.00000020   0.00000045 *
*    N      36     -0.00000025   0.00000031   0.00000154 *
*    B      37     -0.00000041   0.00000058   0.00000045 *
*    N      38     -0.00000032   0.00000035   0.00000155 *
*    B      39     -0.00000028   0.00000024   0.00000045 *
*    N      40     -0.00000031   0.00000003   0.00000155 *
*    B      41     -0.00000041   0.00000055   0.00000045 *
*    N      42     -0.00000032   0.00000035   0.00000155 *
*    B      43     -0.00000028   0.00000026   0.00000045 *
*    N      44     -0.00000031   0.00000003   0.00000155 *
*    B      45     -0.00000041   0.00000058   0.00000045 *
*    N      46     -0.00000032   0.00000035   0.00000155 *
*    B      47     -0.00000028   0.00000025   0.00000045 *
*    N      48     -0.00000031   0.00000003   0.00000155 *
*    B      49     -0.00000042   0.00000031   0.00000045 *
*    N      50     -0.00000004   0.00000051   0.00000154 *
*    B      51     -0.00000063   0.00000019   0.00000045 *
*    N      52     -0.00000026   0.00000032   0.00000154 *
*    B      53     -0.00000040   0.00000029   0.00000045 *
*    N      54     -0.00000004   0.00000050   0.00000154 *
*    B      55     -0.00000063   0.00000021   0.00000045 *
*    N      56     -0.00000025   0.00000031   0.00000154 *
*    B      57     -0.00000040   0.00000032   0.00000045 *
*    N      58     -0.00000004   0.00000050   0.00000154 *
*    B      59     -0.00000063   0.00000020   0.00000045 *
*    N      60     -0.00000025   0.00000031   0.00000154 *
*    B      61     -0.00000041   0.00000058   0.00000045 *
*    N      62     -0.00000032   0.00000035   0.00000155 *
*    B      63     -0.00000026   0.00000023   0.00000045 *
*    N      64     -0.00000031   0.00000003   0.00000155 *
*    B      65     -0.00000043   0.00000053   0.00000045 *
*    N      66     -0.00000032   0.00000035   0.00000155 *
*    B      67     -0.00000029   0.00000026   0.00000045 *
*    N      68     -0.00000031   0.00000003   0.00000155 *
*    B      69     -0.00000042   0.00000058   0.00000045 *
*    N      70     -0.00000032   0.00000036   0.00000155 *
*    B      71     -0.00000029   0.00000025   0.00000045 *
*    N      72     -0.00000031   0.00000003   0.00000155 *
*                                                        *
**********************************************************
TOTAL:             -0.00002380   0.00002266   0.00007188
 
********************* Unconstrained **********************
*************** Non-local potential forces ***************
*                                                        *
* Element  Atom         Cartesian components (Eh/a)      *
* ------------------------------------------------------ *
*                       x            y            z      *
*                                                        *
*    B       1      0.00002354  -0.00001505  -0.00000026 *
*    N       2     -0.00002812   0.00000645  -0.00000133 *
*    B       3      0.00002768  -0.00001333  -0.00000026 *
*    N       4     -0.00002692   0.00000514  -0.00000133 *
*    B       5      0.00002354  -0.00001465  -0.00000026 *
*    N       6     -0.00002817   0.00000554  -0.00000133 *
*    B       7      0.00002741  -0.00001340  -0.00000026 *
*    N       8     -0.00002709   0.00000650  -0.00000133 *
*    B       9      0.00002325  -0.00001493  -0.00000026 *
*    N      10     -0.00002840   0.00000623  -0.00000133 *
*    B      11      0.00002737  -0.00001331  -0.00000026 *
*    N      12     -0.00002723   0.00000639  -0.00000133 *
*    B      13      0.00002418  -0.00001946  -0.00000026 *
*    N      14     -0.00002711   0.00000673  -0.00000132 *
*    B      15      0.00002070  -0.00001330  -0.00000026 *
*    N      16     -0.00002749   0.00000626  -0.00000132 *
*    B      17      0.00002416  -0.00001898  -0.00000026 *
*    N      18     -0.00002717   0.00000573  -0.00000132 *
*    B      19      0.00002068  -0.00001350  -0.00000026 *
*    N      20     -0.00002753   0.00000761  -0.00000132 *
*    B      21      0.00002413  -0.00001943  -0.00000026 *
*    N      22     -0.00002722   0.00000655  -0.00000132 *
*    B      23      0.00002066  -0.00001346  -0.00000026 *
*    N      24     -0.00002766   0.00000762  -0.00000132 *
*    B      25      0.00002348  -0.00001505  -0.00000026 *
*    N      26     -0.00002815   0.00000650  -0.00000133 *
*    B      27      0.00002761  -0.00001330  -0.00000026 *
*    N      28     -0.00002696   0.00000510  -0.00000133 *
*    B      29      0.00002346  -0.00001460  -0.00000026 *
*    N      30     -0.00002822   0.00000548  -0.00000133 *
*    B      31      0.00002760  -0.00001352  -0.00000026 *
*    N      32     -0.00002698   0.00000644  -0.00000133 *
*    B      33      0.00002346  -0.00001505  -0.00000026 *
*    N      34     -0.00002825   0.00000632  -0.00000133 *
*    B      35      0.00002758  -0.00001345  -0.00000026 *
*    N      36     -0.00002711   0.00000649  -0.00000133 *
*    B      37      0.00002419  -0.00001943  -0.00000026 *
*    N      38     -0.00002696   0.00000669  -0.00000132 *
*    B      39      0.00002070  -0.00001329  -0.00000026 *
*    N      40     -0.00002750   0.00000626  -0.00000132 *
*    B      41      0.00002416  -0.00001899  -0.00000026 *
*    N      42     -0.00002716   0.00000570  -0.00000132 *
*    B      43      0.00002069  -0.00001352  -0.00000026 *
*    N      44     -0.00002752   0.00000758  -0.00000132 *
*    B      45      0.00002415  -0.00001944  -0.00000026 *
*    N      46     -0.00002721   0.00000657  -0.00000132 *
*    B      47      0.00002067  -0.00001344  -0.00000026 *
*    N      48     -0.00002767   0.00000770  -0.00000132 *
*    B      49      0.00002379  -0.00001488  -0.00000026 *
*    N      50     -0.00002871   0.00000669  -0.00000133 *
*    B      51      0.00002763  -0.00001330  -0.00000026 *
*    N      52     -0.00002659   0.00000517  -0.00000133 *
*    B      53      0.00002349  -0.00001459  -0.00000026 *
*    N      54     -0.00002805   0.00000546  -0.00000133 *
*    B      55      0.00002761  -0.00001353  -0.00000026 *
*    N      56     -0.00002697   0.00000639  -0.00000133 *
*    B      57      0.00002345  -0.00001506  -0.00000026 *
*    N      58     -0.00002825   0.00000625  -0.00000133 *
*    B      59      0.00002760  -0.00001343  -0.00000026 *
*    N      60     -0.00002677   0.00000646  -0.00000133 *
*    B      61      0.00002409  -0.00001944  -0.00000026 *
*    N      62     -0.00002752   0.00000677  -0.00000132 *
*    B      63      0.00002034  -0.00001308  -0.00000026 *
*    N      64     -0.00002789   0.00000620  -0.00000132 *
*    B      65      0.00002447  -0.00001879  -0.00000026 *
*    N      66     -0.00002778   0.00000570  -0.00000132 *
*    B      67      0.00002074  -0.00001351  -0.00000026 *
*    N      68     -0.00002692   0.00000757  -0.00000132 *
*    B      69      0.00002419  -0.00001943  -0.00000026 *
*    N      70     -0.00002665   0.00000664  -0.00000132 *
*    B      71      0.00002073  -0.00001346  -0.00000026 *
*    N      72     -0.00002713   0.00000773  -0.00000132 *
*                                                        *
**********************************************************
TOTAL:             -0.00012584  -0.00031777  -0.00005705
 
********************* Unconstrained **********************
************ NGWF non self-consistent forces *************
*                                                        *
* Element  Atom         Cartesian components (Eh/a)      *
* ------------------------------------------------------ *
*                       x            y            z      *
*                                                        *
*    B       1     -0.00000062   0.00000038   0.00000003 *
*    N       2     -0.00001119   0.00000786   0.00000008 *
*    B       3     -0.00000617  -0.00000155   0.00000003 *
*    N       4     -0.00001501   0.00000865   0.00000009 *
*    B       5     -0.00000062   0.00000038   0.00000003 *
*    N       6     -0.00001118   0.00000786   0.00000008 *
*    B       7     -0.00000617  -0.00000155   0.00000003 *
*    N       8     -0.00001501   0.00000865   0.00000009 *
*    B       9     -0.00000062   0.00000038   0.00000003 *
*    N      10     -0.00001119   0.00000786   0.00000008 *
*    B      11     -0.00000617  -0.00000155   0.00000003 *
*    N      12     -0.00001501   0.00000865   0.00000009 *
*    B      13     -0.00000172   0.00000615   0.00000003 *
*    N      14     -0.00001237   0.00000712   0.00000009 *
*    B      15      0.00000473  -0.00000272   0.00000003 *
*    N      16     -0.00001241   0.00000572   0.00000008 *
*    B      17     -0.00000172   0.00000615   0.00000003 *
*    N      18     -0.00001237   0.00000713   0.00000009 *
*    B      19      0.00000473  -0.00000272   0.00000003 *
*    N      20     -0.00001241   0.00000572   0.00000008 *
*    B      21     -0.00000172   0.00000615   0.00000003 *
*    N      22     -0.00001237   0.00000712   0.00000009 *
*    B      23      0.00000473  -0.00000272   0.00000003 *
*    N      24     -0.00001241   0.00000572   0.00000008 *
*    B      25     -0.00000062   0.00000038   0.00000003 *
*    N      26     -0.00001119   0.00000786   0.00000008 *
*    B      27     -0.00000617  -0.00000155   0.00000003 *
*    N      28     -0.00001501   0.00000865   0.00000009 *
*    B      29     -0.00000062   0.00000038   0.00000003 *
*    N      30     -0.00001119   0.00000786   0.00000008 *
*    B      31     -0.00000617  -0.00000155   0.00000003 *
*    N      32     -0.00001501   0.00000865   0.00000009 *
*    B      33     -0.00000062   0.00000038   0.00000003 *
*    N      34     -0.00001119   0.00000786   0.00000008 *
*    B      35     -0.00000617  -0.00000155   0.00000003 *
*    N      36     -0.00001501   0.00000865   0.00000009 *
*    B      37     -0.00000172   0.00000615   0.00000003 *
*    N      38     -0.00001237   0.00000712   0.00000009 *
*    B      39      0.00000473  -0.00000272   0.00000003 *
*    N      40     -0.00001241   0.00000572   0.00000008 *
*    B      41     -0.00000172   0.00000615   0.00000003 *
*    N      42     -0.00001237   0.00000713   0.00000009 *
*    B      43      0.00000473  -0.00000272   0.00000003 *
*    N      44     -0.00001241   0.00000572   0.00000008 *
*    B      45     -0.00000172   0.00000615   0.00000003 *
*    N      46     -0.00001237   0.00000712   0.00000009 *
*    B      47      0.00000473  -0.00000272   0.00000003 *
*    N      48     -0.00001241   0.00000572   0.00000008 *
[...]
*    N      68      0.00000879  -0.00002825  -0.00011477 *
*    B      69      0.00000009  -0.00000001  -0.00000004 *
*    N      70      0.00000863  -0.00002810  -0.00011477 *
*    B      71      0.00000009  -0.00000002  -0.00000004 *
*    N      72      0.00000879  -0.00002825  -0.00011477 *
*                                                        *
**********************************************************
TOTAL:              0.00031712  -0.00101364  -0.00413261
 
********************* Unconstrained **********************
****** Correction to ensure the total force is zero ******
*                                                        *
* Element  Atom         Cartesian components (Eh/a)      *
* ------------------------------------------------------ *
*                       x            y            z      *
*                                                        *
*    B       1     -0.00000295   0.00001549   0.00005708 *
*    N       2     -0.00000295   0.00001549   0.00005708 *
*    B       3     -0.00000295   0.00001549   0.00005708 *
*    N       4     -0.00000295   0.00001549   0.00005708 *
*    B       5     -0.00000295   0.00001549   0.00005708 *
*    N       6     -0.00000295   0.00001549   0.00005708 *
*    B       7     -0.00000295   0.00001549   0.00005708 *
*    N       8     -0.00000295   0.00001549   0.00005708 *
*    B       9     -0.00000295   0.00001549   0.00005708 *
*    N      10     -0.00000295   0.00001549   0.00005708 *
*    B      11     -0.00000295   0.00001549   0.00005708 *
*    N      12     -0.00000295   0.00001549   0.00005708 *
*    B      13     -0.00000295   0.00001549   0.00005708 *
*    N      14     -0.00000295   0.00001549   0.00005708 *
*    B      15     -0.00000295   0.00001549   0.00005708 *
*    N      16     -0.00000295   0.00001549   0.00005708 *
*    B      17     -0.00000295   0.00001549   0.00005708 *
*    N      18     -0.00000295   0.00001549   0.00005708 *
*    B      19     -0.00000295   0.00001549   0.00005708 *
*    N      20     -0.00000295   0.00001549   0.00005708 *
*    B      21     -0.00000295   0.00001549   0.00005708 *
*    N      22     -0.00000295   0.00001549   0.00005708 *
*    B      23     -0.00000295   0.00001549   0.00005708 *
*    N      24     -0.00000295   0.00001549   0.00005708 *
*    B      25     -0.00000295   0.00001549   0.00005708 *
*    N      26     -0.00000295   0.00001549   0.00005708 *
*    B      27     -0.00000295   0.00001549   0.00005708 *
*    N      28     -0.00000295   0.00001549   0.00005708 *
*    B      29     -0.00000295   0.00001549   0.00005708 *
*    N      30     -0.00000295   0.00001549   0.00005708 *
*    B      31     -0.00000295   0.00001549   0.00005708 *
*    N      32     -0.00000295   0.00001549   0.00005708 *
*    B      33     -0.00000295   0.00001549   0.00005708 *
*    N      34     -0.00000295   0.00001549   0.00005708 *
*    B      35     -0.00000295   0.00001549   0.00005708 *
*    N      36     -0.00000295   0.00001549   0.00005708 *
*    B      37     -0.00000295   0.00001549   0.00005708 *
*    N      38     -0.00000295   0.00001549   0.00005708 *
*    B      39     -0.00000295   0.00001549   0.00005708 *
*    N      40     -0.00000295   0.00001549   0.00005708 *
*    B      41     -0.00000295   0.00001549   0.00005708 *
*    N      42     -0.00000295   0.00001549   0.00005708 *
*    B      43     -0.00000295   0.00001549   0.00005708 *
*    N      44     -0.00000295   0.00001549   0.00005708 *
*    B      45     -0.00000295   0.00001549   0.00005708 *
*    N      46     -0.00000295   0.00001549   0.00005708 *
*    B      47     -0.00000295   0.00001549   0.00005708 *
*    N      48     -0.00000295   0.00001549   0.00005708 *
*    B      49     -0.00000295   0.00001549   0.00005708 *
*    N      50     -0.00000295   0.00001549   0.00005708 *
*    B      51     -0.00000295   0.00001549   0.00005708 *
*    N      52     -0.00000295   0.00001549   0.00005708 *
*    B      53     -0.00000295   0.00001549   0.00005708 *
*    N      54     -0.00000295   0.00001549   0.00005708 *
*    B      55     -0.00000295   0.00001549   0.00005708 *
*    N      56     -0.00000295   0.00001549   0.00005708 *
*    B      57     -0.00000295   0.00001549   0.00005708 *
*    N      58     -0.00000295   0.00001549   0.00005708 *
*    B      59     -0.00000295   0.00001549   0.00005708 *
*    N      60     -0.00000295   0.00001549   0.00005708 *
*    B      61     -0.00000295   0.00001549   0.00005708 *
*    N      62     -0.00000295   0.00001549   0.00005708 *
*    B      63     -0.00000295   0.00001549   0.00005708 *
*    N      64     -0.00000295   0.00001549   0.00005708 *
*    B      65     -0.00000295   0.00001549   0.00005708 *
*    N      66     -0.00000295   0.00001549   0.00005708 *
*    B      67     -0.00000295   0.00001549   0.00005708 *
*    N      68     -0.00000295   0.00001549   0.00005708 *
*    B      69     -0.00000295   0.00001549   0.00005708 *
*    N      70     -0.00000295   0.00001549   0.00005708 *
*    B      71     -0.00000295   0.00001549   0.00005708 *
*    N      72     -0.00000295   0.00001549   0.00005708 *
*                                                        *
**********************************************************
TOTAL:             -0.00021261   0.00111520   0.00410945

********************* Unconstrained **********************
************************* Forces *************************
*                                                        *
* Element  Atom         Cartesian components (Eh/a)      *
* ------------------------------------------------------ *
*                       x            y            z      *
*                                                        *
*    B       1      0.00002222  -0.00000006   0.00005711 *
*    N       2     -0.00002355  -0.00000206  -0.00005710 *
*    B       3      0.00002153   0.00000035   0.00005710 *
*    N       4     -0.00002478   0.00000039  -0.00005709 *
*    B       5      0.00002227   0.00000114   0.00005711 *
*    N       6     -0.00002358  -0.00000260  -0.00005710 *
*    B       7      0.00002113  -0.00000014   0.00005710 *
*    N       8     -0.00002487   0.00000154  -0.00005709 *
*    B       9      0.00002176   0.00000008   0.00005711 *
*    N      10     -0.00002366  -0.00000212  -0.00005710 *
*    B      11      0.00002096  -0.00000007   0.00005710 *
*    N      12     -0.00002491   0.00000151  -0.00005709 *
*    B      13      0.00002194   0.00000079   0.00005710 *
*    N      14     -0.00001932  -0.00000159  -0.00005712 *
*    B      15      0.00002341  -0.00000019   0.00005711 *
*    N      16     -0.00002112   0.00000111  -0.00005712 *
*    B      17      0.00002190   0.00000190   0.00005710 *
*    N      18     -0.00001933  -0.00000218  -0.00005712 *
*    B      19      0.00002343  -0.00000079   0.00005711 *
*    N      20     -0.00002113   0.00000224  -0.00005711 *
*    B      21      0.00002192   0.00000079   0.00005710 *
*    N      22     -0.00001935  -0.00000166  -0.00005712 *
*    B      23      0.00002342  -0.00000069   0.00005711 *
*    N      24     -0.00002119   0.00000227  -0.00005711 *
*    B      25      0.00002221   0.00000002   0.00005711 *
*    N      26     -0.00002358  -0.00000203  -0.00005710 *
*    B      27      0.00002137   0.00000040   0.00005710 *
*    N      28     -0.00002480   0.00000037  -0.00005709 *
*    B      29      0.00002216   0.00000115   0.00005711 *
*    N      30     -0.00002359  -0.00000262  -0.00005710 *
*    B      31      0.00002138  -0.00000019   0.00005710 *
*    N      32     -0.00002481   0.00000150  -0.00005709 *
*    B      33      0.00002217   0.00000004   0.00005711 *
*    N      34     -0.00002361  -0.00000209  -0.00005710 *
*    B      35      0.00002138  -0.00000011   0.00005710 *
*    N      36     -0.00002486   0.00000155  -0.00005709 *
*    B      37      0.00002194   0.00000076   0.00005710 *
*    N      38     -0.00001925  -0.00000159  -0.00005712 *
*    B      39      0.00002342  -0.00000018   0.00005711 *
*    N      40     -0.00002112   0.00000111  -0.00005712 *
*    B      41      0.00002190   0.00000190   0.00005710 *
*    N      42     -0.00001932  -0.00000219  -0.00005712 *
*    B      43      0.00002343  -0.00000076   0.00005711 *
*    N      44     -0.00002113   0.00000223  -0.00005712 *
*    B      45      0.00002191   0.00000079   0.00005710 *
*    N      46     -0.00001934  -0.00000165  -0.00005712 *
*    B      47      0.00002342  -0.00000070   0.00005711 *
*    N      48     -0.00002118   0.00000232  -0.00005711 *
*    B      49      0.00002262   0.00000017   0.00005711 *
*    N      50     -0.00002407  -0.00000208  -0.00005710 *
*    B      51      0.00002144   0.00000041   0.00005710 *
*    N      52     -0.00002437   0.00000027  -0.00005709 *
*    B      53      0.00002216   0.00000114   0.00005711 *
*    N      54     -0.00002351  -0.00000261  -0.00005710 *
*    B      55      0.00002138  -0.00000017   0.00005710 *
*    N      56     -0.00002480   0.00000148  -0.00005709 *
*    B      57      0.00002218   0.00000005   0.00005711 *
*    N      58     -0.00002360  -0.00000212  -0.00005710 *
*    B      59      0.00002140  -0.00000008   0.00005710 *
*    N      60     -0.00002472   0.00000154  -0.00005709 *
*    B      61      0.00002175   0.00000075   0.00005710 *
*    N      62     -0.00001953  -0.00000154  -0.00005712 *
*    B      63      0.00002302  -0.00000010   0.00005711 *
*    N      64     -0.00002138   0.00000115  -0.00005711 *
*    B      65      0.00002228   0.00000199   0.00005710 *
*    N      66     -0.00001994  -0.00000228  -0.00005712 *
*    B      67      0.00002345  -0.00000072   0.00005711 *
*    N      68     -0.00002070   0.00000213  -0.00005712 *
*    B      69      0.00002194   0.00000083   0.00005710 *
*    N      70     -0.00001891  -0.00000171  -0.00005712 *
*    B      71      0.00002347  -0.00000070   0.00005711 *
*    N      72     -0.00002076   0.00000220  -0.00005712 *
*                                                        *
**********************************************************
* TOTAL:           -0.00000000  -0.00000000  -0.00000000 *
**********************************************************
 
 
***********************************************************
********** Summary of Forces (values in Eh/a) *************
*                                                         *
* ---------------------- Minimum ------------------------ *
* Atom:        70, |F|min =    0.00006019                 *
* Components:     Fx|min       Fy|min       Fz|min        *
*              -0.00001891  -0.00000171  -0.00005712      *
*                                                         *
* ---------------------- Maximum ------------------------ *
* Atom:        12, |F|max =    0.00006230                 *
* Components:     Fx|max       Fy|max       Fz|max        *
*              -0.00002491   0.00000151  -0.00005709      *
*                                                         *
* ---------------- Root Mean Square Force --------------- *
*                  |F|rms =    0.00006131                 *
* Components:     Fx|rms       Fy|rms       Fz|rms        *
*               0.00002227   0.00000143   0.00005711      *
***********************************************************
 

------------------------------ TIMING INFORMATION ------------------------------
AVERAGE TIME:     547.062s on     16 proc(s)                                    
TOTAL TIME:       547.063s on     16 proc(s)                                    
==================== AVERAGE TIMINGS FROM ALL PROCS (CUMULATIVE) =====================
|| TAG                                         #calls     cpu time   %total  Gflops ||
|| hash_table_free                            :    25        0.00s   0.000%  ------ ||
|| onetep.F90 main loop imbalance             :     1        0.00s   0.000%  ------ ||
|| sparse_spam3toblacs_real_fast_imbal        :     6        0.00s   0.000%  ------ ||
|| sparse_blacstospam3_real_fast_imbal        :     8        0.00s   0.000%  ------ ||
|| density_fftbox_interp_mult_imbal           :  5040        0.00s   0.000%  ------ ||
|| onetep.F90 final imbalance                 :     1        0.00s   0.000%  ------ ||
|| ewald_calculate_forces_realspace           :     1        0.00s   0.000%  ------ ||
|| sparse_spam3toblacs_real_fast_B2           :    96        0.00s   0.000%  ------ ||
|| sparse_set_to_garbage                      :   210        0.00s   0.000%  ------ ||
|| pseudo_make_structure_factor               :     1        0.00s   0.001%  ------ ||
|| paw_dij_hartree                            :   136        0.01s   0.001%  ------ ||
|| ewald_calculate_energy                     :     1        0.01s   0.001%  ------ ||
|| paw_tcore_hartree_on_grid                  :     1        0.01s   0.001%  ------ ||
|| linalg_dgemv                               :    21        0.01s   0.002%  ------ ||
|| sparse_spam3toblacs_real_fast_B1           :    96        0.01s   0.002%  ------ ||
|| ewald_calculate_forces_recipspace          :     1        0.01s   0.002%  ------ ||
|| ewald_calculate_forces                     :     1        0.01s   0.002%  ------ ||
|| sparse_spam3toblacs_real_fast              :     6        0.01s   0.003%  ------ ||
|| augmentation_density_forces                :     1        0.02s   0.003%  ------ ||
|| paw_tcore_hartree_calc_forces              :     1        0.02s   0.003%  ------ ||
|| sparse_blacstospam3_real_fast              :     8        0.03s   0.005%  ------ ||
|| sparse_init                                :     1        0.04s   0.007%  ------ ||
|| paw_sphere_density_on_grid                 :     1        0.07s   0.012%  ------ ||
|| paw_nlcc_calculate_forces                  :     1        0.07s   0.013%  ------ ||
|| restart_kernel_write                       :    13        0.07s   0.013%  ------ ||
|| basis_extract_function_from_box            :   864        0.08s   0.014%  ------ ||
|| integrals_grad_spam3                       :     1        0.11s   0.020%  ------ ||
|| nonsc_forces_ngwfs_calc                    :     1        0.11s   0.020%  ------ ||
|| sparse_embed_array_hotelling_invert        :    24        0.15s   0.028%  ------ ||
|| paw_tcore_density                          :     1        0.16s   0.030%  ------ ||
|| dense_eigensolve                           :     2        0.18s   0.033%  ------ ||
|| palser_mano_kernel_optimise_spam3_embed    :     2        0.18s   0.034%  ------ ||
|| paw_species_calc_proj_prec_mat             :     1        0.38s   0.070%  ------ ||
|| ngwfs_initialise_from_radial               :     1        0.41s   0.075%  ------ ||
|| hartree_on_grid_single                     :   125        0.51s   0.093%  ------ ||
|| paw_dataset_init                           :     2        0.60s   0.110%  ------ ||
|| sparse_trace                               :  4376        0.76s   0.139%  ------ ||
|| density_init_guess_real                    :     2        0.96s   0.175%  ------ ||
|| kernel_purify                              :   193        0.98s   0.179%  ------ ||
|| eigenstates_calculate                      :     1        1.02s   0.186%  ------ ||
|| lnv_gradient_norm                          :    60        1.07s   0.195%  ------ ||
|| kernel_fix                                 :    60        1.13s   0.207%  ------ ||
|| ngwf_gradient_coeffs                       :    12        1.26s   0.231%  ------ ||
|| myself                                     :  1089        1.41s   0.258% 277.189 ||
|| projectors_func_grad_ovlp_box_spam3        :     3        1.56s   0.285%  ------ ||
|| augmentation_screen_dij_spam3              :   124        1.66s   0.304%  ------ ||
|| aug_nl_calculate_forces                    :     1        1.69s   0.309%  ------ ||
|| hamiltonian_energy_components              :     1        1.84s   0.335%  ------ ||
|| basis_copy_function_to_box                 :  7560        1.90s   0.347%  ------ ||
|| energy_and_force_init_cell                 :     1        1.99s   0.364%  ------ ||
|| fourier_apply_cell_backward                :  1126        2.08s   0.380%  57.364 ||
|| cell_grid_deposit_box_real                 :  6495        2.11s   0.386%  ------ ||
|| fourier_apply_cell_forward                 :  1126        2.37s   0.434%  50.167 ||
|| function_ops_brappd_ketppd_spam3           :    24        2.77s   0.506%  ------ ||
|| cell_grid_extract_box_real                 :  4229        2.93s   0.535%  ------ ||
|| aug_density_on_grid_spam3                  :   126        3.13s   0.572%  ------ ||
|| projectors_init_fftbox_recip               :   124        4.85s   0.887%  ------ ||
|| forces_calculate                           :     1        5.09s   0.931%  ------ ||
|| sparse_product                             :  6816        5.37s   0.981%  ------ ||
|| restart_ngwfs_tightbox_output              :    11        6.02s   1.100%  ------ ||
|| xc_energy_potential                        :   125        6.29s   1.150%  ------ ||
|| density_fftbox_deposit_to_cell             :  5040        6.76s   1.235%  ------ ||
|| aug_nonlocal_mat_spam3_embed_array         :   123        9.14s   1.671%  ------ ||
|| integrals_kinetic_spam3                    :    24        9.31s   1.701%  ------ ||
|| paw_dij_xc                                 :   136        9.46s   1.730%  ------ ||
|| properties_calculate                       :     1       10.67s   1.951%  ------ ||
|| projectors_func_ovlp_box_spam3             :    24       11.57s   2.114%  ------ ||
|| fourier_filter                             :  1548       13.41s   2.451%  ------ ||
|| projectors_gradient_batch                  :    48       23.60s   4.313%  ------ ||
|| fourier_interpolate                        :  1548       23.72s   4.336%  ------ ||
|| basis_dot_function_with_box                : 860.9k      34.93s   6.384%  ------ ||
|| projectors_grad_precond_batch              :    48       39.99s   7.309%  ------ ||
|| integrals_locpot_mat_els_batch             :   248       51.08s   9.336%  ------ ||
|| fourier_apply_box                          : 24310       52.13s   9.529% 567.212 ||
|| potential_apply_to_ngwf_batch              :   248       56.60s  10.346%  ------ ||
|| fourier_interpolate_product                :  4536       65.30s  11.936%  ------ ||
|| density_fftbox_interpolate_multiply        :  5040       75.47s  13.796%  ------ ||
|| ngwf_gradient_build_batch                  :    48       83.30s  15.226%  ------ ||
|| density_batch_row_sums                     :   504       85.46s  15.622%  ------ ||
|| basis_add_function_to_box                  : 1.804M      89.25s  16.315%  ------ ||
|| density_batch_interp_deposit               :   504      101.42s  18.539%  ------ ||
|| integrals_locpot_dbl_grid                  :   124      107.80s  19.705%  ------ ||
|| ngwf_gradient_batch                        :    48      157.18s  28.732%  ------ ||
|| ngwf_gradient_lnv                          :    12      160.91s  29.414%  ------ ||
|| density_on_dbl_grid                        :   252      190.22s  34.771%  ------ ||
|| hamiltonian_lhxc_calculate                 :   122      206.70s  37.785%  ------ ||
|| lnv_denskernel_optimise_cg                 :    12      300.93s  55.008%  ------ ||
|| ngwf_cg_optimise                           :     1      521.35s  95.300%  ------ ||
|| energy_and_forces                          :     1      544.39s  99.511%  ------ ||
|| total_time                                 :     1      547.06s 100.000%  ------ ||
======================================================================================
Overhead of generating timer report: 
- 0 ms averaging over threads,
- 1 ms ensuring consistency across MPI ranks,
- 0 ms printing in order.

Job completed: 16-05-2024 22:49 (+0100)

onetep_launcher: ONETEP seems to have finished correctly (zero exit code).
                 Brought to you by PID 44096 on nid002294.
