
     Program PWSCF v.7.3 starts on 15Oct2025 at 15:22:27 

     This program is part of the open-source Quantum ESPRESSO suite
     for quantum simulation of materials; please cite
         "P. Giannozzi et al., J. Phys.:Condens. Matter 21 395502 (2009);
         "P. Giannozzi et al., J. Phys.:Condens. Matter 29 465901 (2017);
         "P. Giannozzi et al., J. Chem. Phys. 152 154105 (2020);
          URL http://www.quantum-espresso.org", 
     in publications or presentations arising from this work. More details at
     http://www.quantum-espresso.org/quote

     Parallel version (MPI), running on    24 processors

     MPI processes distributed on     1 nodes
     50999 MiB available memory on the printing compute node when the environment starts

     Reading input from ht_afm_fm_qe.scf.in
Warning: card &CELL ignored
Warning: card / ignored

     Current dimensions of program PWSCF are:
     Max number of different atomic species (ntypx) = 10
     Max number of k-points (npk) =  40000
     Max angular momentum in pseudopotentials (lmaxx) =  4
read_pp_mesh; mismatch in mesh size, discarding the one in header
read_pp_mesh; mismatch in mesh size, discarding the one in header
     file Cr.GGA-PBE-paw.UPF: wavefunction(s)  3S 4S 3P 4P 3D 4D renormalized
     file I.GGA-PBE-paw.UPF: wavefunction(s)  6S 6P renormalized

     IMPORTANT: XC functional enforced from input :
     Exchange-correlation= PBE
                           (   1   4   3   4   0   0   0)
     Any further DFT definition will be discarded
     Please, verify this is what you really want

     Message from routine setup:
     using ibrav=0 with symmetry is DISCOURAGED, use correct ibrav instead

     R & G space division:  proc/nbgrp/npool/nimage =      24
     Subspace diagonalization in iterative solution of the eigenvalue problem:
     a serial algorithm will be used


     Parallelization info
     --------------------
     sticks:   dense  smooth     PW     G-vecs:    dense   smooth      PW
     Min         179     174     46                38065    36532    5046
     Max         180     175     47                38082    36557    5059
     Sum        4303    4189   1123               913669   876961  121297

     Using Slab Decomposition



     bravais-lattice index     =            0
     lattice parameter (alat)  =      12.9956  a.u.
     unit-cell volume          =    7602.9282 (a.u.)^3
     number of atoms/cell      =           16
     number of atomic types    =            2
     number of electrons       =       140.00 (up:  76.00, down:  64.00)
     number of Kohn-Sham states=          100
     kinetic-energy cutoff     =      90.0000  Ry
     charge density cutoff     =     370.0000  Ry
     scf convergence threshold =      1.0E-11
     mixing beta               =       0.5000
     number of iterations used =            8  plain     mixing
     Exchange-correlation= PBE
                           (   1   4   3   4   0   0   0)
     Hubbard projectors: ortho-atomic
     Hubbard parameters of DFT+U (Dudarev formulation) in eV:
     U(Cr-3d) =  4.3700
     J0(Cr-3d) =  0.5700

     Internal variables: lda_plus_u =T, lda_plus_u_kind = 0

     celldm(1)=  12.995613  celldm(2)=   0.000000  celldm(3)=   0.000000
     celldm(4)=   0.000000  celldm(5)=   0.000000  celldm(6)=   0.000000

     crystal axes: (cart. coord. in units of alat)
               a(1) = (   1.000000  -0.000000   0.000000 )  
               a(2) = (  -0.500000   0.866025   0.000000 )  
               a(3) = (  -0.000000   0.000000   4.000000 )  

     reciprocal axes: (cart. coord. in units 2 pi/alat)
               b(1) = (  1.000000  0.577350  0.000000 )  
               b(2) = (  0.000000  1.154701  0.000000 )  
               b(3) = ( -0.000000 -0.000000  0.250000 )  


     PseudoPot. # 1 for Cr read from file:
     ../../Cr.GGA-PBE-paw.UPF
     MD5 check sum: 0e9dc003703e132720ff5dfacba66d28
     Pseudo is Projector augmented-wave + core cor, Zval = 14.0
     Generated using ATOMPAW code
     Shape of augmentation charge: SINC**2
     Using radial grid of 2342 points,  6 beta functions with: 
                l(1) =   0
                l(2) =   0
                l(3) =   1
                l(4) =   1
                l(5) =   2
                l(6) =   2
     Q(r) pseudized with 0 coefficients 


     PseudoPot. # 2 for I  read from file:
     ../../I.GGA-PBE-paw.UPF
     MD5 check sum: 736bb4145856fa7ed29d0984862794a4
     Pseudo is Projector augmented-wave + core cor, Zval =  7.0
     Generated using ATOMPAW code
     Shape of augmentation charge: SINC**2
     Using radial grid of 2342 points,  4 beta functions with: 
                l(1) =   0
                l(2) =   0
                l(3) =   1
                l(4) =   1
     Q(r) pseudized with 0 coefficients 


     atomic species   valence    mass     pseudopotential
     Cr               14.00    51.99610     Cr( 1.00)
     I                 7.00   126.90447     I ( 1.00)

     Starting magnetic structure 
     atomic species   magnetization
     Cr              0.214
     I               0.000

      2 Sym. Ops. (no inversion) found



   Cartesian axes

     site n.     atom                  positions (alat units)
         1        Cr     tau(   1) = (   0.8332322   0.2888117   2.2705821  )
         2        Cr     tau(   2) = (   0.3332322   0.5772137   2.2705821  )
         3        I      tau(   3) = (   0.9768883  -0.0000019   2.0450771  )
         4        I      tau(   4) = (   0.5113602   0.3087614   2.0460861  )
         5        I      tau(   5) = (   0.0113635   0.5572659   2.0460861  )
         6        I      tau(   6) = (   0.6899037  -0.0000017   2.4948790  )
         7        I      tau(   7) = (   0.6550688   0.5572240   2.4948552  )
         8        I      tau(   8) = (   0.1550716   0.3088031   2.4948552  )
         9        Cr     tau(   9) = (   0.5001000   0.2888088   1.3132553  )
        10        Cr     tau(  10) = (   0.0001000   0.5772166   1.3132554  )
        11        I      tau(  11) = (   0.6434309  -0.0000019   1.0889581  )
        12        I      tau(  12) = (   0.1782615   0.3088030   1.0889818  )
        13        I      tau(  13) = (  -0.3217352   0.5572244   1.0889818  )
        14        I      tau(  14) = (   0.3564452  -0.0000017   1.5387600  )
        15        I      tau(  15) = (   0.3219705   0.5572651   1.5377500  )
        16        I      tau(  16) = (  -0.1780267   0.3087620   1.5377500  )

     number of k points=    13
                       cart. coord. in units 2pi/alat
        k(    1) = (   0.0000000   0.0000000   0.0000000), wk =   0.0277778
        k(    2) = (   0.0000000   0.1924501   0.0000000), wk =   0.0555556
        k(    3) = (   0.0000000   0.3849002   0.0000000), wk =   0.0555556
        k(    4) = (   0.0000000  -0.5773503   0.0000000), wk =   0.0277778
        k(    5) = (   0.1666667   0.2886751   0.0000000), wk =   0.1111111
        k(    6) = (   0.1666667   0.4811252   0.0000000), wk =   0.1111111
        k(    7) = (   0.3333333   0.5773503   0.0000000), wk =   0.0555556
        k(    8) = (  -0.1666667   0.0962250   0.0000000), wk =   0.1111111
        k(    9) = (  -0.3333333   0.1924501   0.0000000), wk =   0.1111111
        k(   10) = (   0.5000000  -0.2886751   0.0000000), wk =   0.0555556
        k(   11) = (   0.3333333   0.0000000   0.0000000), wk =   0.0555556
        k(   12) = (  -0.3333333   0.3849002   0.0000000), wk =   0.1111111
        k(   13) = (   0.5000000   0.0962250   0.0000000), wk =   0.1111111

     Dense  grid:   913669 G-vectors     FFT dimensions: (  80,  80, 320)

     Smooth grid:   876961 G-vectors     FFT dimensions: (  80,  80, 320)

     Estimated max dynamical RAM per process >     475.55 MB

     Estimated total dynamical RAM >      11.15 GB
 ----2D----2D----2D----2D----2D----2D----2D----2D----2D----2D----2D----2D
  The code is running with the 2D cutoff
  Please refer to:
  Sohier, T., Calandra, M., & Mauri, F. (2017), 
  Density functional perturbation theory for gated two-dimensional heterostructures:
  Theoretical developments and application to flexural phonons in graphene.
  Physical Review B, 96(7), 75448. https://doi.org/10.1103/PhysRevB.96.075448
 ----2D----2D----2D----2D----2D----2D----2D----2D----2D----2D----2D----2D
     Generating pointlists ...
     new r_m :   0.1619 (alat units)  2.1043 (a.u.) for type    1
     new r_m :   0.1619 (alat units)  2.1043 (a.u.) for type    2
     Cannot read rho : file not found

     Initial potential from superposition of free atoms

     starting charge     139.9932, renormalised to     140.0000

     negative rho (up, down):  2.612E-02 2.659E-02

     STARTING HUBBARD OCCUPATIONS:

     =================== HUBBARD OCCUPATIONS ===================
     ------------------------ ATOM    1 ------------------------
     Tr[ns(  1)] (up, down, total) =   5.00000  0.00000  5.00000
     Atomic magnetic moment for atom   1 =   5.00000
     SPIN  1
     eigenvalues:
       1.000  1.000  1.000  1.000  1.000
     eigenvectors (columns):
       1.000  0.000  0.000  0.000  0.000
       0.000  1.000  0.000  0.000  0.000
       0.000  0.000  1.000  0.000  0.000
       0.000  0.000  0.000  1.000  0.000
       0.000  0.000  0.000  0.000  1.000
     occupation matrix ns (before diag.):
       1.000  0.000  0.000  0.000  0.000
       0.000  1.000  0.000  0.000  0.000
       0.000  0.000  1.000  0.000  0.000
       0.000  0.000  0.000  1.000  0.000
       0.000  0.000  0.000  0.000  1.000
     SPIN  2
     eigenvalues:
       0.000  0.000  0.000  0.000  0.000
     eigenvectors (columns):
       1.000  0.000  0.000  0.000  0.000
       0.000  1.000  0.000  0.000  0.000
       0.000  0.000  1.000  0.000  0.000
       0.000  0.000  0.000  1.000  0.000
       0.000  0.000  0.000  0.000  1.000
     occupation matrix ns (before diag.):
       0.000  0.000  0.000  0.000  0.000
       0.000  0.000  0.000  0.000  0.000
       0.000  0.000  0.000  0.000  0.000
       0.000  0.000  0.000  0.000  0.000
       0.000  0.000  0.000  0.000  0.000
     ------------------------ ATOM    2 ------------------------
     Tr[ns(  2)] (up, down, total) =   5.00000  0.00000  5.00000
     Atomic magnetic moment for atom   2 =   5.00000
     SPIN  1
     eigenvalues:
       1.000  1.000  1.000  1.000  1.000
     eigenvectors (columns):
       1.000  0.000  0.000  0.000  0.000
       0.000  1.000  0.000  0.000  0.000
       0.000  0.000  1.000  0.000  0.000
       0.000  0.000  0.000  1.000  0.000
       0.000  0.000  0.000  0.000  1.000
     occupation matrix ns (before diag.):
       1.000  0.000  0.000  0.000  0.000
       0.000  1.000  0.000  0.000  0.000
       0.000  0.000  1.000  0.000  0.000
       0.000  0.000  0.000  1.000  0.000
       0.000  0.000  0.000  0.000  1.000
     SPIN  2
     eigenvalues:
       0.000  0.000  0.000  0.000  0.000
     eigenvectors (columns):
       1.000  0.000  0.000  0.000  0.000
       0.000  1.000  0.000  0.000  0.000
       0.000  0.000  1.000  0.000  0.000
       0.000  0.000  0.000  1.000  0.000
       0.000  0.000  0.000  0.000  1.000
     occupation matrix ns (before diag.):
       0.000  0.000  0.000  0.000  0.000
       0.000  0.000  0.000  0.000  0.000
       0.000  0.000  0.000  0.000  0.000
       0.000  0.000  0.000  0.000  0.000
       0.000  0.000  0.000  0.000  0.000
     ------------------------ ATOM    9 ------------------------
     Tr[ns(  9)] (up, down, total) =   5.00000  0.00000  5.00000
     Atomic magnetic moment for atom   9 =   5.00000
     SPIN  1
     eigenvalues:
       1.000  1.000  1.000  1.000  1.000
     eigenvectors (columns):
       1.000  0.000  0.000  0.000  0.000
       0.000  1.000  0.000  0.000  0.000
       0.000  0.000  1.000  0.000  0.000
       0.000  0.000  0.000  1.000  0.000
       0.000  0.000  0.000  0.000  1.000
     occupation matrix ns (before diag.):
       1.000  0.000  0.000  0.000  0.000
       0.000  1.000  0.000  0.000  0.000
       0.000  0.000  1.000  0.000  0.000
       0.000  0.000  0.000  1.000  0.000
       0.000  0.000  0.000  0.000  1.000
     SPIN  2
     eigenvalues:
       0.000  0.000  0.000  0.000  0.000
     eigenvectors (columns):
       1.000  0.000  0.000  0.000  0.000
       0.000  1.000  0.000  0.000  0.000
       0.000  0.000  1.000  0.000  0.000
       0.000  0.000  0.000  1.000  0.000
       0.000  0.000  0.000  0.000  1.000
     occupation matrix ns (before diag.):
       0.000  0.000  0.000  0.000  0.000
       0.000  0.000  0.000  0.000  0.000
       0.000  0.000  0.000  0.000  0.000
       0.000  0.000  0.000  0.000  0.000
       0.000  0.000  0.000  0.000  0.000
     ------------------------ ATOM   10 ------------------------
     Tr[ns( 10)] (up, down, total) =   5.00000  0.00000  5.00000
     Atomic magnetic moment for atom  10 =   5.00000
     SPIN  1
     eigenvalues:
       1.000  1.000  1.000  1.000  1.000
     eigenvectors (columns):
       1.000  0.000  0.000  0.000  0.000
       0.000  1.000  0.000  0.000  0.000
       0.000  0.000  1.000  0.000  0.000
       0.000  0.000  0.000  1.000  0.000
       0.000  0.000  0.000  0.000  1.000
     occupation matrix ns (before diag.):
       1.000  0.000  0.000  0.000  0.000
       0.000  1.000  0.000  0.000  0.000
       0.000  0.000  1.000  0.000  0.000
       0.000  0.000  0.000  1.000  0.000
       0.000  0.000  0.000  0.000  1.000
     SPIN  2
     eigenvalues:
       0.000  0.000  0.000  0.000  0.000
     eigenvectors (columns):
       1.000  0.000  0.000  0.000  0.000
       0.000  1.000  0.000  0.000  0.000
       0.000  0.000  1.000  0.000  0.000
       0.000  0.000  0.000  1.000  0.000
       0.000  0.000  0.000  0.000  1.000
     occupation matrix ns (before diag.):
       0.000  0.000  0.000  0.000  0.000
       0.000  0.000  0.000  0.000  0.000
       0.000  0.000  0.000  0.000  0.000
       0.000  0.000  0.000  0.000  0.000
       0.000  0.000  0.000  0.000  0.000

     Number of occupied Hubbard levels =   20.0000

     Atomic wfc used for Hubbard projectors are orthogonalized

     Starting wfcs are  168 atomic wfcs
     Checking if some PAW data can be deallocated... 

     total cpu time spent up to now is       33.6 secs

     Self-consistent Calculation

     iteration #  1     ecut=    90.00 Ry     beta= 0.50
     Davidson diagonalization with overlap
     ethr =  1.00E-05,  avg # of iterations =  9.5

     =================== HUBBARD OCCUPATIONS ===================
     ------------------------ ATOM    1 ------------------------
     Tr[ns(  1)] (up, down, total) =   3.42421  0.28299  3.70720
     Atomic magnetic moment for atom   1 =   3.14121
     SPIN  1
     eigenvalues:
       0.383  0.385  0.885  0.885  0.886
     eigenvectors (columns):
       0.001  0.000  0.421  0.027 -0.906
       0.504 -0.653 -0.420  0.330 -0.185
      -0.654 -0.503  0.293  0.460  0.149
      -0.343  0.450 -0.612  0.482 -0.271
      -0.448 -0.344 -0.430 -0.669 -0.221
     occupation matrix ns (before diag.):
       0.886 -0.000  0.000  0.001  0.001
      -0.000  0.544  0.001  0.234  0.001
       0.000  0.001  0.544  0.000 -0.234
       0.001  0.234  0.000  0.725  0.000
       0.001  0.001 -0.234  0.000  0.725
     SPIN  2
     eigenvalues:
       0.030  0.033  0.033  0.093  0.093
     eigenvectors (columns):
       1.000  0.016 -0.008  0.002  0.000
      -0.001  0.265  0.515  0.511 -0.635
      -0.009  0.516 -0.264 -0.635 -0.511
       0.001  0.372  0.725 -0.362  0.452
       0.015 -0.725  0.373 -0.451 -0.363
     occupation matrix ns (before diag.):
       0.030  0.000 -0.000 -0.000 -0.000
       0.000  0.073  0.000 -0.028  0.000
      -0.000  0.000  0.073 -0.000  0.028
      -0.000 -0.028 -0.000  0.053 -0.000
      -0.000  0.000  0.028 -0.000  0.053
     ------------------------ ATOM    2 ------------------------
     Tr[ns(  2)] (up, down, total) =   3.42421  0.28299  3.70720
     Atomic magnetic moment for atom   2 =   3.14121
     SPIN  1
     eigenvalues:
       0.383  0.385  0.885  0.885  0.886
     eigenvectors (columns):
       0.001  0.000  0.421  0.027 -0.906
       0.504 -0.653 -0.420  0.330 -0.185
       0.654  0.503 -0.293 -0.460 -0.149
      -0.343  0.450 -0.612  0.482 -0.271
       0.448  0.344  0.430  0.669  0.221
     occupation matrix ns (before diag.):
       0.886 -0.000 -0.000  0.001 -0.001
      -0.000  0.544 -0.001  0.234 -0.001
      -0.000 -0.001  0.544 -0.000 -0.234
       0.001  0.234 -0.000  0.725 -0.000
      -0.001 -0.001 -0.234 -0.000  0.725
     SPIN  2
     eigenvalues:
       0.030  0.033  0.033  0.093  0.093
     eigenvectors (columns):
      -1.000 -0.016 -0.008 -0.002 -0.000
       0.001 -0.265  0.515 -0.511  0.635
      -0.009  0.516  0.264 -0.635 -0.511
      -0.001 -0.372  0.725  0.362 -0.452
       0.015 -0.725 -0.373 -0.451 -0.363
     occupation matrix ns (before diag.):
       0.030  0.000  0.000 -0.000  0.000
       0.000  0.073 -0.000 -0.028 -0.000
       0.000 -0.000  0.073  0.000  0.028
      -0.000 -0.028  0.000  0.053  0.000
       0.000 -0.000  0.028  0.000  0.053
     ------------------------ ATOM    9 ------------------------
     Tr[ns(  9)] (up, down, total) =   3.42421  0.28299  3.70720
     Atomic magnetic moment for atom   9 =   3.14121
     SPIN  1
     eigenvalues:
       0.383  0.385  0.885  0.885  0.886
     eigenvectors (columns):
       0.001  0.000  0.421  0.028 -0.907
       0.504 -0.653 -0.420  0.331 -0.184
       0.654  0.503 -0.293 -0.459 -0.149
      -0.343  0.450 -0.612  0.482 -0.270
       0.448  0.344  0.431  0.668  0.221
     occupation matrix ns (before diag.):
       0.886 -0.000 -0.000  0.001 -0.001
      -0.000  0.544 -0.001  0.234 -0.001
      -0.000 -0.001  0.544 -0.000 -0.234
       0.001  0.234 -0.000  0.725 -0.000
      -0.001 -0.001 -0.234 -0.000  0.725
     SPIN  2
     eigenvalues:
       0.030  0.033  0.033  0.093  0.093
     eigenvectors (columns):
      -1.000 -0.016 -0.008 -0.002 -0.000
       0.001 -0.265  0.515 -0.512  0.634
      -0.009  0.515  0.264 -0.635 -0.512
      -0.001 -0.373  0.725  0.363 -0.452
       0.015 -0.724 -0.374 -0.451 -0.363
     occupation matrix ns (before diag.):
       0.030  0.000  0.000 -0.000  0.000
       0.000  0.073 -0.000 -0.028 -0.000
       0.000 -0.000  0.073  0.000  0.028
      -0.000 -0.028  0.000  0.053  0.000
       0.000 -0.000  0.028  0.000  0.053
     ------------------------ ATOM   10 ------------------------
     Tr[ns( 10)] (up, down, total) =   3.42421  0.28299  3.70720
     Atomic magnetic moment for atom  10 =   3.14121
     SPIN  1
     eigenvalues:
       0.383  0.385  0.885  0.885  0.886
     eigenvectors (columns):
       0.001  0.000  0.421  0.028 -0.907
       0.504 -0.653 -0.420  0.331 -0.184
      -0.654 -0.503  0.293  0.459  0.149
      -0.343  0.450 -0.612  0.482 -0.270
      -0.448 -0.344 -0.431 -0.668 -0.221
     occupation matrix ns (before diag.):
       0.886 -0.000  0.000  0.001  0.001
      -0.000  0.544  0.001  0.234  0.001
       0.000  0.001  0.544  0.000 -0.234
       0.001  0.234  0.000  0.725  0.000
       0.001  0.001 -0.234  0.000  0.725
     SPIN  2
     eigenvalues:
       0.030  0.033  0.033  0.093  0.093
     eigenvectors (columns):
       1.000  0.016 -0.008  0.002  0.000
      -0.001  0.265  0.515  0.512 -0.634
      -0.009  0.515 -0.264 -0.635 -0.512
       0.001  0.373  0.725 -0.363  0.452
       0.015 -0.724  0.374 -0.451 -0.363
     occupation matrix ns (before diag.):
       0.030  0.000 -0.000 -0.000 -0.000
       0.000  0.073  0.000 -0.028  0.000
      -0.000  0.000  0.073 -0.000  0.028
      -0.000 -0.028 -0.000  0.053 -0.000
      -0.000  0.000  0.028 -0.000  0.053

     Number of occupied Hubbard levels =   14.8288

     negative rho (up, down):  2.959E-02 3.292E-02

     total cpu time spent up to now is      198.0 secs

     total energy              =   -5538.09529518 Ry
     estimated scf accuracy    <       2.85719752 Ry

     total magnetization       =    12.00 Bohr mag/cell
     absolute magnetization    =    15.30 Bohr mag/cell

     iteration #  2     ecut=    90.00 Ry     beta= 0.50
     Davidson diagonalization with overlap
     ethr =  2.04E-03,  avg # of iterations =  4.5

     negative rho (up, down):  2.758E-02 3.081E-02

     total cpu time spent up to now is      261.6 secs

     total energy              =   -5536.58913720 Ry
     estimated scf accuracy    <      18.20667311 Ry

     total magnetization       =    12.00 Bohr mag/cell
     absolute magnetization    =    14.57 Bohr mag/cell

     iteration #  3     ecut=    90.00 Ry     beta= 0.50
     Davidson diagonalization with overlap
     ethr =  2.04E-03,  avg # of iterations =  2.4

     negative rho (up, down):  2.814E-02 3.349E-02

     total cpu time spent up to now is      310.0 secs

     total energy              =   -5539.43248909 Ry
     estimated scf accuracy    <       0.60077070 Ry

     total magnetization       =    12.00 Bohr mag/cell
     absolute magnetization    =    16.25 Bohr mag/cell

     iteration #  4     ecut=    90.00 Ry     beta= 0.50
     Davidson diagonalization with overlap
     ethr =  4.29E-04,  avg # of iterations =  2.1

     negative rho (up, down):  2.828E-02 3.518E-02

     total cpu time spent up to now is      352.8 secs

     total energy              =   -5539.47620046 Ry
     estimated scf accuracy    <       0.11606403 Ry

     total magnetization       =    12.00 Bohr mag/cell
     absolute magnetization    =    16.54 Bohr mag/cell

     iteration #  5     ecut=    90.00 Ry     beta= 0.50
     Davidson diagonalization with overlap
     ethr =  8.29E-05,  avg # of iterations =  4.7

     negative rho (up, down):  2.820E-02 3.569E-02

     total cpu time spent up to now is      409.8 secs

     total energy              =   -5539.48712843 Ry
     estimated scf accuracy    <       0.05815730 Ry

     total magnetization       =    12.00 Bohr mag/cell
     absolute magnetization    =    16.77 Bohr mag/cell

     iteration #  6     ecut=    90.00 Ry     beta= 0.50
     Davidson diagonalization with overlap
     ethr =  4.15E-05,  avg # of iterations =  5.6

     negative rho (up, down):  2.773E-02 3.585E-02

     total cpu time spent up to now is      463.0 secs

     total energy              =   -5539.49649977 Ry
     estimated scf accuracy    <       0.00200156 Ry

     total magnetization       =    12.00 Bohr mag/cell
     absolute magnetization    =    16.85 Bohr mag/cell

     iteration #  7     ecut=    90.00 Ry     beta= 0.50
     Davidson diagonalization with overlap
     c_bands:  1 eigenvalues not converged
     ethr =  1.43E-06,  avg # of iterations =  7.5

     negative rho (up, down):  2.711E-02 3.616E-02

     total cpu time spent up to now is      549.3 secs

     total energy              =   -5539.49784294 Ry
     estimated scf accuracy    <       0.00258955 Ry

     total magnetization       =    12.00 Bohr mag/cell
     absolute magnetization    =    17.01 Bohr mag/cell

     iteration #  8     ecut=    90.00 Ry     beta= 0.50
     Davidson diagonalization with overlap
     ethr =  1.43E-06,  avg # of iterations =  2.0

     negative rho (up, down):  2.712E-02 3.623E-02

     total cpu time spent up to now is      591.8 secs

     total energy              =   -5539.49782501 Ry
     estimated scf accuracy    <       0.00070300 Ry

     total magnetization       =    12.00 Bohr mag/cell
     absolute magnetization    =    17.12 Bohr mag/cell

     iteration #  9     ecut=    90.00 Ry     beta= 0.50
     Davidson diagonalization with overlap
     ethr =  5.02E-07,  avg # of iterations =  1.4

     negative rho (up, down):  2.711E-02 3.625E-02

     total cpu time spent up to now is      632.3 secs

     total energy              =   -5539.49788956 Ry
     estimated scf accuracy    <       0.00005143 Ry

     total magnetization       =    12.00 Bohr mag/cell
     absolute magnetization    =    17.09 Bohr mag/cell

     iteration # 10     ecut=    90.00 Ry     beta= 0.50
     Davidson diagonalization with overlap
     ethr =  3.67E-08,  avg # of iterations =  3.1

     negative rho (up, down):  2.708E-02 3.628E-02

     total cpu time spent up to now is      686.6 secs

     total energy              =   -5539.49791616 Ry
     estimated scf accuracy    <       0.00002205 Ry

     total magnetization       =    12.00 Bohr mag/cell
     absolute magnetization    =    17.08 Bohr mag/cell

     iteration # 11     ecut=    90.00 Ry     beta= 0.50
     Davidson diagonalization with overlap
     ethr =  1.57E-08,  avg # of iterations =  1.9

     negative rho (up, down):  2.700E-02 3.631E-02

     total cpu time spent up to now is      728.4 secs

     total energy              =   -5539.49792183 Ry
     estimated scf accuracy    <       0.00000527 Ry

     total magnetization       =    12.00 Bohr mag/cell
     absolute magnetization    =    17.08 Bohr mag/cell

     iteration # 12     ecut=    90.00 Ry     beta= 0.50
     Davidson diagonalization with overlap
     ethr =  3.76E-09,  avg # of iterations =  3.0

     negative rho (up, down):  2.697E-02 3.633E-02

     total cpu time spent up to now is      778.6 secs

     total energy              =   -5539.49792293 Ry
     estimated scf accuracy    <       0.00000623 Ry

     total magnetization       =    12.00 Bohr mag/cell
     absolute magnetization    =    17.09 Bohr mag/cell

     iteration # 13     ecut=    90.00 Ry     beta= 0.50
     Davidson diagonalization with overlap
     ethr =  3.76E-09,  avg # of iterations =  1.7

     negative rho (up, down):  2.695E-02 3.634E-02

     total cpu time spent up to now is      820.3 secs

     total energy              =   -5539.49792389 Ry
     estimated scf accuracy    <       0.00000126 Ry

     total magnetization       =    12.00 Bohr mag/cell
     absolute magnetization    =    17.10 Bohr mag/cell

     iteration # 14     ecut=    90.00 Ry     beta= 0.50
     Davidson diagonalization with overlap
     ethr =  9.03E-10,  avg # of iterations =  2.5

     negative rho (up, down):  2.694E-02 3.635E-02

     total cpu time spent up to now is      869.1 secs

     total energy              =   -5539.49792422 Ry
     estimated scf accuracy    <       0.00000003 Ry

     total magnetization       =    12.00 Bohr mag/cell
     absolute magnetization    =    17.10 Bohr mag/cell

     iteration # 15     ecut=    90.00 Ry     beta= 0.50
     Davidson diagonalization with overlap
     ethr =  1.80E-11,  avg # of iterations =  4.3

     negative rho (up, down):  2.694E-02 3.635E-02

     total cpu time spent up to now is      937.6 secs

     total energy              =   -5539.49792425 Ry
     estimated scf accuracy    <          8.7E-09 Ry

     total magnetization       =    12.00 Bohr mag/cell
     absolute magnetization    =    17.10 Bohr mag/cell

     iteration # 16     ecut=    90.00 Ry     beta= 0.50
     Davidson diagonalization with overlap
     ethr =  6.24E-12,  avg # of iterations =  2.3

     negative rho (up, down):  2.694E-02 3.635E-02

     total cpu time spent up to now is      986.9 secs

     total energy              =   -5539.49792425 Ry
     estimated scf accuracy    <          3.4E-09 Ry

     total magnetization       =    12.00 Bohr mag/cell
     absolute magnetization    =    17.10 Bohr mag/cell

     iteration # 17     ecut=    90.00 Ry     beta= 0.50
     Davidson diagonalization with overlap
     ethr =  2.44E-12,  avg # of iterations =  1.9

     negative rho (up, down):  2.694E-02 3.635E-02

     total cpu time spent up to now is     1030.5 secs

     total energy              =   -5539.49792426 Ry
     estimated scf accuracy    <          1.8E-10 Ry

     total magnetization       =    12.00 Bohr mag/cell
     absolute magnetization    =    17.10 Bohr mag/cell

     iteration # 18     ecut=    90.00 Ry     beta= 0.50
     Davidson diagonalization with overlap
     ethr =  1.27E-13,  avg # of iterations =  3.5

     negative rho (up, down):  2.694E-02 3.635E-02

     total cpu time spent up to now is     1087.8 secs

     total energy              =   -5539.49792426 Ry
     estimated scf accuracy    <          6.1E-11 Ry

     total magnetization       =    12.00 Bohr mag/cell
     absolute magnetization    =    17.10 Bohr mag/cell

     iteration # 19     ecut=    90.00 Ry     beta= 0.50
     Davidson diagonalization with overlap
     ethr =  1.00E-13,  avg # of iterations =  1.8

     negative rho (up, down):  2.694E-02 3.635E-02

     total cpu time spent up to now is     1131.5 secs

     total energy              =   -5539.49792426 Ry
     estimated scf accuracy    <          3.1E-11 Ry

     total magnetization       =    12.00 Bohr mag/cell
     absolute magnetization    =    17.10 Bohr mag/cell

     iteration # 20     ecut=    90.00 Ry     beta= 0.50
     Davidson diagonalization with overlap
     ethr =  1.00E-13,  avg # of iterations =  1.0

     negative rho (up, down):  2.694E-02 3.635E-02

     total cpu time spent up to now is     1171.5 secs

     total energy              =   -5539.49792426 Ry
     estimated scf accuracy    <          2.3E-11 Ry

     total magnetization       =    12.00 Bohr mag/cell
     absolute magnetization    =    17.10 Bohr mag/cell

     iteration # 21     ecut=    90.00 Ry     beta= 0.50
     Davidson diagonalization with overlap
     ethr =  1.00E-13,  avg # of iterations =  1.0

     negative rho (up, down):  2.694E-02 3.635E-02

     Magnetic moment per site  (integrated on atomic sphere of radius R)
     atom   1 (R=0.162)  charge= 12.3690  magn=  3.3152
     atom   2 (R=0.162)  charge= 12.3690  magn=  3.3152
     atom   3 (R=0.162)  charge=  4.0499  magn= -0.1371
     atom   4 (R=0.162)  charge=  4.0507  magn= -0.1385
     atom   5 (R=0.162)  charge=  4.0507  magn= -0.1385
     atom   6 (R=0.162)  charge=  4.0523  magn= -0.1348
     atom   7 (R=0.162)  charge=  4.0521  magn= -0.1359
     atom   8 (R=0.162)  charge=  4.0521  magn= -0.1359
     atom   9 (R=0.162)  charge= 12.3689  magn=  3.3152
     atom  10 (R=0.162)  charge= 12.3689  magn=  3.3152
     atom  11 (R=0.162)  charge=  4.0522  magn= -0.1348
     atom  12 (R=0.162)  charge=  4.0520  magn= -0.1359
     atom  13 (R=0.162)  charge=  4.0520  magn= -0.1359
     atom  14 (R=0.162)  charge=  4.0498  magn= -0.1371
     atom  15 (R=0.162)  charge=  4.0507  magn= -0.1385
     atom  16 (R=0.162)  charge=  4.0507  magn= -0.1385

     total cpu time spent up to now is     1211.3 secs

     End of self-consistent calculation

     =================== HUBBARD OCCUPATIONS ===================
     ------------------------ ATOM    1 ------------------------
     Tr[ns(  1)] (up, down, total) =   3.75887  0.48575  4.24462
     Atomic magnetic moment for atom   1 =   3.27312
     SPIN  1
     eigenvalues:
       0.505  0.509  0.914  0.914  0.917
     eigenvectors (columns):
      -0.003 -0.000 -0.060  0.004  0.998
      -0.411  0.706  0.450  0.360  0.025
       0.707  0.409 -0.357  0.452 -0.021
       0.287 -0.500  0.638  0.509  0.037
       0.498  0.290  0.510 -0.638  0.035
     occupation matrix ns (before diag.):
       0.917 -0.000  0.001  0.000  0.001
      -0.000  0.643  0.002  0.191  0.001
       0.001  0.002  0.642 -0.000 -0.192
       0.000  0.191 -0.000  0.779  0.000
       0.001  0.001 -0.192  0.000  0.778
     SPIN  2
     eigenvalues:
       0.040  0.043  0.044  0.179  0.180
     eigenvectors (columns):
       1.000  0.027 -0.013 -0.002 -0.001
      -0.002  0.271  0.503 -0.577  0.583
      -0.016  0.504 -0.269  0.584  0.576
      -0.000  0.388  0.723  0.400 -0.408
       0.026 -0.722  0.389  0.407  0.402
     occupation matrix ns (before diag.):
       0.040  0.000 -0.000 -0.000 -0.000
       0.000  0.135 -0.000 -0.064  0.000
      -0.000 -0.000  0.135 -0.000  0.064
      -0.000 -0.064 -0.000  0.088 -0.000
      -0.000  0.000  0.064 -0.000  0.088
     ------------------------ ATOM    2 ------------------------
     Tr[ns(  2)] (up, down, total) =   3.75887  0.48575  4.24462
     Atomic magnetic moment for atom   2 =   3.27312
     SPIN  1
     eigenvalues:
       0.505  0.509  0.914  0.914  0.917
     eigenvectors (columns):
      -0.003 -0.000 -0.060  0.004  0.998
      -0.411  0.706  0.450  0.360  0.025
      -0.707 -0.409  0.357 -0.452  0.021
       0.287 -0.500  0.638  0.509  0.037
      -0.498 -0.290 -0.510  0.638 -0.035
     occupation matrix ns (before diag.):
       0.917 -0.000 -0.001  0.000 -0.001
      -0.000  0.643 -0.002  0.191 -0.001
      -0.001 -0.002  0.642  0.000 -0.192
       0.000  0.191  0.000  0.779 -0.000
      -0.001 -0.001 -0.192 -0.000  0.778
     SPIN  2
     eigenvalues:
       0.040  0.043  0.044  0.179  0.180
     eigenvectors (columns):
      -1.000 -0.027 -0.013  0.002  0.001
       0.002 -0.271  0.503  0.577 -0.583
      -0.016  0.504  0.269  0.584  0.576
       0.000 -0.388  0.723 -0.400  0.408
       0.026 -0.722 -0.389  0.407  0.402
     occupation matrix ns (before diag.):
       0.040  0.000  0.000 -0.000  0.000
       0.000  0.135  0.000 -0.064 -0.000
       0.000  0.000  0.135  0.000  0.064
      -0.000 -0.064  0.000  0.088  0.000
       0.000 -0.000  0.064  0.000  0.088
     ------------------------ ATOM    9 ------------------------
     Tr[ns(  9)] (up, down, total) =   3.75887  0.48575  4.24462
     Atomic magnetic moment for atom   9 =   3.27312
     SPIN  1
     eigenvalues:
       0.505  0.509  0.914  0.914  0.917
     eigenvectors (columns):
      -0.003 -0.000 -0.060  0.005  0.998
      -0.411  0.706  0.451  0.359  0.025
      -0.707 -0.409  0.356 -0.453  0.021
       0.287 -0.500  0.639  0.507  0.037
      -0.498 -0.290 -0.508  0.639 -0.035
     occupation matrix ns (before diag.):
       0.917 -0.000 -0.001  0.000 -0.001
      -0.000  0.643 -0.002  0.191 -0.001
      -0.001 -0.002  0.642  0.000 -0.192
       0.000  0.191  0.000  0.779 -0.000
      -0.001 -0.001 -0.192 -0.000  0.778
     SPIN  2
     eigenvalues:
       0.040  0.043  0.044  0.179  0.180
     eigenvectors (columns):
      -1.000 -0.027 -0.013  0.002  0.001
       0.002 -0.272  0.503  0.578 -0.583
      -0.016  0.503  0.270  0.583  0.577
       0.000 -0.390  0.722 -0.401  0.407
       0.026 -0.721 -0.391  0.406  0.402
     occupation matrix ns (before diag.):
       0.040  0.000  0.000 -0.000  0.000
       0.000  0.135  0.000 -0.064 -0.000
       0.000  0.000  0.135  0.000  0.064
      -0.000 -0.064  0.000  0.088  0.000
       0.000 -0.000  0.064  0.000  0.088
     ------------------------ ATOM   10 ------------------------
     Tr[ns( 10)] (up, down, total) =   3.75887  0.48575  4.24462
     Atomic magnetic moment for atom  10 =   3.27312
     SPIN  1
     eigenvalues:
       0.505  0.509  0.914  0.914  0.917
     eigenvectors (columns):
      -0.003 -0.000 -0.060  0.005  0.998
      -0.411  0.706  0.451  0.359  0.025
       0.707  0.409 -0.356  0.453 -0.021
       0.287 -0.500  0.639  0.507  0.037
       0.498  0.290  0.508 -0.639  0.035
     occupation matrix ns (before diag.):
       0.917 -0.000  0.001  0.000  0.001
      -0.000  0.643  0.002  0.191  0.001
       0.001  0.002  0.642 -0.000 -0.192
       0.000  0.191 -0.000  0.779  0.000
       0.001  0.001 -0.192  0.000  0.778
     SPIN  2
     eigenvalues:
       0.040  0.043  0.044  0.179  0.180
     eigenvectors (columns):
       1.000  0.027 -0.013 -0.002 -0.001
      -0.002  0.272  0.503 -0.578  0.583
      -0.016  0.503 -0.270  0.583  0.577
      -0.000  0.390  0.722  0.401 -0.407
       0.026 -0.721  0.391  0.406  0.402
     occupation matrix ns (before diag.):
       0.040  0.000 -0.000 -0.000 -0.000
       0.000  0.135 -0.000 -0.064  0.000
      -0.000 -0.000  0.135 -0.000  0.064
      -0.000 -0.064 -0.000  0.088 -0.000
      -0.000  0.000  0.064 -0.000  0.088

     Number of occupied Hubbard levels =   16.9785

 ------ SPIN UP ------------


          k = 0.0000 0.0000 0.0000 (109591 PWs)   bands (ev):

   -78.7569 -78.7569 -78.7558 -78.7558 -50.0893 -50.0893 -50.0880 -50.0880
   -50.0861 -50.0861 -50.0855 -50.0855 -50.0830 -50.0830 -50.0825 -50.0825
   -18.5817 -18.4928 -17.7417 -17.6160 -17.4313 -17.4301 -17.4276 -17.4253
   -17.2794 -17.2788 -17.2762 -17.2748 -10.4962 -10.4958 -10.3315 -10.0007
    -9.7360  -9.7323  -9.6835  -9.6807  -9.6789  -9.6771  -9.6468  -9.6454
    -8.8451  -8.8430  -8.7587  -8.6924  -8.6518  -8.6336  -8.6019  -8.6001
    -8.4439  -8.4438  -8.1689  -8.1489  -8.1412  -8.1284  -7.8988  -7.8943
    -7.8620  -7.8592  -7.4274  -7.3804  -7.3570  -7.3347  -7.2734  -7.1304
    -7.1130  -7.0819  -6.8728  -6.3849  -6.3840  -6.2553  -6.2541  -6.0768
    -5.7488  -5.7334  -5.6928  -5.6757  -4.5994  -4.5974  -4.5474  -4.5226
    -4.1374  -4.1074  -4.0912  -4.0582  -0.8286  -0.8268  -0.6223  -0.1956
    -0.0518  -0.0415   0.6191   0.6219   0.8807   0.9116   1.2653   1.3066
     1.4159   1.4944   1.7924   1.9304

          k = 0.0000 0.1925 0.0000 (109722 PWs)   bands (ev):

   -78.7569 -78.7569 -78.7558 -78.7558 -50.0893 -50.0893 -50.0880 -50.0880
   -50.0861 -50.0861 -50.0854 -50.0854 -50.0833 -50.0833 -50.0824 -50.0824
   -18.5212 -18.4339 -17.7076 -17.5867 -17.5206 -17.5030 -17.4573 -17.4494
   -17.2992 -17.2954 -17.2784 -17.2738 -10.4681 -10.4543 -10.2771  -9.9831
    -9.8450  -9.8011  -9.7646  -9.7358  -9.5733  -9.5589  -9.5213  -9.5156
    -8.8691  -8.8519  -8.7373  -8.6860  -8.6657  -8.6238  -8.5937  -8.5558
    -8.4874  -8.4836  -8.1328  -8.1216  -8.1085  -8.0617  -8.0360  -7.9901
    -7.8660  -7.8114  -7.4218  -7.3650  -7.3101  -7.2618  -7.2118  -7.0543
    -7.0035  -6.9974  -6.7581  -6.4213  -6.3500  -6.3481  -6.2344  -6.1488
    -6.0111  -5.8640  -5.8142  -5.7310  -4.6298  -4.5906  -4.5282  -4.4561
    -4.2947  -4.2615  -4.1762  -4.1020  -0.8274  -0.7435  -0.2863   0.1435
     0.2318   0.3098   0.4245   0.4757   0.8114   1.0279   1.1716   1.3142
     1.5006   1.5870   1.6510   1.8229

          k = 0.0000 0.3849 0.0000 (109616 PWs)   bands (ev):

   -78.7569 -78.7569 -78.7558 -78.7558 -50.0892 -50.0892 -50.0881 -50.0881
   -50.0861 -50.0861 -50.0851 -50.0851 -50.0837 -50.0837 -50.0823 -50.0823
   -18.3569 -18.2740 -17.7362 -17.6971 -17.6173 -17.5156 -17.4987 -17.4861
   -17.3612 -17.3276 -17.3018 -17.2960 -10.4791 -10.4041 -10.1169  -9.9217
    -9.8614  -9.7785  -9.6741  -9.6307  -9.4870  -9.4476  -9.4144  -9.3672
    -8.9541  -8.9114  -8.8697  -8.8001  -8.7803  -8.7296  -8.5456  -8.5102
    -8.4568  -8.4347  -8.3130  -8.2399  -8.1185  -8.0757  -7.8297  -7.8070
    -7.7975  -7.6491  -7.5095  -7.3945  -7.3689  -7.1933  -7.0532  -6.9347
    -6.8643  -6.7836  -6.5787  -6.4662  -6.4399  -6.4330  -6.4163  -6.3163
    -6.3136  -5.9509  -5.9448  -5.7674  -4.6195  -4.6151  -4.5129  -4.4498
    -4.3371  -4.3253  -4.2944  -4.2400  -1.0809  -0.7146  -0.0354  -0.0048
     0.4144   0.4439   0.7088   0.8858   0.9192   0.9765   1.0293   1.0357
     1.3066   1.3271   1.4448   1.4664

          k = 0.0000-0.5774 0.0000 (109602 PWs)   bands (ev):

   -78.7569 -78.7569 -78.7558 -78.7558 -50.0892 -50.0892 -50.0881 -50.0881
   -50.0861 -50.0861 -50.0848 -50.0847 -50.0841 -50.0841 -50.0823 -50.0823
   -18.2056 -18.1247 -17.9112 -17.8631 -17.5329 -17.5294 -17.5041 -17.4322
   -17.4305 -17.3759 -17.3236 -17.3062 -10.5112 -10.4137  -9.9919  -9.8501
    -9.8141  -9.7819  -9.5082  -9.5069  -9.3586  -9.3582  -9.3558  -9.2627
    -9.0952  -9.0321  -9.0320  -9.0190  -8.8552  -8.7934  -8.5129  -8.4874
    -8.4322  -8.4029  -8.3823  -8.3130  -8.1531  -8.0890  -7.8234  -7.5900
    -7.5847  -7.5817  -7.5278  -7.5003  -7.3520  -7.3277  -6.9685  -6.9046
    -6.8661  -6.6479  -6.6393  -6.6080  -6.5327  -6.4580  -6.3941  -6.3222
    -6.1435  -6.0719  -6.0356  -5.6954  -4.6287  -4.6209  -4.5124  -4.4194
    -4.3706  -4.3400  -4.3014  -4.2142  -1.3255  -0.9105  -0.0068   0.0631
     0.0676   0.4062   0.5993   0.6304   0.8549   1.1259   1.1302   1.1375
     1.3108   1.3292   1.4198   1.4280

          k = 0.1667 0.2887 0.0000 (109615 PWs)   bands (ev):

   -78.7569 -78.7569 -78.7558 -78.7558 -50.0892 -50.0892 -50.0881 -50.0880
   -50.0861 -50.0860 -50.0853 -50.0851 -50.0836 -50.0834 -50.0824 -50.0823
   -18.4068 -18.3237 -17.6580 -17.6459 -17.6298 -17.5328 -17.5088 -17.4969
   -17.3349 -17.3201 -17.2900 -17.2859 -10.4124 -10.3561 -10.1970 -10.0302
    -9.9381  -9.8280  -9.6489  -9.6066  -9.5395  -9.5091  -9.4320  -9.3813
    -8.8986  -8.8799  -8.8588  -8.8312  -8.6244  -8.5938  -8.5721  -8.5392
    -8.5047  -8.4930  -8.2857  -8.2313  -8.0540  -8.0260  -7.9799  -7.9697
    -7.7149  -7.6648  -7.5295  -7.4946  -7.1916  -7.1310  -7.1068  -6.9899
    -6.9287  -6.8829  -6.6169  -6.4479  -6.4238  -6.3838  -6.3510  -6.2840
    -6.2377  -5.9188  -5.8931  -5.8206  -4.6324  -4.5942  -4.5337  -4.4639
    -4.3809  -4.3589  -4.1987  -4.1289  -0.9028  -0.6953  -0.2777  -0.1048
     0.3510   0.4952   0.5847   0.7349   1.0044   1.0454   1.0887   1.2322
     1.3315   1.4353   1.5168   1.5477

          k = 0.1667 0.4811 0.0000 (109606 PWs)   bands (ev):

   -78.7569 -78.7569 -78.7559 -78.7558 -50.0892 -50.0892 -50.0881 -50.0881
   -50.0861 -50.0860 -50.0849 -50.0847 -50.0841 -50.0839 -50.0823 -50.0823
   -18.2190 -18.1407 -17.8630 -17.8268 -17.5669 -17.5518 -17.5384 -17.4470
   -17.4024 -17.3644 -17.3170 -17.3043 -10.3698 -10.2831 -10.0268  -9.9936
    -9.8821  -9.8217  -9.5473  -9.4942  -9.4791  -9.4477  -9.3630  -9.2923
    -9.0745  -9.0229  -8.8605  -8.8416  -8.8140  -8.7895  -8.5305  -8.4967
    -8.4622  -8.4455  -8.4288  -8.3816  -8.0711  -7.9884  -7.9215  -7.8089
    -7.7466  -7.6409  -7.4154  -7.3682  -7.1854  -7.1736  -7.0127  -6.9732
    -6.9338  -6.7845  -6.6533  -6.5610  -6.5132  -6.4369  -6.3161  -6.3036
    -6.1908  -6.0388  -5.9723  -5.7455  -4.6496  -4.5585  -4.5138  -4.4130
    -4.3448  -4.2971  -4.2204  -4.1838  -1.1543  -0.8247  -0.5798  -0.3617
     0.1984   0.4046   0.5217   0.6141   0.7887   0.8058   0.8365   1.0360
     1.1119   1.2144   1.3318   1.4372

          k = 0.3333 0.5774 0.0000 (109542 PWs)   bands (ev):

   -78.7569 -78.7569 -78.7559 -78.7559 -50.0892 -50.0892 -50.0881 -50.0881
   -50.0861 -50.0861 -50.0848 -50.0848 -50.0839 -50.0839 -50.0824 -50.0824
   -18.0427 -18.0216 -17.9788 -17.9680 -17.6169 -17.5929 -17.4699 -17.4521
   -17.4075 -17.3818 -17.3338 -17.3140 -10.0608 -10.0588 -10.0508  -9.9991
    -9.9978  -9.9680  -9.6253  -9.5901  -9.4893  -9.4573  -9.2157  -9.2135
    -9.1706  -9.1228  -8.8122  -8.8092  -8.7978  -8.6994  -8.5805  -8.5776
    -8.5308  -8.5175  -8.4122  -8.4003  -8.0647  -7.9472  -7.9096  -7.8194
    -7.8083  -7.8045  -7.2349  -7.2209  -7.1599  -7.0757  -7.0254  -6.9938
    -6.9337  -6.9261  -6.7793  -6.6219  -6.4457  -6.3847  -6.3048  -6.3043
    -6.1032  -6.0566  -5.9252  -5.7801  -4.6403  -4.5023  -4.4966  -4.3282
    -4.3207  -4.2953  -4.1732  -4.0984  -1.0665  -0.9990  -0.8077  -0.7472
     0.1217   0.1960   0.2169   0.4178   0.4540   0.5901   0.7746   0.8135
     0.9583   1.0632   1.2076   1.2343

          k =-0.1667 0.0962 0.0000 (109722 PWs)   bands (ev):

   -78.7569 -78.7569 -78.7558 -78.7558 -50.0893 -50.0893 -50.0880 -50.0880
   -50.0861 -50.0860 -50.0855 -50.0854 -50.0832 -50.0831 -50.0826 -50.0825
   -18.5207 -18.4340 -17.7074 -17.5872 -17.5281 -17.4993 -17.4590 -17.4446
   -17.3025 -17.2921 -17.2768 -17.2749 -10.4956 -10.4228 -10.2774  -9.9850
    -9.8395  -9.8041  -9.7657  -9.7397  -9.5861  -9.5476  -9.5352  -9.4998
    -8.8847  -8.8306  -8.7289  -8.7156  -8.6539  -8.5987  -8.5883  -8.5796
    -8.4864  -8.4787  -8.1694  -8.1328  -8.1018  -8.0843  -8.0023  -7.9585
    -7.8745  -7.8080  -7.4437  -7.3591  -7.3147  -7.2617  -7.1755  -7.0926
    -7.0242  -6.9488  -6.7535  -6.4327  -6.4193  -6.2847  -6.2322  -6.1614
    -5.9921  -5.8654  -5.8044  -5.7473  -4.6344  -4.5988  -4.5032  -4.4668
    -4.3001  -4.2504  -4.1707  -4.1123  -0.9159  -0.6307  -0.2900   0.0597
     0.2381   0.3624   0.4417   0.4845   0.7852   1.0634   1.1143   1.3255
     1.4434   1.6135   1.7190   1.8248

          k =-0.3333 0.1925 0.0000 (109616 PWs)   bands (ev):

   -78.7569 -78.7569 -78.7558 -78.7558 -50.0892 -50.0892 -50.0880 -50.0880
   -50.0861 -50.0859 -50.0855 -50.0851 -50.0836 -50.0832 -50.0826 -50.0824
   -18.3531 -18.2753 -17.7460 -17.6963 -17.6139 -17.5172 -17.4999 -17.4818
   -17.3643 -17.3201 -17.3077 -17.2928 -10.4896 -10.3913 -10.1160  -9.9164
    -9.8474  -9.7861  -9.6729  -9.6532  -9.5120  -9.4288  -9.4120  -9.3546
    -8.9430  -8.9158  -8.8820  -8.8382  -8.7463  -8.7126  -8.5289  -8.5191
    -8.4715  -8.4286  -8.3295  -8.2310  -8.1280  -8.0657  -7.8230  -7.8131
    -7.7828  -7.6878  -7.4912  -7.4225  -7.3223  -7.2434  -6.9988  -6.9470
    -6.8717  -6.7471  -6.6140  -6.4949  -6.4742  -6.4332  -6.4054  -6.2927
    -6.2549  -5.9474  -5.8939  -5.8704  -4.6499  -4.5847  -4.4436  -4.4166
    -4.3810  -4.3412  -4.3250  -4.2290  -1.1415  -0.6538  -0.1099   0.0650
     0.3530   0.5040   0.7528   0.8390   0.9210   0.9669   1.0333   1.1275
     1.2510   1.2892   1.3914   1.4885

          k = 0.5000-0.2887 0.0000 (109602 PWs)   bands (ev):

   -78.7569 -78.7569 -78.7558 -78.7558 -50.0892 -50.0892 -50.0881 -50.0880
   -50.0861 -50.0859 -50.0854 -50.0849 -50.0838 -50.0833 -50.0826 -50.0824
   -18.1829 -18.1438 -17.9113 -17.8728 -17.5294 -17.5174 -17.4973 -17.4797
   -17.3998 -17.3729 -17.3298 -17.3024 -10.5117 -10.4147  -9.9611  -9.8882
    -9.8012  -9.7687  -9.5732  -9.4600  -9.3646  -9.3643  -9.3513  -9.2557
    -9.1028  -9.0758  -9.0011  -8.9950  -8.8282  -8.8183  -8.4998  -8.4892
    -8.4508  -8.4074  -8.3672  -8.3196  -8.1612  -8.0738  -7.7779  -7.7128
    -7.5911  -7.5816  -7.5019  -7.4183  -7.3826  -7.3369  -7.0120  -6.9439
    -6.7126  -6.7023  -6.6441  -6.5869  -6.5302  -6.5000  -6.3851  -6.3055
    -6.1140  -6.0937  -5.9350  -5.8502  -4.6428  -4.5599  -4.4737  -4.4034
    -4.3773  -4.3626  -4.2943  -4.2500  -1.3786  -0.8807   0.0010   0.0392
     0.0840   0.4152   0.6275   0.6619   0.7707   1.0813   1.1760   1.2187
     1.2963   1.2999   1.3860   1.5367

          k = 0.3333 0.0000 0.0000 (109615 PWs)   bands (ev):

   -78.7569 -78.7569 -78.7558 -78.7558 -50.0893 -50.0892 -50.0880 -50.0880
   -50.0860 -50.0860 -50.0853 -50.0853 -50.0833 -50.0832 -50.0825 -50.0825
   -18.4053 -18.3238 -17.6715 -17.6447 -17.6209 -17.5408 -17.5070 -17.4886
   -17.3433 -17.3096 -17.2941 -17.2841 -10.4375 -10.3228 -10.1968 -10.0511
    -9.9031  -9.8374  -9.6817  -9.5846  -9.5423  -9.4964  -9.4661  -9.3566
    -8.8893  -8.8822  -8.8718  -8.8297  -8.6097  -8.5902  -8.5707  -8.5493
    -8.5000  -8.4922  -8.3278  -8.2106  -8.0652  -8.0210  -7.9774  -7.9590
    -7.7356  -7.6228  -7.5901  -7.4493  -7.2078  -7.1328  -7.0744  -6.9852
    -6.9634  -6.8575  -6.6259  -6.4800  -6.4286  -6.3853  -6.3592  -6.2713
    -6.1830  -5.9219  -5.8936  -5.8510  -4.6447  -4.5999  -4.4789  -4.4645
    -4.3842  -4.3755  -4.2089  -4.1242  -0.9889  -0.5211  -0.3921  -0.1045
     0.3515   0.4930   0.6377   0.7368   0.9186   1.0162   1.1250   1.2674
     1.3289   1.4800   1.4888   1.6333

          k =-0.3333 0.3849 0.0000 (109606 PWs)   bands (ev):

   -78.7569 -78.7569 -78.7559 -78.7558 -50.0892 -50.0892 -50.0881 -50.0881
   -50.0861 -50.0860 -50.0852 -50.0848 -50.0839 -50.0835 -50.0825 -50.0823
   -18.2113 -18.1460 -17.8686 -17.8271 -17.5688 -17.5450 -17.5363 -17.4582
   -17.3978 -17.3591 -17.3229 -17.3009 -10.3725 -10.2810 -10.0405  -9.9540
    -9.9050  -9.8127  -9.5734  -9.5030  -9.4768  -9.4355  -9.3527  -9.2957
    -9.0668  -9.0343  -8.8667  -8.8479  -8.7978  -8.7734  -8.5556  -8.4866
    -8.4577  -8.4463  -8.4234  -8.3892  -8.0812  -7.9754  -7.9313  -7.7911
    -7.7403  -7.6493  -7.4451  -7.3504  -7.2399  -7.1049  -7.0588  -6.9855
    -6.8567  -6.8244  -6.6387  -6.5487  -6.5235  -6.4351  -6.3308  -6.2837
    -6.2125  -5.9906  -5.9270  -5.8492  -4.6270  -4.5775  -4.4928  -4.3756
    -4.3397  -4.3097  -4.2625  -4.1741  -1.2006  -0.7931  -0.5582  -0.3704
     0.1684   0.4393   0.5377   0.6136   0.7320   0.8079   0.8670   1.0643
     1.0947   1.2168   1.3052   1.3941

          k = 0.5000 0.0962 0.0000 (109606 PWs)   bands (ev):

   -78.7569 -78.7569 -78.7559 -78.7558 -50.0892 -50.0892 -50.0881 -50.0881
   -50.0861 -50.0860 -50.0852 -50.0850 -50.0837 -50.0834 -50.0825 -50.0824
   -18.2094 -18.1452 -17.8801 -17.8191 -17.5709 -17.5528 -17.5242 -17.4560
   -17.4093 -17.3435 -17.3318 -17.2997 -10.3768 -10.2776 -10.0441  -9.9642
    -9.8743  -9.8150  -9.6011  -9.5123  -9.4551  -9.4354  -9.3679  -9.2588
    -9.0883  -9.0403  -8.8657  -8.8285  -8.8114  -8.7768  -8.5209  -8.5025
    -8.4660  -8.4554  -8.4455  -8.3632  -8.0817  -7.9775  -7.9281  -7.8228
    -7.7382  -7.6141  -7.4575  -7.3214  -7.2510  -7.1299  -7.0582  -6.9641
    -6.9035  -6.7418  -6.7158  -6.5372  -6.4785  -6.4296  -6.4040  -6.2699
    -6.1268  -6.0241  -5.9373  -5.8706  -4.6294  -4.5540  -4.4639  -4.4190
    -4.3657  -4.2805  -4.2556  -4.1804  -1.2129  -0.7758  -0.5588  -0.3918
     0.1581   0.4344   0.5564   0.6764   0.7213   0.7847   0.8303   0.9875
     1.2009   1.3091   1.3192   1.3809

 ------ SPIN DOWN ----------


          k = 0.0000 0.0000 0.0000 (109591 PWs)   bands (ev):

   -75.2838 -75.2838 -75.2827 -75.2827 -46.6782 -46.6782 -46.6766 -46.6766
   -46.6641 -46.6641 -46.6632 -46.6632 -46.6591 -46.6591 -46.6582 -46.6582
   -18.6575 -18.5645 -17.8761 -17.7516 -17.5422 -17.5413 -17.5379 -17.5357
   -17.3586 -17.3582 -17.3550 -17.3539 -10.0714 -10.0710  -9.7059  -9.2071
    -9.0507  -9.0247  -9.0119  -8.9585  -8.8498  -8.7811  -8.7776  -8.7344
    -8.6448  -8.6442  -7.9884  -7.9291  -7.5890  -7.5559  -7.5136  -7.5023
    -7.4010  -7.3395  -7.2132  -7.2123  -7.1924  -7.0569  -6.9318  -6.3679
    -6.3429  -6.3127  -6.3043  -6.2145  -5.9136  -5.9104  -5.8502  -5.8463
    -2.2114  -2.2095  -2.1297  -2.1276  -2.1271  -2.1262  -2.0865  -2.0622
    -1.9346  -1.9284  -1.8497  -1.8068  -1.6563  -1.6539  -1.5859  -1.5835
    -1.4974  -1.4952  -1.4623  -1.4586  -0.2575  -0.0081   0.0430   0.0458
     0.1466   0.3503   0.9203   0.9237   1.0491   1.0672   1.5477   1.5505
     1.7048   1.7291   1.8622   2.0942

          k = 0.0000 0.1925 0.0000 (109722 PWs)   bands (ev):

   -75.2838 -75.2838 -75.2827 -75.2827 -46.6781 -46.6781 -46.6767 -46.6767
   -46.6641 -46.6641 -46.6630 -46.6630 -46.6595 -46.6595 -46.6580 -46.6580
   -18.5988 -18.5077 -17.8371 -17.7183 -17.6302 -17.6121 -17.5722 -17.5648
   -17.3771 -17.3715 -17.3539 -17.3521 -10.0459 -10.0379  -9.6619  -9.2494
    -9.1617  -9.1442  -9.0366  -8.9193  -8.8471  -8.8193  -8.7624  -8.6671
    -8.3399  -8.2363  -7.8030  -7.7401  -7.6737  -7.6525  -7.5955  -7.4948
    -7.3823  -7.2821  -7.2236  -7.1982  -7.0822  -6.9963  -6.8722  -6.5213
    -6.4318  -6.4225  -6.3684  -6.2599  -6.2430  -6.0917  -5.9988  -5.9354
    -2.2375  -2.2165  -2.1639  -2.1294  -2.1246  -2.1080  -2.0984  -2.0497
    -1.8787  -1.8375  -1.8163  -1.8128  -1.6559  -1.6237  -1.6020  -1.5815
    -1.5777  -1.5471  -1.5425  -1.5146  -0.0532   0.0971   0.1168   0.4251
     0.5325   0.6157   0.6941   0.7576   1.0223   1.1951   1.3950   1.5196
     1.7703   1.8505   1.9051   2.0867

          k = 0.0000 0.3849 0.0000 (109616 PWs)   bands (ev):

   -75.2838 -75.2838 -75.2827 -75.2827 -46.6780 -46.6780 -46.6768 -46.6768
   -46.6642 -46.6642 -46.6623 -46.6623 -46.6602 -46.6602 -46.6578 -46.6578
   -18.4381 -18.3522 -17.8431 -17.8020 -17.7359 -17.6475 -17.6116 -17.6093
   -17.4417 -17.4029 -17.3762 -17.3631 -10.0057  -9.9377  -9.5216  -9.3389
    -9.2840  -9.1818  -9.0605  -8.8610  -8.7774  -8.6137  -8.5500  -8.3425
    -8.1936  -8.0292  -7.8144  -7.7688  -7.6956  -7.5841  -7.4376  -7.3980
    -7.3006  -7.2556  -7.2099  -7.0906  -7.0743  -7.0650  -6.9371  -6.8485
    -6.8005  -6.5928  -6.4878  -6.4403  -6.3482  -6.2063  -6.1381  -5.9663
    -2.2616  -2.2566  -2.1889  -2.1805  -2.1509  -2.1292  -2.0505  -1.9706
    -1.9546  -1.9489  -1.7608  -1.7278  -1.7240  -1.6597  -1.6562  -1.6240
    -1.6136  -1.5545  -1.5314  -1.5032  -0.4961   0.0634   0.5309   0.6544
     0.7280   0.7408   0.8953   1.0709   1.0710   1.2706   1.2996   1.4740
     1.4743   1.6117   1.6657   1.8187

          k = 0.0000-0.5774 0.0000 (109602 PWs)   bands (ev):

   -75.2837 -75.2837 -75.2827 -75.2827 -46.6779 -46.6779 -46.6769 -46.6769
   -46.6643 -46.6643 -46.6617 -46.6617 -46.6609 -46.6609 -46.6577 -46.6577
   -18.2862 -18.2032 -18.0184 -17.9674 -17.6604 -17.6485 -17.6300 -17.5483
   -17.5132 -17.4520 -17.3907 -17.3695 -10.0012  -9.8852  -9.3991  -9.3870
    -9.2779  -9.2185  -8.9033  -8.6622  -8.6248  -8.5594  -8.5427  -8.3711
    -8.2973  -7.9994  -7.8480  -7.8327  -7.6937  -7.5869  -7.4811  -7.4434
    -7.3961  -7.3406  -7.3096  -7.1578  -6.9820  -6.9547  -6.8150  -6.7771
    -6.7708  -6.6064  -6.5711  -6.5431  -6.3792  -6.3443  -6.1191  -5.8746
    -2.3357  -2.2642  -2.2413  -2.2349  -2.1390  -2.1229  -2.0449  -1.9686
    -1.9522  -1.9243  -1.8925  -1.8612  -1.7796  -1.6289  -1.5900  -1.5706
    -1.5656  -1.5457  -1.5160  -1.4914  -0.7657  -0.1348   0.2089   0.5611
     0.8367   0.8505   0.8840   1.0803   1.1538   1.3760   1.4058   1.4340
     1.5694   1.5890   1.6335   1.6576

          k = 0.1667 0.2887 0.0000 (109615 PWs)   bands (ev):

   -75.2838 -75.2838 -75.2827 -75.2827 -46.6781 -46.6780 -46.6768 -46.6768
   -46.6642 -46.6641 -46.6628 -46.6625 -46.6599 -46.6597 -46.6580 -46.6579
   -18.4873 -18.4009 -17.7700 -17.7604 -17.7369 -17.6615 -17.6243 -17.6178
   -17.4155 -17.3976 -17.3640 -17.3559  -9.9952  -9.9217  -9.5898  -9.3175
    -9.2279  -9.1974  -9.0761  -8.9945  -8.8531  -8.6532  -8.5595  -8.4523
    -8.0727  -7.9723  -7.9006  -7.8439  -7.7043  -7.6353  -7.4665  -7.3455
    -7.3184  -7.2829  -7.1893  -7.0940  -7.0556  -7.0020  -6.9645  -6.8431
    -6.5840  -6.5428  -6.4241  -6.4161  -6.3881  -6.1542  -6.1013  -6.0493
    -2.2510  -2.2234  -2.1815  -2.1572  -2.1198  -2.0980  -2.0519  -2.0320
    -1.9753  -1.9664  -1.7202  -1.7042  -1.6857  -1.6751  -1.6358  -1.6288
    -1.5914  -1.5695  -1.5431  -1.5163  -0.2087  -0.0449   0.3647   0.5284
     0.6097   0.7389   0.8525   0.9388   1.1563   1.2110   1.2885   1.4479
     1.6177   1.6951   1.7578   1.8277

          k = 0.1667 0.4811 0.0000 (109606 PWs)   bands (ev):

   -75.2837 -75.2837 -75.2827 -75.2827 -46.6780 -46.6779 -46.6769 -46.6769
   -46.6643 -46.6642 -46.6621 -46.6619 -46.6606 -46.6604 -46.6578 -46.6578
   -18.3025 -18.2221 -17.9640 -17.9257 -17.6969 -17.6702 -17.6579 -17.5594
   -17.4904 -17.4497 -17.3839 -17.3672  -9.8805  -9.7892  -9.4494  -9.3693
    -9.2963  -9.1193  -9.0504  -8.8602  -8.7646  -8.5481  -8.5054  -8.4095
    -8.3166  -8.1683  -7.8234  -7.7962  -7.6566  -7.5935  -7.5351  -7.4360
    -7.3610  -7.3441  -7.1478  -7.0668  -7.0257  -6.8727  -6.8196  -6.7747
    -6.6774  -6.5731  -6.5474  -6.5130  -6.3205  -6.2656  -6.2123  -5.9801
    -2.2558  -2.2242  -2.1975  -2.1615  -2.1263  -2.1147  -2.0787  -2.0462
    -2.0167  -1.9766  -1.8868  -1.8419  -1.8057  -1.6683  -1.5934  -1.5829
    -1.5309  -1.5193  -1.4930  -1.4755  -0.5981  -0.1129   0.0621   0.2937
     0.4320   0.6996   0.7382   0.8931   1.0437   1.1937   1.2454   1.3285
     1.3656   1.4541   1.5794   1.7532

          k = 0.3333 0.5774 0.0000 (109542 PWs)   bands (ev):

   -75.2837 -75.2837 -75.2827 -75.2827 -46.6779 -46.6779 -46.6769 -46.6769
   -46.6642 -46.6642 -46.6621 -46.6621 -46.6602 -46.6602 -46.6579 -46.6579
   -18.1323 -18.1106 -18.0670 -18.0566 -17.7484 -17.7238 -17.5726 -17.5537
   -17.5077 -17.4864 -17.3940 -17.3718  -9.6050  -9.5829  -9.5182  -9.5033
    -9.1028  -9.0807  -9.0698  -8.8910  -8.8814  -8.8214  -8.4538  -8.3931
    -8.3359  -8.2601  -8.1520  -8.0456  -7.6619  -7.5474  -7.4970  -7.4224
    -7.1909  -7.1404  -7.0793  -7.0111  -6.9042  -6.9002  -6.7211  -6.6617
    -6.6617  -6.6108  -6.5714  -6.5139  -6.3113  -6.2281  -6.1919  -6.0923
    -2.1806  -2.1680  -2.1522  -2.1362  -2.1077  -2.1012  -2.0925  -2.0824
    -2.0707  -2.0591  -1.9935  -1.9657  -1.8084  -1.7040  -1.5427  -1.5266
    -1.5040  -1.4950  -1.4608  -1.4593  -0.4541  -0.3908  -0.1894  -0.1031
     0.3304   0.5500   0.5766   0.6215   0.8028   0.8178   1.1047   1.2526
     1.3135   1.3844   1.4769   1.5554

          k =-0.1667 0.0962 0.0000 (109722 PWs)   bands (ev):

   -75.2838 -75.2838 -75.2827 -75.2827 -46.6781 -46.6781 -46.6767 -46.6767
   -46.6641 -46.6640 -46.6632 -46.6630 -46.6592 -46.6591 -46.6583 -46.6582
   -18.5983 -18.5077 -17.8369 -17.7186 -17.6379 -17.6091 -17.5734 -17.5598
   -17.3812 -17.3671 -17.3548 -17.3510 -10.0857  -9.9935  -9.6617  -9.2572
    -9.1638  -9.1191  -9.0607  -8.9291  -8.8614  -8.7812  -8.7368  -8.7067
    -8.3161  -8.2536  -7.8151  -7.7326  -7.6969  -7.6398  -7.5781  -7.5312
    -7.3416  -7.2709  -7.2152  -7.1845  -7.1621  -6.9960  -6.7972  -6.5680
    -6.4494  -6.3916  -6.3604  -6.2944  -6.2361  -6.0767  -5.9894  -5.9441
    -2.2366  -2.2200  -2.1760  -2.1405  -2.1222  -2.1041  -2.0827  -2.0413
    -1.8705  -1.8538  -1.8323  -1.7908  -1.6504  -1.6452  -1.5999  -1.5858
    -1.5623  -1.5533  -1.5326  -1.5179  -0.0917   0.1048   0.1821   0.4230
     0.5498   0.5998   0.6513   0.7171   1.0888   1.2182   1.3127   1.5426
     1.7484   1.8541   1.9579   2.0688

          k =-0.3333 0.1925 0.0000 (109616 PWs)   bands (ev):

   -75.2838 -75.2838 -75.2827 -75.2827 -46.6780 -46.6780 -46.6768 -46.6767
   -46.6642 -46.6640 -46.6630 -46.6626 -46.6596 -46.6592 -46.6583 -46.6581
   -18.4344 -18.3533 -17.8526 -17.8026 -17.7322 -17.6444 -17.6196 -17.6028
   -17.4438 -17.3948 -17.3835 -17.3596 -10.0330  -9.9037  -9.5288  -9.3210
    -9.2824  -9.1872  -9.0568  -8.8541  -8.8071  -8.6234  -8.5385  -8.3389
    -8.1788  -8.0682  -7.7699  -7.7603  -7.7138  -7.6157  -7.4363  -7.3588
    -7.3091  -7.2882  -7.1809  -7.1323  -7.0716  -7.0427  -6.9775  -6.8088
    -6.7456  -6.6479  -6.5125  -6.3934  -6.3640  -6.1951  -6.0909  -6.0205
    -2.2573  -2.2411  -2.2052  -2.1968  -2.1464  -2.1295  -2.0290  -1.9724
    -1.9700  -1.9414  -1.7532  -1.7382  -1.7026  -1.6794  -1.6494  -1.6279
    -1.6110  -1.5744  -1.5247  -1.4950  -0.5152   0.0833   0.4881   0.6119
     0.6933   0.8514   0.9360   1.0722   1.1068   1.2083   1.3476   1.4260
     1.4723   1.6123   1.6848   1.7544

          k = 0.5000-0.2887 0.0000 (109602 PWs)   bands (ev):

   -75.2837 -75.2837 -75.2827 -75.2827 -46.6780 -46.6780 -46.6768 -46.6768
   -46.6643 -46.6640 -46.6628 -46.6623 -46.6598 -46.6593 -46.6583 -46.6581
   -18.2629 -18.2229 -18.0172 -17.9792 -17.6597 -17.6304 -17.6258 -17.5878
   -17.4857 -17.4559 -17.3949 -17.3658 -10.0085  -9.8792  -9.3811  -9.3673
    -9.3031  -9.2253  -8.8320  -8.7464  -8.6069  -8.5751  -8.5210  -8.4710
    -8.1864  -8.0568  -7.8395  -7.8199  -7.6423  -7.6352  -7.4515  -7.4126
    -7.3933  -7.3713  -7.3251  -7.2270  -6.9596  -6.9139  -6.8217  -6.7471
    -6.7418  -6.7105  -6.6091  -6.4712  -6.3783  -6.3293  -6.0157  -5.9812
    -2.3061  -2.3051  -2.2116  -2.1948  -2.1920  -2.1468  -2.0115  -1.9647
    -1.9604  -1.9270  -1.8842  -1.8748  -1.7478  -1.6865  -1.5851  -1.5538
    -1.5501  -1.5318  -1.5272  -1.5007  -0.7865  -0.1313   0.1740   0.5773
     0.8432   0.8985   0.9198   1.0158   1.1869   1.3457   1.4073   1.4820
     1.5144   1.5674   1.6494   1.6855

          k = 0.3333 0.0000 0.0000 (109615 PWs)   bands (ev):

   -75.2838 -75.2838 -75.2827 -75.2827 -46.6781 -46.6781 -46.6767 -46.6767
   -46.6641 -46.6641 -46.6629 -46.6629 -46.6592 -46.6592 -46.6583 -46.6583
   -18.4857 -18.4009 -17.7775 -17.7666 -17.7273 -17.6652 -17.6280 -17.6078
   -17.4258 -17.3776 -17.3773 -17.3524 -10.0278  -9.8805  -9.5887  -9.3349
    -9.2307  -9.1564  -9.1266  -8.9634  -8.8201  -8.6705  -8.6233  -8.4113
    -8.0902  -7.9550  -7.9259  -7.8209  -7.7276  -7.5734  -7.5554  -7.3829
    -7.2688  -7.1979  -7.1466  -7.1462  -7.0807  -7.0261  -6.9898  -6.7930
    -6.6067  -6.5283  -6.4555  -6.3921  -6.3846  -6.1269  -6.0930  -6.0874
    -2.2762  -2.1925  -2.1754  -2.1676  -2.1262  -2.0757  -2.0599  -2.0318
    -1.9925  -1.9429  -1.7228  -1.7152  -1.6990  -1.6760  -1.6488  -1.6194
    -1.5961  -1.5505  -1.5480  -1.5069  -0.2716   0.1104   0.2134   0.5326
     0.6171   0.7424   0.9287   0.9535   1.0686   1.2162   1.2655   1.5035
     1.6050   1.7207   1.7474   1.9096

          k =-0.3333 0.3849 0.0000 (109606 PWs)   bands (ev):

   -75.2837 -75.2837 -75.2827 -75.2827 -46.6780 -46.6780 -46.6768 -46.6768
   -46.6643 -46.6641 -46.6626 -46.6622 -46.6601 -46.6598 -46.6581 -46.6579
   -18.2951 -18.2269 -17.9697 -17.9268 -17.6963 -17.6688 -17.6515 -17.5706
   -17.4834 -17.4494 -17.3865 -17.3650  -9.8923  -9.7753  -9.4615  -9.3481
    -9.2839  -9.1346  -9.0489  -8.8553  -8.7876  -8.5557  -8.4800  -8.4029
    -8.3470  -8.1615  -7.8196  -7.7941  -7.6325  -7.6126  -7.5300  -7.4046
    -7.3967  -7.3466  -7.1651  -7.1306  -6.9297  -6.8804  -6.8291  -6.7344
    -6.7182  -6.6057  -6.5500  -6.4626  -6.3923  -6.2147  -6.1297  -6.0566
    -2.2401  -2.2141  -2.1939  -2.1818  -2.1557  -2.1161  -2.0568  -2.0526
    -2.0083  -1.9786  -1.8779  -1.8382  -1.7818  -1.7170  -1.5910  -1.5697
    -1.5259  -1.5132  -1.5044  -1.4759  -0.6161  -0.0966   0.0502   0.3111
     0.3864   0.7605   0.7794   0.9061   0.9793   1.1081   1.2990   1.3485
     1.3974   1.4455   1.5121   1.7037

          k = 0.5000 0.0962 0.0000 (109606 PWs)   bands (ev):

   -75.2837 -75.2837 -75.2827 -75.2827 -46.6780 -46.6780 -46.6768 -46.6768
   -46.6642 -46.6641 -46.6627 -46.6624 -46.6598 -46.6595 -46.6582 -46.6581
   -18.2930 -18.2261 -17.9810 -17.9194 -17.7007 -17.6716 -17.6405 -17.5708
   -17.4972 -17.4341 -17.3929 -17.3630  -9.9047  -9.7601  -9.4627  -9.3548
    -9.2806  -9.1286  -9.0410  -8.8428  -8.7905  -8.5415  -8.5233  -8.4581
    -8.3143  -8.1068  -7.8633  -7.7925  -7.6458  -7.5656  -7.5475  -7.4319
    -7.3729  -7.3465  -7.1628  -7.1184  -6.9705  -6.8462  -6.8135  -6.7733
    -6.6744  -6.6353  -6.5684  -6.4724  -6.3046  -6.2606  -6.1194  -6.0749
    -2.2447  -2.2315  -2.1762  -2.1575  -2.1411  -2.1220  -2.0932  -2.0302
    -2.0101  -1.9857  -1.8909  -1.8212  -1.7937  -1.7123  -1.5926  -1.5678
    -1.5338  -1.5197  -1.4932  -1.4708  -0.6266  -0.0681   0.0228   0.2485
     0.4209   0.7557   0.8676   0.9097   0.9793   1.0353   1.2634   1.3071
     1.4761   1.5039   1.5893   1.6358

     highest occupied, lowest unoccupied level (ev):    -5.6757   -4.6499

!    total energy              =   -5539.49792426 Ry
     total all-electron energy =     -5539.497924 Ry
     estimated scf accuracy    <          6.8E-12 Ry

     The total energy is the sum of the following terms:
     one-electron contribution =   -9563.26934078 Ry
     hartree contribution      =    4754.90099150 Ry
     xc contribution           =    -165.77459504 Ry
     ewald contribution        =    3977.84444146 Ry
     Hubbard energy            =       0.69217781 Ry
     one-center paw contrib.   =   -4543.89159920 Ry

     total magnetization       =    12.00 Bohr mag/cell
     absolute magnetization    =    17.10 Bohr mag/cell

     convergence has been achieved in  21 iterations

     negative rho (up, down):  2.694E-02 3.635E-02

     Forces acting on atoms (cartesian axes, Ry/au):

     atom    1 type  1   force =    -0.00004012   -0.00049325    0.00015107
     atom    2 type  1   force =    -0.00004012    0.00049325    0.00015107
     atom    3 type  2   force =     0.01346974    0.00000000   -0.02056218
     atom    4 type  2   force =    -0.00734210   -0.01224693   -0.01862046
     atom    5 type  2   force =    -0.00734210    0.01224693   -0.01862046
     atom    6 type  2   force =    -0.01391550   -0.00000000    0.02243464
     atom    7 type  2   force =     0.00695166    0.01213310    0.02242122
     atom    8 type  2   force =     0.00695166   -0.01213310    0.02242122
     atom    9 type  1   force =     0.00004005   -0.00049383   -0.00015345
     atom   10 type  1   force =     0.00004005    0.00049383   -0.00015345
     atom   11 type  2   force =     0.01391671    0.00000000   -0.02243367
     atom   12 type  2   force =    -0.00695230   -0.01213128   -0.02242023
     atom   13 type  2   force =    -0.00695230    0.01213128   -0.02242023
     atom   14 type  2   force =    -0.01347038    0.00000000    0.02056667
     atom   15 type  2   force =     0.00734252    0.01224753    0.01861912
     atom   16 type  2   force =     0.00734252   -0.01224753    0.01861912

     Total force =     0.087172     Total SCF correction =     0.000012


     Computing stress (Cartesian axis) and pressure


     negative rho (up, down):  2.694E-02 3.635E-02
          total   stress  (Ry/bohr**3)                   (kbar)     P=       20.92
   0.00014399   0.00000000  -0.00000127           21.18        0.00       -0.19
   0.00000000   0.00014305   0.00000000            0.00       21.04        0.00
  -0.00000127   0.00000000   0.00013949           -0.19        0.00       20.52


     Writing all to output data dir ./ht_afm_fm_qe/ht_afm_fm_qe.save/ :
     XML data file, charge density, pseudopotentials, collected wavefunctions

     init_run     :     32.55s CPU     33.10s WALL (       1 calls)
     electrons    :   1133.02s CPU   1178.14s WALL (       1 calls)
     forces       :    241.66s CPU    252.05s WALL (       1 calls)
     stress       :   1002.60s CPU   1012.75s WALL (       1 calls)

     Called by init_run:
     wfcinit      :     29.91s CPU     30.32s WALL (       1 calls)
     potinit      :      1.10s CPU      1.15s WALL (       1 calls)
     hinit0       :      0.90s CPU      0.91s WALL (       1 calls)

     Called by electrons:
     c_bands      :    936.94s CPU    974.67s WALL (      21 calls)
     sum_band     :    163.74s CPU    169.29s WALL (      21 calls)
     v_of_rho     :      4.82s CPU      4.94s WALL (      22 calls)
     newd         :      7.07s CPU      8.13s WALL (      22 calls)
     PAW_pot      :     18.67s CPU     18.87s WALL (      22 calls)
     mix_rho      :      2.33s CPU      2.43s WALL (      21 calls)

     Called by c_bands:
     init_us_2    :     13.59s CPU     13.84s WALL (    1248 calls)
     init_us_2:cp :     13.58s CPU     13.84s WALL (    1248 calls)
     cegterg      :    906.70s CPU    943.80s WALL (     546 calls)

     Called by *egterg:
     cdiaghg      :     92.15s CPU     93.05s WALL (    2303 calls)
     h_psi        :    601.74s CPU    621.08s WALL (    2329 calls)
     s_psi        :     38.98s CPU     39.60s WALL (    2459 calls)
     g_psi        :      5.34s CPU      5.45s WALL (    1757 calls)

     Called by h_psi:
     h_psi:calbec :     41.11s CPU     42.16s WALL (    2329 calls)
     vloc_psi     :    471.76s CPU    481.98s WALL (    2329 calls)
     add_vuspsi   :     34.23s CPU     34.82s WALL (    2329 calls)
     vhpsi        :     45.55s CPU     46.61s WALL (    2329 calls)

     General routines
     calbec       :    241.25s CPU    247.07s WALL (   46232 calls)
     fft          :      3.63s CPU      3.77s WALL (     588 calls)
     ffts         :      0.27s CPU      0.29s WALL (      86 calls)
     fftw         :    431.57s CPU    441.09s WALL (  350542 calls)
     interpolate  :      0.48s CPU      0.52s WALL (      44 calls)

     Parallel routines

     Hubbard U routines
     new_ns       :      8.18s CPU      8.42s WALL (      21 calls)
     vhpsi        :     45.55s CPU     46.61s WALL (    2329 calls)
     force_hub    :    236.40s CPU    246.65s WALL (       1 calls)
                                        0.00s GPU  (       1 calls)
     stres_hub    :    917.42s CPU    926.29s WALL (       1 calls)
                                        0.00s GPU  (       1 calls)

     PWSCF        :  40m13.54s CPU  42m 2.85s WALL


   This run was terminated on:  16: 4:30  15Oct2025            

=------------------------------------------------------------------------------=
   JOB DONE.
=------------------------------------------------------------------------------=
