
     Program PWSCF v.7.3 starts on 15Oct2025 at 15: 3:51 

     This program is part of the open-source Quantum ESPRESSO suite
     for quantum simulation of materials; please cite
         "P. Giannozzi et al., J. Phys.:Condens. Matter 21 395502 (2009);
         "P. Giannozzi et al., J. Phys.:Condens. Matter 29 465901 (2017);
         "P. Giannozzi et al., J. Chem. Phys. 152 154105 (2020);
          URL http://www.quantum-espresso.org", 
     in publications or presentations arising from this work. More details at
     http://www.quantum-espresso.org/quote

     Parallel version (MPI), running on    24 processors

     MPI processes distributed on     1 nodes
     45485 MiB available memory on the printing compute node when the environment starts

     Reading input from lt_fm_fm_qe.scf.in
Warning: card &CELL ignored
Warning: card / ignored

     Current dimensions of program PWSCF are:
     Max number of different atomic species (ntypx) = 10
     Max number of k-points (npk) =  40000
     Max angular momentum in pseudopotentials (lmaxx) =  4
read_pp_mesh; mismatch in mesh size, discarding the one in header
read_pp_mesh; mismatch in mesh size, discarding the one in header
     file Cr.GGA-PBE-paw.UPF: wavefunction(s)  3S 4S 3P 4P 3D 4D renormalized
     file I.GGA-PBE-paw.UPF: wavefunction(s)  6S 6P renormalized

     IMPORTANT: XC functional enforced from input :
     Exchange-correlation= PBE
                           (   1   4   3   4   0   0   0)
     Any further DFT definition will be discarded
     Please, verify this is what you really want

     Message from routine find_sym:
     Not a group! Trying with lower acceptance parameter...
     Message from routine find_sym:
     Symmetry operations form a group

     R & G space division:  proc/nbgrp/npool/nimage =      24
     Subspace diagonalization in iterative solution of the eigenvalue problem:
     a serial algorithm will be used


     Parallelization info
     --------------------
     sticks:   dense  smooth     PW     G-vecs:    dense   smooth      PW
     Min         179     174     46                38065    36532    5046
     Max         180     175     47                38082    36557    5059
     Sum        4303    4189   1123               913669   876961  121297

     Using Slab Decomposition



     bravais-lattice index     =            0
     lattice parameter (alat)  =      12.9956  a.u.
     unit-cell volume          =    7602.9282 (a.u.)^3
     number of atoms/cell      =           16
     number of atomic types    =            2
     number of electrons       =       140.00 (up:  76.00, down:  64.00)
     number of Kohn-Sham states=          100
     kinetic-energy cutoff     =      90.0000  Ry
     charge density cutoff     =     370.0000  Ry
     scf convergence threshold =      1.0E-11
     mixing beta               =       0.5000
     number of iterations used =            8  plain     mixing
     Exchange-correlation= PBE
                           (   1   4   3   4   0   0   0)
     Hubbard projectors: ortho-atomic
     Hubbard parameters of DFT+U (Dudarev formulation) in eV:
     U(Cr-3d) =  4.3700
     J0(Cr-3d) =  0.5700

     Internal variables: lda_plus_u =T, lda_plus_u_kind = 0

     celldm(1)=  12.995613  celldm(2)=   0.000000  celldm(3)=   0.000000
     celldm(4)=   0.000000  celldm(5)=   0.000000  celldm(6)=   0.000000

     crystal axes: (cart. coord. in units of alat)
               a(1) = (   1.000000  -0.000000   0.000000 )  
               a(2) = (  -0.500000   0.866025   0.000000 )  
               a(3) = (  -0.000000   0.000000   4.000000 )  

     reciprocal axes: (cart. coord. in units 2 pi/alat)
               b(1) = (  1.000000  0.577350  0.000000 )  
               b(2) = (  0.000000  1.154701  0.000000 )  
               b(3) = ( -0.000000 -0.000000  0.250000 )  


     PseudoPot. # 1 for Cr read from file:
     ../../Cr.GGA-PBE-paw.UPF
     MD5 check sum: 0e9dc003703e132720ff5dfacba66d28
     Pseudo is Projector augmented-wave + core cor, Zval = 14.0
     Generated using ATOMPAW code
     Shape of augmentation charge: SINC**2
     Using radial grid of 2342 points,  6 beta functions with: 
                l(1) =   0
                l(2) =   0
                l(3) =   1
                l(4) =   1
                l(5) =   2
                l(6) =   2
     Q(r) pseudized with 0 coefficients 


     PseudoPot. # 2 for I  read from file:
     ../../I.GGA-PBE-paw.UPF
     MD5 check sum: 736bb4145856fa7ed29d0984862794a4
     Pseudo is Projector augmented-wave + core cor, Zval =  7.0
     Generated using ATOMPAW code
     Shape of augmentation charge: SINC**2
     Using radial grid of 2342 points,  4 beta functions with: 
                l(1) =   0
                l(2) =   0
                l(3) =   1
                l(4) =   1
     Q(r) pseudized with 0 coefficients 


     atomic species   valence    mass     pseudopotential
     Cr               14.00    51.99610     Cr( 1.00)
     I                 7.00   126.90447     I ( 1.00)

     Starting magnetic structure 
     atomic species   magnetization
     Cr              0.214
     I               0.000

     No symmetry found



   Cartesian axes

     site n.     atom                  positions (alat units)
         1        Cr     tau(   1) = (   0.3333302   0.5773476   2.4771345  )
         2        Cr     tau(   2) = (  -0.1666653   0.8660272   2.4783670  )
         3        I      tau(   3) = (   0.4785934   0.2878151   2.2541471  )
         4        I      tau(   4) = (   0.0099554   0.5963201   2.2541472  )
         5        I      tau(   5) = (  -0.4885529   0.8479194   2.2541494  )
         6        I      tau(   6) = (   0.1887678   0.2890994   2.7012541  )
         7        I      tau(   7) = (   0.1559814   0.8466725   2.7012541  )
         8        I      tau(   8) = (  -0.3447532   0.5962818   2.7012518  )
         9        Cr     tau(   9) = (   0.8333317   0.2886782   1.5216322  )
        10        Cr     tau(  10) = (   0.3333282   0.5773496   1.5228650  )
        11        I      tau(  11) = (   0.9778967  -0.0004210   1.2987495  )
        12        I      tau(  12) = (   0.5106847   0.3080297   1.2987460  )
        13        I      tau(  13) = (   0.0114148   0.5584203   1.2987445  )
        14        I      tau(  14) = (   0.6880724   0.0008651   1.7458527  )
        15        I      tau(  15) = (   0.6567094   0.5583828   1.7458520  )
        16        I      tau(  16) = (   0.1552143   0.3067811   1.7458532  )

     number of k points=    20
                       cart. coord. in units 2pi/alat
        k(    1) = (   0.0000000   0.0000000   0.0000000), wk =   0.0277778
        k(    2) = (   0.0000000   0.1924501   0.0000000), wk =   0.0555556
        k(    3) = (   0.0000000   0.3849002   0.0000000), wk =   0.0555556
        k(    4) = (   0.0000000  -0.5773503   0.0000000), wk =   0.0277778
        k(    5) = (   0.1666667   0.2886751   0.0000000), wk =   0.0555556
        k(    6) = (   0.1666667   0.4811252   0.0000000), wk =   0.0555556
        k(    7) = (   0.3333333   0.5773503   0.0000000), wk =   0.0555556
        k(    8) = (  -0.1666667   0.0962250   0.0000000), wk =   0.0555556
        k(    9) = (   0.1666667   0.0962250   0.0000000), wk =   0.0555556
        k(   10) = (  -0.3333333   0.1924501   0.0000000), wk =   0.0555556
        k(   11) = (   0.3333333   0.1924501   0.0000000), wk =   0.0555556
        k(   12) = (   0.5000000  -0.2886751   0.0000000), wk =   0.0277778
        k(   13) = (  -0.5000000  -0.2886751   0.0000000), wk =   0.0277778
        k(   14) = (  -0.1666667   0.2886751   0.0000000), wk =   0.0555556
        k(   15) = (   0.3333333   0.0000000   0.0000000), wk =   0.0555556
        k(   16) = (  -0.3333333   0.3849002   0.0000000), wk =   0.0555556
        k(   17) = (  -0.1666667   0.4811252   0.0000000), wk =   0.0555556
        k(   18) = (   0.5000000   0.0962250   0.0000000), wk =   0.0555556
        k(   19) = (  -0.3333333  -0.3849002   0.0000000), wk =   0.0555556
        k(   20) = (   0.5000000  -0.0962250   0.0000000), wk =   0.0555556

     Dense  grid:   913669 G-vectors     FFT dimensions: (  80,  80, 320)

     Smooth grid:   876961 G-vectors     FFT dimensions: (  80,  80, 320)

     Estimated max dynamical RAM per process >     592.63 MB

     Estimated total dynamical RAM >      13.89 GB
 ----2D----2D----2D----2D----2D----2D----2D----2D----2D----2D----2D----2D
  The code is running with the 2D cutoff
  Please refer to:
  Sohier, T., Calandra, M., & Mauri, F. (2017), 
  Density functional perturbation theory for gated two-dimensional heterostructures:
  Theoretical developments and application to flexural phonons in graphene.
  Physical Review B, 96(7), 75448. https://doi.org/10.1103/PhysRevB.96.075448
 ----2D----2D----2D----2D----2D----2D----2D----2D----2D----2D----2D----2D
     Generating pointlists ...
     new r_m :   0.1620 (alat units)  2.1047 (a.u.) for type    1
     new r_m :   0.1620 (alat units)  2.1047 (a.u.) for type    2
     Cannot read rho : file not found

     Initial potential from superposition of free atoms

     starting charge     139.9932, renormalised to     140.0000

     negative rho (up, down):  2.605E-02 2.652E-02

     STARTING HUBBARD OCCUPATIONS:

     =================== HUBBARD OCCUPATIONS ===================
     ------------------------ ATOM    1 ------------------------
     Tr[ns(  1)] (up, down, total) =   5.00000  0.00000  5.00000
     Atomic magnetic moment for atom   1 =   5.00000
     SPIN  1
     eigenvalues:
       1.000  1.000  1.000  1.000  1.000
     eigenvectors (columns):
       1.000  0.000  0.000  0.000  0.000
       0.000  1.000  0.000  0.000  0.000
       0.000  0.000  1.000  0.000  0.000
       0.000  0.000  0.000  1.000  0.000
       0.000  0.000  0.000  0.000  1.000
     occupation matrix ns (before diag.):
       1.000  0.000  0.000  0.000  0.000
       0.000  1.000  0.000  0.000  0.000
       0.000  0.000  1.000  0.000  0.000
       0.000  0.000  0.000  1.000  0.000
       0.000  0.000  0.000  0.000  1.000
     SPIN  2
     eigenvalues:
       0.000  0.000  0.000  0.000  0.000
     eigenvectors (columns):
       1.000  0.000  0.000  0.000  0.000
       0.000  1.000  0.000  0.000  0.000
       0.000  0.000  1.000  0.000  0.000
       0.000  0.000  0.000  1.000  0.000
       0.000  0.000  0.000  0.000  1.000
     occupation matrix ns (before diag.):
       0.000  0.000  0.000  0.000  0.000
       0.000  0.000  0.000  0.000  0.000
       0.000  0.000  0.000  0.000  0.000
       0.000  0.000  0.000  0.000  0.000
       0.000  0.000  0.000  0.000  0.000
     ------------------------ ATOM    2 ------------------------
     Tr[ns(  2)] (up, down, total) =   5.00000  0.00000  5.00000
     Atomic magnetic moment for atom   2 =   5.00000
     SPIN  1
     eigenvalues:
       1.000  1.000  1.000  1.000  1.000
     eigenvectors (columns):
       1.000  0.000  0.000  0.000  0.000
       0.000  1.000  0.000  0.000  0.000
       0.000  0.000  1.000  0.000  0.000
       0.000  0.000  0.000  1.000  0.000
       0.000  0.000  0.000  0.000  1.000
     occupation matrix ns (before diag.):
       1.000  0.000  0.000  0.000  0.000
       0.000  1.000  0.000  0.000  0.000
       0.000  0.000  1.000  0.000  0.000
       0.000  0.000  0.000  1.000  0.000
       0.000  0.000  0.000  0.000  1.000
     SPIN  2
     eigenvalues:
       0.000  0.000  0.000  0.000  0.000
     eigenvectors (columns):
       1.000  0.000  0.000  0.000  0.000
       0.000  1.000  0.000  0.000  0.000
       0.000  0.000  1.000  0.000  0.000
       0.000  0.000  0.000  1.000  0.000
       0.000  0.000  0.000  0.000  1.000
     occupation matrix ns (before diag.):
       0.000  0.000  0.000  0.000  0.000
       0.000  0.000  0.000  0.000  0.000
       0.000  0.000  0.000  0.000  0.000
       0.000  0.000  0.000  0.000  0.000
       0.000  0.000  0.000  0.000  0.000
     ------------------------ ATOM    9 ------------------------
     Tr[ns(  9)] (up, down, total) =   5.00000  0.00000  5.00000
     Atomic magnetic moment for atom   9 =   5.00000
     SPIN  1
     eigenvalues:
       1.000  1.000  1.000  1.000  1.000
     eigenvectors (columns):
       1.000  0.000  0.000  0.000  0.000
       0.000  1.000  0.000  0.000  0.000
       0.000  0.000  1.000  0.000  0.000
       0.000  0.000  0.000  1.000  0.000
       0.000  0.000  0.000  0.000  1.000
     occupation matrix ns (before diag.):
       1.000  0.000  0.000  0.000  0.000
       0.000  1.000  0.000  0.000  0.000
       0.000  0.000  1.000  0.000  0.000
       0.000  0.000  0.000  1.000  0.000
       0.000  0.000  0.000  0.000  1.000
     SPIN  2
     eigenvalues:
       0.000  0.000  0.000  0.000  0.000
     eigenvectors (columns):
       1.000  0.000  0.000  0.000  0.000
       0.000  1.000  0.000  0.000  0.000
       0.000  0.000  1.000  0.000  0.000
       0.000  0.000  0.000  1.000  0.000
       0.000  0.000  0.000  0.000  1.000
     occupation matrix ns (before diag.):
       0.000  0.000  0.000  0.000  0.000
       0.000  0.000  0.000  0.000  0.000
       0.000  0.000  0.000  0.000  0.000
       0.000  0.000  0.000  0.000  0.000
       0.000  0.000  0.000  0.000  0.000
     ------------------------ ATOM   10 ------------------------
     Tr[ns( 10)] (up, down, total) =   5.00000  0.00000  5.00000
     Atomic magnetic moment for atom  10 =   5.00000
     SPIN  1
     eigenvalues:
       1.000  1.000  1.000  1.000  1.000
     eigenvectors (columns):
       1.000  0.000  0.000  0.000  0.000
       0.000  1.000  0.000  0.000  0.000
       0.000  0.000  1.000  0.000  0.000
       0.000  0.000  0.000  1.000  0.000
       0.000  0.000  0.000  0.000  1.000
     occupation matrix ns (before diag.):
       1.000  0.000  0.000  0.000  0.000
       0.000  1.000  0.000  0.000  0.000
       0.000  0.000  1.000  0.000  0.000
       0.000  0.000  0.000  1.000  0.000
       0.000  0.000  0.000  0.000  1.000
     SPIN  2
     eigenvalues:
       0.000  0.000  0.000  0.000  0.000
     eigenvectors (columns):
       1.000  0.000  0.000  0.000  0.000
       0.000  1.000  0.000  0.000  0.000
       0.000  0.000  1.000  0.000  0.000
       0.000  0.000  0.000  1.000  0.000
       0.000  0.000  0.000  0.000  1.000
     occupation matrix ns (before diag.):
       0.000  0.000  0.000  0.000  0.000
       0.000  0.000  0.000  0.000  0.000
       0.000  0.000  0.000  0.000  0.000
       0.000  0.000  0.000  0.000  0.000
       0.000  0.000  0.000  0.000  0.000

     Number of occupied Hubbard levels =   20.0000

     Atomic wfc used for Hubbard projectors are orthogonalized

     Starting wfcs are  168 atomic wfcs
     Checking if some PAW data can be deallocated... 

     total cpu time spent up to now is       50.6 secs

     Self-consistent Calculation

     iteration #  1     ecut=    90.00 Ry     beta= 0.50
     Davidson diagonalization with overlap
     ethr =  1.00E-05,  avg # of iterations =  9.3

     =================== HUBBARD OCCUPATIONS ===================
     ------------------------ ATOM    1 ------------------------
     Tr[ns(  1)] (up, down, total) =   3.42514  0.28259  3.70773
     Atomic magnetic moment for atom   1 =   3.14255
     SPIN  1
     eigenvalues:
       0.383  0.383  0.885  0.885  0.889
     eigenvectors (columns):
       0.000  0.000 -0.000  0.000  1.000
       0.809 -0.153 -0.313  0.473 -0.000
      -0.153 -0.809  0.473  0.313  0.000
      -0.558  0.104 -0.455  0.686 -0.000
      -0.104 -0.558 -0.686 -0.455 -0.000
     occupation matrix ns (before diag.):
       0.889 -0.000  0.000  0.000  0.000
      -0.000  0.545  0.000  0.235 -0.000
       0.000  0.000  0.545 -0.000 -0.235
       0.000  0.235 -0.000  0.723  0.000
       0.000 -0.000 -0.235  0.000  0.723
     SPIN  2
     eigenvalues:
       0.031  0.033  0.033  0.093  0.093
     eigenvectors (columns):
       1.000 -0.000 -0.000  0.000 -0.000
       0.000  0.582  0.026  0.812 -0.027
      -0.000  0.026 -0.582  0.027  0.812
       0.000  0.812  0.037 -0.582  0.020
       0.000 -0.037  0.812  0.020  0.582
     occupation matrix ns (before diag.):
       0.031  0.000 -0.000 -0.000 -0.000
       0.000  0.073 -0.000 -0.028  0.000
      -0.000 -0.000  0.073  0.000  0.028
      -0.000 -0.028  0.000  0.053 -0.000
      -0.000  0.000  0.028 -0.000  0.053
     ------------------------ ATOM    2 ------------------------
     Tr[ns(  2)] (up, down, total) =   3.42997  0.28419  3.71415
     Atomic magnetic moment for atom   2 =   3.14578
     SPIN  1
     eigenvalues:
       0.386  0.386  0.885  0.885  0.889
     eigenvectors (columns):
      -0.000  0.000 -0.000  0.000  1.000
      -0.189  0.801 -0.353  0.445 -0.000
       0.801  0.189  0.445  0.353  0.000
       0.133 -0.553 -0.513  0.643 -0.000
       0.553  0.133 -0.643 -0.513 -0.000
     occupation matrix ns (before diag.):
       0.889 -0.000  0.000  0.000  0.000
      -0.000  0.547  0.000  0.233 -0.001
       0.000  0.000  0.547 -0.001 -0.233
       0.000  0.233 -0.001  0.723  0.000
       0.000 -0.001 -0.233  0.000  0.723
     SPIN  2
     eigenvalues:
       0.031  0.033  0.033  0.094  0.094
     eigenvectors (columns):
       1.000 -0.000  0.000  0.000 -0.000
      -0.000 -0.285  0.508  0.772 -0.254
      -0.000 -0.508 -0.285  0.254  0.772
      -0.000 -0.394  0.711 -0.553  0.184
       0.000  0.711  0.394  0.184  0.553
     occupation matrix ns (before diag.):
       0.031  0.000 -0.000  0.000 -0.000
       0.000  0.073 -0.000 -0.029  0.000
      -0.000 -0.000  0.073  0.000  0.029
       0.000 -0.029  0.000  0.054 -0.000
      -0.000  0.000  0.029 -0.000  0.054
     ------------------------ ATOM    9 ------------------------
     Tr[ns(  9)] (up, down, total) =   3.42997  0.28419  3.71416
     Atomic magnetic moment for atom   9 =   3.14578
     SPIN  1
     eigenvalues:
       0.386  0.386  0.885  0.885  0.889
     eigenvectors (columns):
      -0.000 -0.000 -0.000 -0.000 -1.000
      -0.612  0.549  0.568 -0.019 -0.000
      -0.549 -0.612 -0.019 -0.568  0.000
       0.422 -0.381  0.822 -0.025 -0.000
      -0.381 -0.422  0.025  0.822 -0.000
     occupation matrix ns (before diag.):
       0.889  0.000 -0.000 -0.000 -0.000
       0.000  0.547 -0.000  0.233 -0.001
      -0.000 -0.000  0.547 -0.001 -0.233
      -0.000  0.233 -0.001  0.723 -0.000
      -0.000 -0.001 -0.233 -0.000  0.723
     SPIN  2
     eigenvalues:
       0.031  0.033  0.033  0.094  0.094
     eigenvectors (columns):
       1.000 -0.000 -0.000  0.000  0.000
      -0.000  0.365 -0.454  0.667 -0.465
       0.000  0.454  0.365  0.465  0.667
      -0.000  0.506 -0.636 -0.477  0.335
      -0.000 -0.636 -0.506  0.335  0.477
     occupation matrix ns (before diag.):
       0.031 -0.000  0.000  0.000  0.000
      -0.000  0.073 -0.000 -0.029  0.000
       0.000 -0.000  0.073  0.000  0.029
       0.000 -0.029  0.000  0.054  0.000
       0.000  0.000  0.029  0.000  0.054
     ------------------------ ATOM   10 ------------------------
     Tr[ns( 10)] (up, down, total) =   3.42514  0.28258  3.70772
     Atomic magnetic moment for atom  10 =   3.14255
     SPIN  1
     eigenvalues:
       0.383  0.383  0.885  0.885  0.889
     eigenvectors (columns):
       0.000 -0.000 -0.000 -0.000 -1.000
      -0.692  0.446  0.530  0.203 -0.000
       0.446  0.692  0.203 -0.530  0.000
       0.478 -0.306  0.768  0.296 -0.000
       0.306  0.478 -0.296  0.768 -0.000
     occupation matrix ns (before diag.):
       0.889  0.000  0.000 -0.000  0.000
       0.000  0.545  0.000  0.235 -0.000
       0.000  0.000  0.545 -0.000 -0.235
      -0.000  0.235 -0.000  0.723  0.000
       0.000 -0.000 -0.235  0.000  0.723
     SPIN  2
     eigenvalues:
       0.031  0.033  0.033  0.093  0.093
     eigenvectors (columns):
       1.000 -0.000  0.000 -0.000 -0.000
      -0.000 -0.370  0.450 -0.662  0.472
      -0.000  0.450  0.370  0.472  0.662
      -0.000 -0.516  0.628  0.475 -0.338
       0.000 -0.628 -0.516  0.338  0.475
     occupation matrix ns (before diag.):
       0.031 -0.000 -0.000  0.000 -0.000
      -0.000  0.073  0.000 -0.028  0.000
      -0.000  0.000  0.073  0.000  0.028
       0.000 -0.028  0.000  0.053 -0.000
      -0.000  0.000  0.028 -0.000  0.053

     Number of occupied Hubbard levels =   14.8438

     negative rho (up, down):  2.951E-02 3.285E-02

     total cpu time spent up to now is      299.7 secs

     total energy              =   -5538.09742266 Ry
     estimated scf accuracy    <       2.85314229 Ry

     total magnetization       =    12.00 Bohr mag/cell
     absolute magnetization    =    15.30 Bohr mag/cell

     iteration #  2     ecut=    90.00 Ry     beta= 0.50
     Davidson diagonalization with overlap
     ethr =  2.04E-03,  avg # of iterations =  4.5

     negative rho (up, down):  2.751E-02 3.073E-02

     total cpu time spent up to now is      395.8 secs

     total energy              =   -5536.61322899 Ry
     estimated scf accuracy    <      18.04188649 Ry

     total magnetization       =    12.00 Bohr mag/cell
     absolute magnetization    =    14.62 Bohr mag/cell

     iteration #  3     ecut=    90.00 Ry     beta= 0.50
     Davidson diagonalization with overlap
     ethr =  2.04E-03,  avg # of iterations =  2.4

     negative rho (up, down):  2.805E-02 3.344E-02

     total cpu time spent up to now is      469.3 secs

     total energy              =   -5539.43342923 Ry
     estimated scf accuracy    <       0.59211299 Ry

     total magnetization       =    12.00 Bohr mag/cell
     absolute magnetization    =    16.25 Bohr mag/cell

     iteration #  4     ecut=    90.00 Ry     beta= 0.50
     Davidson diagonalization with overlap
     ethr =  4.23E-04,  avg # of iterations =  2.1

     negative rho (up, down):  2.820E-02 3.514E-02

     total cpu time spent up to now is      535.0 secs

     total energy              =   -5539.47781360 Ry
     estimated scf accuracy    <       0.11379876 Ry

     total magnetization       =    12.00 Bohr mag/cell
     absolute magnetization    =    16.54 Bohr mag/cell

     iteration #  5     ecut=    90.00 Ry     beta= 0.50
     Davidson diagonalization with overlap
     ethr =  8.13E-05,  avg # of iterations =  3.9

     negative rho (up, down):  2.811E-02 3.565E-02

     total cpu time spent up to now is      613.1 secs

     total energy              =   -5539.48827805 Ry
     estimated scf accuracy    <       0.06038980 Ry

     total magnetization       =    12.00 Bohr mag/cell
     absolute magnetization    =    16.75 Bohr mag/cell

     iteration #  6     ecut=    90.00 Ry     beta= 0.50
     Davidson diagonalization with overlap
     ethr =  4.31E-05,  avg # of iterations =  2.6

     negative rho (up, down):  2.767E-02 3.579E-02

     total cpu time spent up to now is      678.7 secs

     total energy              =   -5539.49757907 Ry
     estimated scf accuracy    <       0.00229902 Ry

     total magnetization       =    12.00 Bohr mag/cell
     absolute magnetization    =    16.86 Bohr mag/cell

     iteration #  7     ecut=    90.00 Ry     beta= 0.50
     Davidson diagonalization with overlap
     ethr =  1.64E-06,  avg # of iterations =  7.1

     negative rho (up, down):  2.736E-02 3.593E-02

     total cpu time spent up to now is      816.6 secs

     total energy              =   -5539.49889896 Ry
     estimated scf accuracy    <       0.00391906 Ry

     total magnetization       =    12.00 Bohr mag/cell
     absolute magnetization    =    17.02 Bohr mag/cell

     iteration #  8     ecut=    90.00 Ry     beta= 0.50
     Davidson diagonalization with overlap
     ethr =  1.64E-06,  avg # of iterations =  3.8

     negative rho (up, down):  2.699E-02 3.615E-02

     total cpu time spent up to now is      890.3 secs

     total energy              =   -5539.49891826 Ry
     estimated scf accuracy    <       0.00290479 Ry

     total magnetization       =    12.00 Bohr mag/cell
     absolute magnetization    =    17.08 Bohr mag/cell

     iteration #  9     ecut=    90.00 Ry     beta= 0.50
     Davidson diagonalization with overlap
     ethr =  1.64E-06,  avg # of iterations =  1.2

     negative rho (up, down):  2.701E-02 3.621E-02

     total cpu time spent up to now is      950.7 secs

     total energy              =   -5539.49908945 Ry
     estimated scf accuracy    <       0.00043461 Ry

     total magnetization       =    12.00 Bohr mag/cell
     absolute magnetization    =    17.12 Bohr mag/cell

     iteration # 10     ecut=    90.00 Ry     beta= 0.50
     Davidson diagonalization with overlap
     ethr =  3.10E-07,  avg # of iterations =  2.5

     negative rho (up, down):  2.697E-02 3.624E-02

     total cpu time spent up to now is     1018.4 secs

     total energy              =   -5539.49915666 Ry
     estimated scf accuracy    <       0.00002656 Ry

     total magnetization       =    12.00 Bohr mag/cell
     absolute magnetization    =    17.09 Bohr mag/cell

     iteration # 11     ecut=    90.00 Ry     beta= 0.50
     Davidson diagonalization with overlap
     ethr =  1.90E-08,  avg # of iterations =  3.5

     negative rho (up, down):  2.690E-02 3.628E-02

     total cpu time spent up to now is     1098.9 secs

     total energy              =   -5539.49916723 Ry
     estimated scf accuracy    <       0.00000671 Ry

     total magnetization       =    12.00 Bohr mag/cell
     absolute magnetization    =    17.09 Bohr mag/cell

     iteration # 12     ecut=    90.00 Ry     beta= 0.50
     Davidson diagonalization with overlap
     ethr =  4.79E-09,  avg # of iterations =  3.0

     negative rho (up, down):  2.688E-02 3.629E-02

     total cpu time spent up to now is     1175.3 secs

     total energy              =   -5539.49916822 Ry
     estimated scf accuracy    <       0.00000655 Ry

     total magnetization       =    12.00 Bohr mag/cell
     absolute magnetization    =    17.10 Bohr mag/cell

     iteration # 13     ecut=    90.00 Ry     beta= 0.50
     Davidson diagonalization with overlap
     ethr =  4.68E-09,  avg # of iterations =  2.0

     negative rho (up, down):  2.687E-02 3.630E-02

     total cpu time spent up to now is     1240.1 secs

     total energy              =   -5539.49916934 Ry
     estimated scf accuracy    <       0.00000251 Ry

     total magnetization       =    12.00 Bohr mag/cell
     absolute magnetization    =    17.10 Bohr mag/cell

     iteration # 14     ecut=    90.00 Ry     beta= 0.50
     Davidson diagonalization with overlap
     ethr =  1.79E-09,  avg # of iterations =  1.6

     negative rho (up, down):  2.686E-02 3.630E-02

     total cpu time spent up to now is     1303.0 secs

     total energy              =   -5539.49916977 Ry
     estimated scf accuracy    <       0.00000031 Ry

     total magnetization       =    12.00 Bohr mag/cell
     absolute magnetization    =    17.10 Bohr mag/cell

     iteration # 15     ecut=    90.00 Ry     beta= 0.50
     Davidson diagonalization with overlap
     ethr =  2.22E-10,  avg # of iterations =  3.6

     negative rho (up, down):  2.686E-02 3.631E-02

     total cpu time spent up to now is     1385.7 secs

     total energy              =   -5539.49916987 Ry
     estimated scf accuracy    <       0.00000009 Ry

     total magnetization       =    12.00 Bohr mag/cell
     absolute magnetization    =    17.10 Bohr mag/cell

     iteration # 16     ecut=    90.00 Ry     beta= 0.50
     Davidson diagonalization with overlap
     ethr =  6.75E-11,  avg # of iterations =  2.4

     negative rho (up, down):  2.685E-02 3.631E-02

     total cpu time spent up to now is     1452.2 secs

     total energy              =   -5539.49916989 Ry
     estimated scf accuracy    <       0.00000003 Ry

     total magnetization       =    12.00 Bohr mag/cell
     absolute magnetization    =    17.10 Bohr mag/cell

     iteration # 17     ecut=    90.00 Ry     beta= 0.50
     Davidson diagonalization with overlap
     ethr =  2.28E-11,  avg # of iterations =  2.5

     negative rho (up, down):  2.685E-02 3.631E-02

     total cpu time spent up to now is     1519.2 secs

     total energy              =   -5539.49916989 Ry
     estimated scf accuracy    <          3.0E-09 Ry

     total magnetization       =    12.00 Bohr mag/cell
     absolute magnetization    =    17.10 Bohr mag/cell

     iteration # 18     ecut=    90.00 Ry     beta= 0.50
     Davidson diagonalization with overlap
     ethr =  2.15E-12,  avg # of iterations =  4.0

     negative rho (up, down):  2.685E-02 3.631E-02

     total cpu time spent up to now is     1611.4 secs

     total energy              =   -5539.49916989 Ry
     estimated scf accuracy    <          3.2E-09 Ry

     total magnetization       =    12.00 Bohr mag/cell
     absolute magnetization    =    17.10 Bohr mag/cell

     iteration # 19     ecut=    90.00 Ry     beta= 0.50
     Davidson diagonalization with overlap
     ethr =  2.15E-12,  avg # of iterations =  1.9

     negative rho (up, down):  2.685E-02 3.631E-02

     total cpu time spent up to now is     1674.6 secs

     total energy              =   -5539.49916989 Ry
     estimated scf accuracy    <          3.9E-10 Ry

     total magnetization       =    12.00 Bohr mag/cell
     absolute magnetization    =    17.10 Bohr mag/cell

     iteration # 20     ecut=    90.00 Ry     beta= 0.50
     Davidson diagonalization with overlap
     ethr =  2.77E-13,  avg # of iterations =  3.0

     negative rho (up, down):  2.685E-02 3.631E-02

     total cpu time spent up to now is     1751.8 secs

     total energy              =   -5539.49916989 Ry
     estimated scf accuracy    <          1.9E-10 Ry

     total magnetization       =    12.00 Bohr mag/cell
     absolute magnetization    =    17.10 Bohr mag/cell

     iteration # 21     ecut=    90.00 Ry     beta= 0.50
     Davidson diagonalization with overlap
     ethr =  1.32E-13,  avg # of iterations =  1.9

     negative rho (up, down):  2.685E-02 3.631E-02

     total cpu time spent up to now is     1815.4 secs

     total energy              =   -5539.49916989 Ry
     estimated scf accuracy    <          8.5E-11 Ry

     total magnetization       =    12.00 Bohr mag/cell
     absolute magnetization    =    17.10 Bohr mag/cell

     iteration # 22     ecut=    90.00 Ry     beta= 0.50
     Davidson diagonalization with overlap
     ethr =  1.00E-13,  avg # of iterations =  1.1

     negative rho (up, down):  2.685E-02 3.631E-02

     total cpu time spent up to now is     1875.3 secs

     total energy              =   -5539.49916989 Ry
     estimated scf accuracy    <          4.9E-11 Ry

     total magnetization       =    12.00 Bohr mag/cell
     absolute magnetization    =    17.10 Bohr mag/cell

     iteration # 23     ecut=    90.00 Ry     beta= 0.50
     Davidson diagonalization with overlap
     ethr =  1.00E-13,  avg # of iterations =  1.0

     negative rho (up, down):  2.685E-02 3.631E-02

     total cpu time spent up to now is     1935.3 secs

     total energy              =   -5539.49916989 Ry
     estimated scf accuracy    <          5.1E-11 Ry

     total magnetization       =    12.00 Bohr mag/cell
     absolute magnetization    =    17.10 Bohr mag/cell

     iteration # 24     ecut=    90.00 Ry     beta= 0.50
     Davidson diagonalization with overlap
     ethr =  1.00E-13,  avg # of iterations =  1.0

     negative rho (up, down):  2.685E-02 3.631E-02

     total cpu time spent up to now is     1995.5 secs

     total energy              =   -5539.49916989 Ry
     estimated scf accuracy    <          1.3E-11 Ry

     total magnetization       =    12.00 Bohr mag/cell
     absolute magnetization    =    17.10 Bohr mag/cell

     iteration # 25     ecut=    90.00 Ry     beta= 0.50
     Davidson diagonalization with overlap
     ethr =  1.00E-13,  avg # of iterations =  1.0

     negative rho (up, down):  2.685E-02 3.631E-02

     total cpu time spent up to now is     2055.4 secs

     total energy              =   -5539.49916989 Ry
     estimated scf accuracy    <          1.8E-11 Ry

     total magnetization       =    12.00 Bohr mag/cell
     absolute magnetization    =    17.10 Bohr mag/cell

     iteration # 26     ecut=    90.00 Ry     beta= 0.50
     Davidson diagonalization with overlap
     ethr =  1.00E-13,  avg # of iterations =  1.0

     negative rho (up, down):  2.685E-02 3.631E-02

     Magnetic moment per site  (integrated on atomic sphere of radius R)
     atom   1 (R=0.162)  charge= 12.3688  magn=  3.3168
     atom   2 (R=0.162)  charge= 12.3733  magn=  3.3174
     atom   3 (R=0.162)  charge=  4.0522  magn= -0.1385
     atom   4 (R=0.162)  charge=  4.0522  magn= -0.1385
     atom   5 (R=0.162)  charge=  4.0522  magn= -0.1385
     atom   6 (R=0.162)  charge=  4.0542  magn= -0.1354
     atom   7 (R=0.162)  charge=  4.0542  magn= -0.1354
     atom   8 (R=0.162)  charge=  4.0540  magn= -0.1354
     atom   9 (R=0.162)  charge= 12.3734  magn=  3.3173
     atom  10 (R=0.162)  charge= 12.3688  magn=  3.3168
     atom  11 (R=0.162)  charge=  4.0541  magn= -0.1354
     atom  12 (R=0.162)  charge=  4.0541  magn= -0.1354
     atom  13 (R=0.162)  charge=  4.0541  magn= -0.1354
     atom  14 (R=0.162)  charge=  4.0521  magn= -0.1385
     atom  15 (R=0.162)  charge=  4.0521  magn= -0.1385
     atom  16 (R=0.162)  charge=  4.0521  magn= -0.1385

     total cpu time spent up to now is     2115.2 secs

     End of self-consistent calculation

     =================== HUBBARD OCCUPATIONS ===================
     ------------------------ ATOM    1 ------------------------
     Tr[ns(  1)] (up, down, total) =   3.76188  0.48514  4.24702
     Atomic magnetic moment for atom   1 =   3.27673
     SPIN  1
     eigenvalues:
       0.508  0.508  0.914  0.914  0.920
     eigenvectors (columns):
      -0.000 -0.000  0.000 -0.000 -1.000
      -0.354 -0.735  0.519 -0.256  0.000
       0.735 -0.354  0.256  0.519 -0.000
       0.253  0.520  0.730 -0.364  0.000
       0.520 -0.253 -0.364 -0.730  0.000
     occupation matrix ns (before diag.):
       0.920 -0.000  0.000  0.000  0.000
      -0.000  0.643  0.000  0.192 -0.001
       0.000  0.000  0.643 -0.001 -0.192
       0.000  0.192 -0.001  0.778  0.000
       0.000 -0.001 -0.192  0.000  0.778
     SPIN  2
     eigenvalues:
       0.040  0.044  0.044  0.179  0.179
     eigenvectors (columns):
      -1.000 -0.000  0.000  0.000 -0.000
      -0.000  0.574 -0.018  0.817 -0.057
       0.000  0.018  0.574  0.057  0.817
      -0.000  0.818 -0.028 -0.573  0.041
      -0.000 -0.028 -0.818  0.041  0.573
     occupation matrix ns (before diag.):
       0.040  0.000 -0.000 -0.000 -0.000
       0.000  0.134 -0.000 -0.064  0.000
      -0.000 -0.000  0.134  0.000  0.064
      -0.000 -0.064  0.000  0.088 -0.000
      -0.000  0.000  0.064 -0.000  0.088
     ------------------------ ATOM    2 ------------------------
     Tr[ns(  2)] (up, down, total) =   3.76261  0.48594  4.24855
     Atomic magnetic moment for atom   2 =   3.27667
     SPIN  1
     eigenvalues:
       0.508  0.508  0.913  0.913  0.919
     eigenvectors (columns):
      -0.000  0.000 -0.000  0.000 -1.000
      -0.238 -0.780 -0.563  0.135  0.000
       0.780 -0.238 -0.135 -0.563 -0.000
       0.170  0.554 -0.792  0.192  0.000
       0.554 -0.170  0.192  0.792  0.000
     occupation matrix ns (before diag.):
       0.919 -0.000  0.000 -0.000  0.000
      -0.000  0.644  0.000  0.191 -0.000
       0.000  0.000  0.644 -0.000 -0.191
      -0.000  0.191 -0.000  0.777  0.000
       0.000 -0.000 -0.191  0.000  0.777
     SPIN  2
     eigenvalues:
       0.040  0.044  0.044  0.179  0.179
     eigenvectors (columns):
       1.000 -0.000 -0.000 -0.000 -0.000
      -0.000 -0.280  0.502  0.691 -0.438
      -0.000 -0.502 -0.280  0.438  0.691
      -0.000 -0.397  0.715 -0.485  0.309
       0.000  0.715  0.397  0.309  0.485
     occupation matrix ns (before diag.):
       0.040  0.000 -0.000  0.000 -0.000
       0.000  0.135 -0.000 -0.064  0.000
      -0.000 -0.000  0.135  0.000  0.064
       0.000 -0.064  0.000  0.088 -0.000
      -0.000  0.000  0.064 -0.000  0.088
     ------------------------ ATOM    9 ------------------------
     Tr[ns(  9)] (up, down, total) =   3.76260  0.48595  4.24855
     Atomic magnetic moment for atom   9 =   3.27665
     SPIN  1
     eigenvalues:
       0.508  0.508  0.913  0.913  0.919
     eigenvectors (columns):
      -0.000 -0.000  0.000  0.000 -1.000
      -0.713  0.394 -0.283 -0.506 -0.000
      -0.394 -0.713  0.506 -0.283  0.000
       0.506 -0.281 -0.399 -0.711 -0.000
      -0.281 -0.506 -0.711  0.399 -0.000
     occupation matrix ns (before diag.):
       0.919  0.000 -0.000 -0.000 -0.000
       0.000  0.644 -0.000  0.191 -0.000
      -0.000 -0.000  0.644 -0.000 -0.191
      -0.000  0.191 -0.000  0.777 -0.000
      -0.000 -0.000 -0.191 -0.000  0.777
     SPIN  2
     eigenvalues:
       0.040  0.044  0.044  0.179  0.179
     eigenvectors (columns):
       1.000  0.000 -0.000  0.000  0.000
      -0.000  0.350 -0.456  0.607 -0.549
       0.000  0.456  0.350  0.549  0.607
      -0.000  0.497 -0.650 -0.426  0.386
      -0.000 -0.650 -0.497  0.386  0.426
     occupation matrix ns (before diag.):
       0.040 -0.000  0.000  0.000  0.000
      -0.000  0.135 -0.000 -0.064  0.000
       0.000 -0.000  0.135  0.000  0.064
       0.000 -0.064  0.000  0.088  0.000
       0.000  0.000  0.064  0.000  0.088
     ------------------------ ATOM   10 ------------------------
     Tr[ns( 10)] (up, down, total) =   3.76189  0.48513  4.24702
     Atomic magnetic moment for atom  10 =   3.27676
     SPIN  1
     eigenvalues:
       0.508  0.508  0.914  0.914  0.920
     eigenvectors (columns):
       0.000 -0.000 -0.000  0.000 -1.000
      -0.814 -0.056  0.045 -0.577 -0.000
      -0.056  0.814 -0.577 -0.045  0.000
       0.577  0.042  0.065 -0.813 -0.000
      -0.042  0.577  0.813  0.065 -0.000
     occupation matrix ns (before diag.):
       0.920  0.000  0.000 -0.000  0.000
       0.000  0.643 -0.000  0.192 -0.001
       0.000 -0.000  0.643 -0.001 -0.192
      -0.000  0.192 -0.001  0.778 -0.000
       0.000 -0.001 -0.192 -0.000  0.778
     SPIN  2
     eigenvalues:
       0.040  0.044  0.044  0.179  0.179
     eigenvectors (columns):
       1.000 -0.000  0.000  0.000 -0.000
      -0.000 -0.361  0.446 -0.618  0.537
       0.000  0.446  0.361  0.537  0.618
      -0.000 -0.516  0.635  0.434 -0.376
      -0.000 -0.635 -0.516  0.376  0.434
     occupation matrix ns (before diag.):
       0.040 -0.000 -0.000  0.000 -0.000
      -0.000  0.134  0.000 -0.064  0.000
      -0.000  0.000  0.134  0.000  0.064
       0.000 -0.064  0.000  0.088 -0.000
      -0.000  0.000  0.064 -0.000  0.088

     Number of occupied Hubbard levels =   16.9911

 ------ SPIN UP ------------


          k = 0.0000 0.0000 0.0000 (109591 PWs)   bands (ev):

   -78.7796 -78.7796 -78.7536 -78.7536 -50.1098 -50.1098 -50.1085 -50.1085
   -50.1084 -50.1084 -50.0840 -50.0840 -50.0830 -50.0830 -50.0830 -50.0830
   -18.5973 -18.5106 -17.7436 -17.6213 -17.4489 -17.4489 -17.4361 -17.4361
   -17.2987 -17.2987 -17.2909 -17.2909 -10.5101 -10.4633 -10.3409 -10.0173
    -9.7544  -9.7543  -9.7537  -9.7537  -9.6694  -9.6694  -9.6437  -9.6437
    -8.8484  -8.7962  -8.7587  -8.6739  -8.6664  -8.6664  -8.6441  -8.6441
    -8.4728  -8.4674  -8.1992  -8.1991  -8.1412  -8.1412  -7.9095  -7.9095
    -7.8866  -7.8866  -7.4180  -7.3631  -7.3631  -7.3171  -7.2509  -7.2508
    -7.1831  -7.1158  -6.8702  -6.3894  -6.3894  -6.2433  -6.2433  -6.1154
    -5.7579  -5.7579  -5.6907  -5.6907  -4.6378  -4.6378  -4.5009  -4.5009
    -4.1127  -4.1127  -4.0975  -4.0975  -1.1305  -0.7419  -0.6120  -0.2211
    -0.0729  -0.0610   0.8223   0.9062   0.9062   0.9560   0.9561   1.1634
     1.6481   1.6481   1.7269   1.9405

          k = 0.0000 0.1925 0.0000 (109722 PWs)   bands (ev):

   -78.7796 -78.7796 -78.7536 -78.7536 -50.1098 -50.1098 -50.1085 -50.1085
   -50.1085 -50.1084 -50.0840 -50.0840 -50.0830 -50.0830 -50.0830 -50.0830
   -18.5361 -18.4515 -17.7097 -17.5925 -17.5414 -17.5119 -17.4822 -17.4551
   -17.3160 -17.3115 -17.2935 -17.2910 -10.4711 -10.4474 -10.2884  -9.9988
    -9.8595  -9.8365  -9.7762  -9.7623  -9.6182  -9.5816  -9.5177  -9.5042
    -8.8646  -8.8037  -8.7642  -8.7148  -8.6664  -8.6463  -8.6074  -8.5937
    -8.5129  -8.5039  -8.1794  -8.1412  -8.1135  -8.0901  -8.0528  -7.9922
    -7.8862  -7.8638  -7.4442  -7.3523  -7.3220  -7.2394  -7.1904  -7.1454
    -7.0666  -7.0173  -6.7501  -6.4220  -6.3521  -6.3180  -6.2577  -6.1598
    -6.0292  -5.8793  -5.8079  -5.7633  -4.6384  -4.6023  -4.5016  -4.4871
    -4.3020  -4.2719  -4.1541  -4.1432  -1.0028  -0.6885  -0.2804   0.0436
     0.1964   0.3624   0.5086   0.6371   0.6917   0.9295   1.2642   1.3554
     1.4984   1.5505   1.6820   1.7615

          k = 0.0000 0.3849 0.0000 (109616 PWs)   bands (ev):

   -78.7796 -78.7796 -78.7536 -78.7536 -50.1098 -50.1098 -50.1085 -50.1085
   -50.1084 -50.1084 -50.0840 -50.0840 -50.0831 -50.0831 -50.0830 -50.0830
   -18.3677 -18.2920 -17.7585 -17.7108 -17.6181 -17.5330 -17.5164 -17.4925
   -17.3748 -17.3375 -17.3250 -17.3071 -10.4764 -10.4384 -10.1264  -9.9417
    -9.8599  -9.7946  -9.6948  -9.6505  -9.5143  -9.4639  -9.4252  -9.3476
    -8.9677  -8.9324  -8.8715  -8.8160  -8.7773  -8.7403  -8.5582  -8.5436
    -8.4787  -8.4403  -8.3092  -8.2749  -8.1314  -8.1243  -7.8640  -7.8273
    -7.8038  -7.7138  -7.5396  -7.4232  -7.3630  -7.1531  -7.0287  -6.9767
    -6.9329  -6.8176  -6.5733  -6.4587  -6.4362  -6.4226  -6.4138  -6.3365
    -6.2908  -5.9436  -5.9135  -5.8838  -4.6286  -4.5450  -4.4885  -4.4547
    -4.4346  -4.3602  -4.2902  -4.2787  -0.9519  -0.8709  -0.0922   0.0065
     0.3353   0.5040   0.7491   0.7976   0.8681   0.9609   1.0162   1.1194
     1.1362   1.3132   1.3798   1.4771

          k = 0.0000-0.5774 0.0000 (109602 PWs)   bands (ev):

   -78.7796 -78.7796 -78.7536 -78.7536 -50.1098 -50.1098 -50.1085 -50.1085
   -50.1084 -50.1084 -50.0840 -50.0840 -50.0831 -50.0831 -50.0830 -50.0830
   -18.1956 -18.1607 -17.9211 -17.8921 -17.5545 -17.5208 -17.5099 -17.4861
   -17.4078 -17.3882 -17.3504 -17.3164 -10.5106 -10.4596  -9.9707  -9.9275
    -9.7979  -9.7815  -9.5255  -9.5133  -9.3945  -9.3729  -9.3634  -9.2199
    -9.1232  -9.1033  -9.0187  -9.0131  -8.8440  -8.8277  -8.5235  -8.5217
    -8.4372  -8.4261  -8.3682  -8.3487  -8.1595  -8.1418  -7.8207  -7.6963
    -7.6286  -7.6125  -7.5649  -7.4455  -7.4308  -7.2345  -7.0096  -6.9488
    -6.8219  -6.6867  -6.6236  -6.5799  -6.5458  -6.5258  -6.3661  -6.3298
    -6.1560  -6.0350  -5.9291  -5.8887  -4.5823  -4.5574  -4.4982  -4.4873
    -4.4228  -4.3592  -4.3011  -4.2821  -1.1770  -1.0755  -0.0158  -0.0063
     0.0639   0.2758   0.6390   0.7434   0.8024   1.0614   1.1022   1.1674
     1.1865   1.2271   1.3505   1.5435

          k = 0.1667 0.2887 0.0000 (109615 PWs)   bands (ev):

   -78.7796 -78.7796 -78.7536 -78.7536 -50.1098 -50.1098 -50.1085 -50.1085
   -50.1084 -50.1084 -50.0840 -50.0840 -50.0831 -50.0831 -50.0830 -50.0830
   -18.4205 -18.3409 -17.6714 -17.6485 -17.6476 -17.5424 -17.5271 -17.5100
   -17.3478 -17.3362 -17.3062 -17.3001 -10.4003 -10.3836 -10.2174 -10.0403
    -9.9622  -9.8472  -9.6547  -9.6129  -9.5751  -9.5238  -9.4328  -9.3867
    -8.9206  -8.8930  -8.8658  -8.8048  -8.6432  -8.6030  -8.5885  -8.5566
    -8.5276  -8.5204  -8.2800  -8.2677  -8.0742  -8.0360  -8.0296  -7.9962
    -7.7587  -7.7153  -7.5381  -7.4670  -7.2268  -7.1414  -7.0650  -7.0456
    -6.9811  -6.9032  -6.6048  -6.4410  -6.3975  -6.3906  -6.3676  -6.2812
    -6.2382  -5.9332  -5.9269  -5.8430  -4.6314  -4.5415  -4.5237  -4.4850
    -4.4511  -4.4006  -4.1935  -4.1539  -0.8764  -0.7173  -0.2655  -0.1999
     0.3974   0.4234   0.5619   0.6624   0.9592   1.0299   1.2066   1.2242
     1.3389   1.3645   1.4667   1.5412

          k = 0.1667 0.4811 0.0000 (109606 PWs)   bands (ev):

   -78.7797 -78.7796 -78.7536 -78.7536 -50.1098 -50.1098 -50.1085 -50.1085
   -50.1084 -50.1084 -50.0840 -50.0840 -50.0831 -50.0831 -50.0830 -50.0830
   -18.2235 -18.1623 -17.8791 -17.8456 -17.5919 -17.5627 -17.5400 -17.4645
   -17.4091 -17.3739 -17.3377 -17.3158 -10.3748 -10.3216 -10.0580  -9.9753
    -9.9243  -9.8060  -9.5594  -9.5355  -9.4857  -9.4440  -9.3924  -9.2769
    -9.0794  -9.0683  -8.8519  -8.8343  -8.8271  -8.8033  -8.5629  -8.5032
    -8.4779  -8.4750  -8.4376  -8.3950  -8.0760  -8.0434  -7.9226  -7.8731
    -7.7567  -7.6697  -7.4698  -7.3550  -7.2637  -7.1235  -7.0525  -6.9715
    -6.9210  -6.8352  -6.6136  -6.5418  -6.5080  -6.4404  -6.3754  -6.2914
    -6.1495  -6.0529  -5.9285  -5.8791  -4.6001  -4.5490  -4.4832  -4.4383
    -4.3910  -4.3637  -4.2395  -4.2040  -1.0278  -0.9632  -0.5329  -0.4130
     0.1108   0.3396   0.4847   0.5481   0.6858   0.7867   1.0291   1.1054
     1.1274   1.1988   1.2455   1.3660

          k = 0.3333 0.5774 0.0000 (109542 PWs)   bands (ev):

   -78.7797 -78.7796 -78.7537 -78.7537 -50.1098 -50.1098 -50.1085 -50.1085
   -50.1084 -50.1084 -50.0840 -50.0840 -50.0831 -50.0831 -50.0830 -50.0830
   -18.0472 -18.0195 -18.0195 -17.9799 -17.6282 -17.6282 -17.4725 -17.4411
   -17.4410 -17.3929 -17.3372 -17.3372 -10.1005 -10.0867 -10.0867  -9.9925
    -9.9925  -9.9832  -9.6407  -9.5406  -9.5406  -9.4776  -9.2486  -9.2088
    -9.2088  -9.1006  -8.8172  -8.8172  -8.7712  -8.7712  -8.5873  -8.5701
    -8.5701  -8.5159  -8.4286  -8.4286  -8.0203  -8.0203  -7.8996  -7.8602
    -7.8602  -7.8523  -7.2911  -7.2025  -7.2025  -7.0670  -7.0670  -7.0079
    -7.0079  -6.8906  -6.6546  -6.6546  -6.4106  -6.3676  -6.3676  -6.3451
    -6.1046  -5.9799  -5.9799  -5.8529  -4.5765  -4.5765  -4.4256  -4.3703
    -4.3703  -4.3441  -4.1456  -4.1456  -1.0188  -0.8969  -0.8969  -0.8118
     0.1156   0.1157   0.1310   0.3687   0.4370   0.4370   0.8400   0.8400
     1.0016   1.0747   1.1894   1.1894

          k =-0.1667 0.0962 0.0000 (109722 PWs)   bands (ev):

   -78.7796 -78.7796 -78.7536 -78.7536 -50.1098 -50.1098 -50.1085 -50.1085
   -50.1085 -50.1084 -50.0840 -50.0840 -50.0830 -50.0830 -50.0830 -50.0830
   -18.5361 -18.4515 -17.7097 -17.5925 -17.5414 -17.5119 -17.4822 -17.4551
   -17.3160 -17.3115 -17.2935 -17.2910 -10.4711 -10.4474 -10.2884  -9.9988
    -9.8595  -9.8365  -9.7762  -9.7623  -9.6182  -9.5816  -9.5177  -9.5042
    -8.8646  -8.8037  -8.7642  -8.7148  -8.6664  -8.6463  -8.6074  -8.5937
    -8.5129  -8.5039  -8.1794  -8.1412  -8.1135  -8.0901  -8.0528  -7.9922
    -7.8862  -7.8638  -7.4442  -7.3523  -7.3220  -7.2394  -7.1904  -7.1454
    -7.0666  -7.0172  -6.7501  -6.4220  -6.3521  -6.3180  -6.2577  -6.1598
    -6.0292  -5.8793  -5.8079  -5.7633  -4.6384  -4.6023  -4.5016  -4.4871
    -4.3020  -4.2719  -4.1541  -4.1432  -1.0028  -0.6885  -0.2804   0.0436
     0.1964   0.3624   0.5086   0.6371   0.6917   0.9295   1.2642   1.3554
     1.4984   1.5505   1.6820   1.7615

          k = 0.1667 0.0962 0.0000 (109722 PWs)   bands (ev):

   -78.7796 -78.7796 -78.7536 -78.7536 -50.1098 -50.1098 -50.1085 -50.1085
   -50.1085 -50.1084 -50.0840 -50.0840 -50.0830 -50.0830 -50.0830 -50.0830
   -18.5361 -18.4515 -17.7097 -17.5925 -17.5414 -17.5119 -17.4822 -17.4551
   -17.3160 -17.3115 -17.2935 -17.2910 -10.4711 -10.4474 -10.2884  -9.9988
    -9.8595  -9.8364  -9.7762  -9.7623  -9.6182  -9.5816  -9.5177  -9.5042
    -8.8646  -8.8037  -8.7642  -8.7148  -8.6664  -8.6463  -8.6074  -8.5937
    -8.5129  -8.5039  -8.1794  -8.1412  -8.1135  -8.0901  -8.0528  -7.9922
    -7.8862  -7.8638  -7.4442  -7.3523  -7.3220  -7.2394  -7.1904  -7.1454
    -7.0666  -7.0172  -6.7501  -6.4220  -6.3521  -6.3180  -6.2577  -6.1598
    -6.0292  -5.8793  -5.8079  -5.7633  -4.6384  -4.6023  -4.5016  -4.4871
    -4.3020  -4.2719  -4.1541  -4.1432  -1.0028  -0.6885  -0.2804   0.0436
     0.1964   0.3624   0.5086   0.6371   0.6917   0.9295   1.2642   1.3554
     1.4984   1.5505   1.6820   1.7615

          k =-0.3333 0.1925 0.0000 (109616 PWs)   bands (ev):

   -78.7796 -78.7796 -78.7536 -78.7536 -50.1098 -50.1098 -50.1085 -50.1085
   -50.1084 -50.1084 -50.0840 -50.0840 -50.0831 -50.0831 -50.0830 -50.0830
   -18.3677 -18.2920 -17.7584 -17.7108 -17.6181 -17.5331 -17.5164 -17.4925
   -17.3748 -17.3375 -17.3250 -17.3071 -10.4764 -10.4384 -10.1264  -9.9417
    -9.8599  -9.7946  -9.6948  -9.6505  -9.5143  -9.4638  -9.4252  -9.3476
    -8.9677  -8.9324  -8.8715  -8.8160  -8.7773  -8.7403  -8.5582  -8.5436
    -8.4787  -8.4403  -8.3092  -8.2749  -8.1314  -8.1243  -7.8640  -7.8273
    -7.8038  -7.7138  -7.5396  -7.4232  -7.3630  -7.1531  -7.0287  -6.9767
    -6.9329  -6.8176  -6.5733  -6.4587  -6.4362  -6.4226  -6.4138  -6.3365
    -6.2908  -5.9436  -5.9135  -5.8838  -4.6286  -4.5451  -4.4885  -4.4547
    -4.4346  -4.3602  -4.2902  -4.2787  -0.9519  -0.8709  -0.0922   0.0065
     0.3353   0.5040   0.7491   0.7976   0.8681   0.9609   1.0162   1.1194
     1.1362   1.3132   1.3798   1.4771

          k = 0.3333 0.1925 0.0000 (109616 PWs)   bands (ev):

   -78.7796 -78.7796 -78.7536 -78.7536 -50.1098 -50.1098 -50.1085 -50.1085
   -50.1084 -50.1084 -50.0840 -50.0840 -50.0831 -50.0831 -50.0830 -50.0830
   -18.3677 -18.2920 -17.7584 -17.7108 -17.6181 -17.5331 -17.5164 -17.4925
   -17.3748 -17.3375 -17.3250 -17.3071 -10.4764 -10.4384 -10.1264  -9.9417
    -9.8599  -9.7946  -9.6948  -9.6505  -9.5143  -9.4638  -9.4252  -9.3476
    -8.9677  -8.9324  -8.8715  -8.8160  -8.7773  -8.7403  -8.5582  -8.5436
    -8.4787  -8.4403  -8.3092  -8.2749  -8.1314  -8.1243  -7.8640  -7.8273
    -7.8038  -7.7138  -7.5396  -7.4232  -7.3630  -7.1531  -7.0287  -6.9767
    -6.9329  -6.8176  -6.5733  -6.4587  -6.4362  -6.4226  -6.4138  -6.3365
    -6.2908  -5.9436  -5.9135  -5.8838  -4.6286  -4.5450  -4.4885  -4.4547
    -4.4346  -4.3602  -4.2902  -4.2787  -0.9519  -0.8709  -0.0922   0.0065
     0.3353   0.5040   0.7491   0.7976   0.8681   0.9609   1.0162   1.1194
     1.1362   1.3132   1.3798   1.4771

          k = 0.5000-0.2887 0.0000 (109602 PWs)   bands (ev):

   -78.7796 -78.7796 -78.7536 -78.7536 -50.1098 -50.1098 -50.1085 -50.1085
   -50.1084 -50.1084 -50.0840 -50.0840 -50.0831 -50.0831 -50.0830 -50.0830
   -18.1956 -18.1607 -17.9211 -17.8921 -17.5545 -17.5208 -17.5099 -17.4861
   -17.4078 -17.3882 -17.3504 -17.3164 -10.5106 -10.4596  -9.9707  -9.9275
    -9.7979  -9.7815  -9.5255  -9.5133  -9.3945  -9.3729  -9.3634  -9.2199
    -9.1232  -9.1033  -9.0187  -9.0131  -8.8440  -8.8277  -8.5235  -8.5218
    -8.4371  -8.4261  -8.3682  -8.3487  -8.1595  -8.1417  -7.8207  -7.6963
    -7.6286  -7.6125  -7.5649  -7.4455  -7.4308  -7.2345  -7.0096  -6.9487
    -6.8220  -6.6867  -6.6236  -6.5799  -6.5458  -6.5258  -6.3661  -6.3299
    -6.1560  -6.0350  -5.9291  -5.8887  -4.5823  -4.5574  -4.4982  -4.4873
    -4.4228  -4.3592  -4.3011  -4.2821  -1.1770  -1.0755  -0.0158  -0.0063
     0.0639   0.2758   0.6390   0.7434   0.8024   1.0614   1.1022   1.1674
     1.1865   1.2271   1.3505   1.5435

          k =-0.5000-0.2887 0.0000 (109602 PWs)   bands (ev):

   -78.7796 -78.7796 -78.7536 -78.7536 -50.1098 -50.1098 -50.1085 -50.1085
   -50.1084 -50.1084 -50.0840 -50.0840 -50.0831 -50.0831 -50.0830 -50.0830
   -18.1956 -18.1607 -17.9211 -17.8921 -17.5545 -17.5208 -17.5099 -17.4861
   -17.4078 -17.3882 -17.3504 -17.3164 -10.5106 -10.4596  -9.9707  -9.9275
    -9.7979  -9.7815  -9.5255  -9.5133  -9.3945  -9.3729  -9.3634  -9.2199
    -9.1232  -9.1033  -9.0187  -9.0131  -8.8440  -8.8277  -8.5235  -8.5218
    -8.4371  -8.4261  -8.3682  -8.3487  -8.1595  -8.1417  -7.8207  -7.6963
    -7.6286  -7.6125  -7.5649  -7.4455  -7.4308  -7.2345  -7.0096  -6.9488
    -6.8220  -6.6867  -6.6236  -6.5799  -6.5458  -6.5258  -6.3661  -6.3298
    -6.1560  -6.0350  -5.9291  -5.8887  -4.5823  -4.5574  -4.4982  -4.4873
    -4.4228  -4.3592  -4.3011  -4.2821  -1.1770  -1.0755  -0.0158  -0.0063
     0.0639   0.2758   0.6390   0.7434   0.8024   1.0614   1.1022   1.1674
     1.1865   1.2271   1.3505   1.5435

          k =-0.1667 0.2887 0.0000 (109615 PWs)   bands (ev):

   -78.7796 -78.7796 -78.7536 -78.7536 -50.1098 -50.1098 -50.1085 -50.1085
   -50.1084 -50.1084 -50.0840 -50.0840 -50.0831 -50.0831 -50.0830 -50.0830
   -18.4205 -18.3409 -17.6714 -17.6485 -17.6476 -17.5424 -17.5271 -17.5100
   -17.3478 -17.3362 -17.3062 -17.3001 -10.4003 -10.3836 -10.2174 -10.0403
    -9.9622  -9.8472  -9.6547  -9.6129  -9.5751  -9.5238  -9.4328  -9.3867
    -8.9206  -8.8930  -8.8658  -8.8048  -8.6432  -8.6030  -8.5885  -8.5566
    -8.5276  -8.5204  -8.2800  -8.2677  -8.0742  -8.0360  -8.0296  -7.9962
    -7.7587  -7.7153  -7.5381  -7.4670  -7.2268  -7.1414  -7.0650  -7.0456
    -6.9811  -6.9032  -6.6048  -6.4410  -6.3975  -6.3906  -6.3676  -6.2812
    -6.2382  -5.9332  -5.9269  -5.8430  -4.6314  -4.5415  -4.5237  -4.4850
    -4.4511  -4.4006  -4.1935  -4.1539  -0.8764  -0.7173  -0.2655  -0.1999
     0.3974   0.4234   0.5619   0.6624   0.9592   1.0299   1.2066   1.2242
     1.3389   1.3645   1.4667   1.5412

          k = 0.3333 0.0000 0.0000 (109615 PWs)   bands (ev):

   -78.7796 -78.7796 -78.7536 -78.7536 -50.1098 -50.1098 -50.1085 -50.1085
   -50.1084 -50.1084 -50.0840 -50.0840 -50.0831 -50.0831 -50.0830 -50.0830
   -18.4205 -18.3409 -17.6714 -17.6485 -17.6476 -17.5425 -17.5271 -17.5100
   -17.3478 -17.3362 -17.3062 -17.3001 -10.4003 -10.3836 -10.2174 -10.0403
    -9.9622  -9.8472  -9.6547  -9.6129  -9.5751  -9.5238  -9.4328  -9.3867
    -8.9206  -8.8930  -8.8658  -8.8048  -8.6432  -8.6030  -8.5885  -8.5566
    -8.5276  -8.5204  -8.2800  -8.2677  -8.0742  -8.0360  -8.0296  -7.9962
    -7.7587  -7.7153  -7.5381  -7.4670  -7.2268  -7.1414  -7.0650  -7.0456
    -6.9811  -6.9032  -6.6048  -6.4410  -6.3975  -6.3906  -6.3676  -6.2812
    -6.2382  -5.9332  -5.9269  -5.8430  -4.6314  -4.5415  -4.5237  -4.4850
    -4.4511  -4.4006  -4.1935  -4.1539  -0.8764  -0.7173  -0.2655  -0.1999
     0.3974   0.4234   0.5619   0.6624   0.9592   1.0299   1.2066   1.2242
     1.3389   1.3645   1.4667   1.5412

          k =-0.3333 0.3849 0.0000 (109606 PWs)   bands (ev):

   -78.7797 -78.7796 -78.7536 -78.7536 -50.1098 -50.1098 -50.1085 -50.1085
   -50.1084 -50.1084 -50.0840 -50.0840 -50.0831 -50.0831 -50.0830 -50.0830
   -18.2235 -18.1623 -17.8791 -17.8456 -17.5919 -17.5627 -17.5400 -17.4645
   -17.4091 -17.3739 -17.3377 -17.3158 -10.3748 -10.3216 -10.0580  -9.9753
    -9.9243  -9.8060  -9.5594  -9.5355  -9.4857  -9.4440  -9.3924  -9.2769
    -9.0794  -9.0683  -8.8519  -8.8344  -8.8271  -8.8033  -8.5629  -8.5032
    -8.4779  -8.4750  -8.4376  -8.3950  -8.0760  -8.0434  -7.9226  -7.8731
    -7.7567  -7.6697  -7.4698  -7.3550  -7.2637  -7.1235  -7.0525  -6.9715
    -6.9210  -6.8352  -6.6136  -6.5418  -6.5080  -6.4404  -6.3754  -6.2914
    -6.1495  -6.0529  -5.9285  -5.8791  -4.6001  -4.5490  -4.4832  -4.4383
    -4.3910  -4.3637  -4.2395  -4.2040  -1.0278  -0.9632  -0.5329  -0.4130
     0.1108   0.3396   0.4847   0.5481   0.6858   0.7867   1.0291   1.1054
     1.1274   1.1988   1.2455   1.3660

          k =-0.1667 0.4811 0.0000 (109606 PWs)   bands (ev):

   -78.7797 -78.7796 -78.7536 -78.7536 -50.1098 -50.1098 -50.1085 -50.1085
   -50.1084 -50.1084 -50.0840 -50.0840 -50.0831 -50.0831 -50.0830 -50.0830
   -18.2237 -18.1619 -17.8821 -17.8424 -17.5922 -17.5646 -17.5381 -17.4640
   -17.4103 -17.3720 -17.3400 -17.3146 -10.3786 -10.3147 -10.0735  -9.9622
    -9.9156  -9.8196  -9.5590  -9.5195  -9.4869  -9.4554  -9.3779  -9.3028
    -9.0807  -9.0443  -8.8679  -8.8420  -8.8267  -8.7956  -8.5372  -8.5127
    -8.4764  -8.4749  -8.4552  -8.3910  -8.0959  -8.0390  -7.9068  -7.8622
    -7.7494  -7.6821  -7.4791  -7.3620  -7.2463  -7.1195  -7.0497  -6.9885
    -6.9573  -6.7853  -6.6317  -6.5373  -6.5074  -6.4153  -6.3769  -6.2928
    -6.2036  -6.0012  -5.9345  -5.8897  -4.5848  -4.5782  -4.4854  -4.4347
    -4.3799  -4.3509  -4.2450  -4.2100  -1.0451  -0.9423  -0.5331  -0.4169
     0.1205   0.3255   0.4658   0.5424   0.6846   0.8580   0.9649   1.0493
     1.1780   1.2380   1.3030   1.3412

          k = 0.5000 0.0962 0.0000 (109606 PWs)   bands (ev):

   -78.7797 -78.7796 -78.7536 -78.7536 -50.1098 -50.1098 -50.1085 -50.1085
   -50.1084 -50.1084 -50.0840 -50.0840 -50.0831 -50.0831 -50.0830 -50.0830
   -18.2235 -18.1623 -17.8791 -17.8455 -17.5919 -17.5627 -17.5400 -17.4645
   -17.4091 -17.3739 -17.3377 -17.3158 -10.3748 -10.3216 -10.0580  -9.9753
    -9.9243  -9.8060  -9.5594  -9.5355  -9.4857  -9.4440  -9.3924  -9.2769
    -9.0794  -9.0683  -8.8519  -8.8343  -8.8271  -8.8033  -8.5629  -8.5032
    -8.4779  -8.4750  -8.4376  -8.3950  -8.0760  -8.0434  -7.9226  -7.8731
    -7.7567  -7.6697  -7.4698  -7.3550  -7.2637  -7.1235  -7.0525  -6.9715
    -6.9210  -6.8352  -6.6136  -6.5418  -6.5080  -6.4404  -6.3754  -6.2914
    -6.1496  -6.0529  -5.9285  -5.8791  -4.6001  -4.5490  -4.4832  -4.4383
    -4.3910  -4.3637  -4.2395  -4.2040  -1.0278  -0.9632  -0.5329  -0.4130
     0.1108   0.3396   0.4847   0.5481   0.6858   0.7867   1.0291   1.1054
     1.1274   1.1988   1.2455   1.3660

          k =-0.3333-0.3849 0.0000 (109606 PWs)   bands (ev):

   -78.7797 -78.7796 -78.7536 -78.7536 -50.1098 -50.1098 -50.1085 -50.1085
   -50.1084 -50.1084 -50.0840 -50.0840 -50.0831 -50.0831 -50.0830 -50.0830
   -18.2237 -18.1620 -17.8821 -17.8424 -17.5923 -17.5646 -17.5382 -17.4641
   -17.4103 -17.3720 -17.3400 -17.3146 -10.3786 -10.3147 -10.0735  -9.9622
    -9.9156  -9.8196  -9.5590  -9.5195  -9.4869  -9.4554  -9.3779  -9.3028
    -9.0807  -9.0444  -8.8678  -8.8420  -8.8267  -8.7956  -8.5372  -8.5127
    -8.4764  -8.4749  -8.4552  -8.3910  -8.0959  -8.0390  -7.9068  -7.8622
    -7.7494  -7.6821  -7.4791  -7.3620  -7.2463  -7.1195  -7.0497  -6.9885
    -6.9573  -6.7853  -6.6317  -6.5373  -6.5074  -6.4153  -6.3769  -6.2928
    -6.2036  -6.0012  -5.9345  -5.8897  -4.5848  -4.5782  -4.4854  -4.4347
    -4.3799  -4.3509  -4.2450  -4.2100  -1.0451  -0.9423  -0.5331  -0.4169
     0.1205   0.3255   0.4658   0.5424   0.6846   0.8580   0.9649   1.0493
     1.1780   1.2380   1.3030   1.3412

          k = 0.5000-0.0962 0.0000 (109606 PWs)   bands (ev):

   -78.7797 -78.7796 -78.7536 -78.7536 -50.1098 -50.1098 -50.1085 -50.1085
   -50.1084 -50.1084 -50.0840 -50.0840 -50.0831 -50.0831 -50.0830 -50.0830
   -18.2237 -18.1620 -17.8821 -17.8424 -17.5923 -17.5646 -17.5382 -17.4640
   -17.4103 -17.3720 -17.3400 -17.3146 -10.3786 -10.3147 -10.0735  -9.9622
    -9.9156  -9.8196  -9.5590  -9.5195  -9.4868  -9.4554  -9.3779  -9.3028
    -9.0807  -9.0443  -8.8679  -8.8420  -8.8267  -8.7956  -8.5372  -8.5127
    -8.4764  -8.4749  -8.4552  -8.3910  -8.0959  -8.0390  -7.9068  -7.8622
    -7.7494  -7.6821  -7.4791  -7.3620  -7.2463  -7.1195  -7.0497  -6.9885
    -6.9573  -6.7853  -6.6317  -6.5373  -6.5074  -6.4153  -6.3769  -6.2928
    -6.2036  -6.0012  -5.9345  -5.8897  -4.5848  -4.5782  -4.4854  -4.4347
    -4.3799  -4.3509  -4.2450  -4.2100  -1.0451  -0.9423  -0.5331  -0.4169
     0.1205   0.3255   0.4658   0.5424   0.6846   0.8580   0.9649   1.0493
     1.1780   1.2380   1.3030   1.3412

 ------ SPIN DOWN ----------


          k = 0.0000 0.0000 0.0000 (109591 PWs)   bands (ev):

   -75.3050 -75.3050 -75.2793 -75.2793 -46.6949 -46.6949 -46.6850 -46.6850
   -46.6850 -46.6850 -46.6680 -46.6680 -46.6605 -46.6605 -46.6605 -46.6605
   -18.6731 -18.5817 -17.8785 -17.7574 -17.5596 -17.5596 -17.5473 -17.5473
   -17.3771 -17.3771 -17.3704 -17.3704 -10.0851 -10.0325  -9.7155  -9.2218
    -9.0932  -9.0932  -8.9957  -8.9957  -8.8473  -8.7610  -8.7491  -8.7491
    -8.6983  -8.6983  -7.9538  -7.9441  -7.6219  -7.6219  -7.5144  -7.5144
    -7.3488  -7.3081  -7.2330  -7.2330  -7.1861  -7.1861  -6.9896  -6.3559
    -6.3559  -6.2903  -6.2903  -6.2791  -5.9218  -5.9218  -5.8633  -5.8633
    -2.2063  -2.2063  -2.1569  -2.1569  -2.1041  -2.1041  -2.0704  -2.0704
    -2.0074  -1.9352  -1.8260  -1.8162  -1.6242  -1.6242  -1.6172  -1.6172
    -1.4890  -1.4889  -1.4835  -1.4835  -0.3263  -0.2075  -0.1330   0.1519
     0.1573   0.3369   1.0060   1.2031   1.2031   1.2169   1.2169   1.3731
     1.8032   1.9684   1.9684   2.0523

          k = 0.0000 0.1925 0.0000 (109722 PWs)   bands (ev):

   -75.3050 -75.3050 -75.2793 -75.2793 -46.6949 -46.6949 -46.6850 -46.6850
   -46.6850 -46.6850 -46.6680 -46.6680 -46.6605 -46.6605 -46.6605 -46.6605
   -18.6137 -18.5247 -17.8395 -17.7245 -17.6515 -17.6220 -17.5973 -17.5704
   -17.3939 -17.3855 -17.3717 -17.3678 -10.0501 -10.0251  -9.6761  -9.2656
    -9.1866  -9.1424  -9.0115  -8.9684  -8.9118  -8.8621  -8.7257  -8.6897
    -8.3304  -8.2642  -7.8193  -7.7320  -7.6833  -7.6812  -7.6451  -7.5343
    -7.3506  -7.2643  -7.2362  -7.1723  -7.1381  -7.1155  -6.8444  -6.5227
    -6.4505  -6.4255  -6.3682  -6.3321  -6.2183  -6.1004  -6.0148  -5.9458
    -2.2300  -2.2232  -2.1706  -2.1461  -2.1334  -2.1186  -2.0922  -2.0611
    -1.8774  -1.8550  -1.8205  -1.8109  -1.6429  -1.6273  -1.6234  -1.6076
    -1.5661  -1.5484  -1.5417  -1.5294  -0.2094   0.0536   0.1118   0.4023
     0.5675   0.5844   0.6972   0.8860   0.9343   1.1431   1.4418   1.6700
     1.7271   1.7490   1.9703   2.0150

          k = 0.0000 0.3849 0.0000 (109616 PWs)   bands (ev):

   -75.3050 -75.3050 -75.2793 -75.2793 -46.6949 -46.6949 -46.6850 -46.6850
   -46.6849 -46.6849 -46.6680 -46.6680 -46.6605 -46.6605 -46.6604 -46.6604
   -18.4492 -18.3699 -17.8657 -17.8168 -17.7364 -17.6591 -17.6407 -17.6116
   -17.4539 -17.4076 -17.4036 -17.3752 -10.0003  -9.9664  -9.5441  -9.3497
    -9.2901  -9.1476  -9.0788  -8.8918  -8.8200  -8.6122  -8.5416  -8.3781
    -8.2164  -8.0470  -7.8476  -7.7556  -7.7249  -7.6218  -7.5485  -7.3577
    -7.3175  -7.2144  -7.1961  -7.1480  -7.1136  -7.0873  -6.9231  -6.8536
    -6.7362  -6.6820  -6.4889  -6.4183  -6.3881  -6.1411  -6.1326  -6.0710
    -2.2462  -2.2299  -2.2223  -2.1958  -2.1804  -2.1457  -2.0232  -2.0044
    -1.9683  -1.9545  -1.7555  -1.7471  -1.7333  -1.6937  -1.6567  -1.6366
    -1.5997  -1.5834  -1.5164  -1.5019  -0.2853  -0.2109   0.4845   0.5680
     0.7301   0.8010   0.9183   1.0163   1.1451   1.1671   1.2711   1.3552
     1.4311   1.5681   1.6309   1.7373

          k = 0.0000-0.5774 0.0000 (109602 PWs)   bands (ev):

   -75.3050 -75.3050 -75.2793 -75.2793 -46.6949 -46.6949 -46.6850 -46.6850
   -46.6849 -46.6849 -46.6680 -46.6680 -46.6606 -46.6605 -46.6604 -46.6604
   -18.2757 -18.2401 -18.0280 -17.9982 -17.6829 -17.6409 -17.6334 -17.5946
   -17.4955 -17.4698 -17.4133 -17.3811  -9.9953  -9.9371  -9.4025  -9.3760
    -9.3196  -9.1931  -8.8524  -8.7573  -8.6204  -8.6081  -8.5106  -8.4760
    -8.1977  -8.0750  -7.9079  -7.8139  -7.6721  -7.6550  -7.5704  -7.4366
    -7.4111  -7.3799  -7.3235  -7.1228  -6.9159  -6.9146  -6.8724  -6.8223
    -6.7781  -6.7070  -6.5755  -6.5075  -6.3599  -6.2956  -6.0402  -6.0394
    -2.3195  -2.2897  -2.2142  -2.2116  -2.1900  -2.1869  -2.0008  -1.9864
    -1.9523  -1.9413  -1.9264  -1.8927  -1.7526  -1.7078  -1.5938  -1.5699
    -1.5553  -1.5320  -1.5282  -1.4941  -0.5466  -0.3881   0.2206   0.4931
     0.8184   0.8700   0.8848   0.9628   1.1616   1.3025   1.3415   1.3871
     1.4412   1.5624   1.6416   1.7636

          k = 0.1667 0.2887 0.0000 (109615 PWs)   bands (ev):

   -75.3050 -75.3050 -75.2793 -75.2793 -46.6949 -46.6949 -46.6850 -46.6850
   -46.6849 -46.6849 -46.6680 -46.6680 -46.6605 -46.6605 -46.6604 -46.6604
   -18.5011 -18.4178 -17.7779 -17.7693 -17.7554 -17.6694 -17.6488 -17.6268
   -17.4280 -17.4121 -17.3808 -17.3708  -9.9757  -9.9525  -9.6129  -9.3246
    -9.2490  -9.2227  -9.0568  -8.9934  -8.8764  -8.6893  -8.5523  -8.4746
    -8.1114  -7.9649  -7.9232  -7.8554  -7.7353  -7.6932  -7.4800  -7.3618
    -7.3178  -7.2799  -7.1824  -7.1432  -7.0481  -7.0168  -6.9928  -6.8655
    -6.5621  -6.5094  -6.4643  -6.4357  -6.4080  -6.1655  -6.1188  -6.0702
    -2.2601  -2.2093  -2.1866  -2.1633  -2.1234  -2.1184  -2.0729  -2.0482
    -1.9844  -1.9584  -1.7255  -1.7089  -1.6992  -1.6840  -1.6752  -1.6367
    -1.5855  -1.5743  -1.5366  -1.5087  -0.1686  -0.0320   0.3123   0.4024
     0.6147   0.6467   0.8288   0.8858   1.1456   1.1912   1.4188   1.5008
     1.5360   1.6142   1.6942   1.7688

          k = 0.1667 0.4811 0.0000 (109606 PWs)   bands (ev):

   -75.3050 -75.3049 -75.2793 -75.2793 -46.6949 -46.6949 -46.6850 -46.6850
   -46.6849 -46.6849 -46.6680 -46.6680 -46.6606 -46.6606 -46.6604 -46.6604
   -18.3075 -18.2433 -17.9813 -17.9451 -17.7181 -17.6899 -17.6525 -17.5780
   -17.4963 -17.4610 -17.4011 -17.3815  -9.8796  -9.8281  -9.4591  -9.3748
    -9.3095  -9.1008  -9.0754  -8.8657  -8.8054  -8.5367  -8.5119  -8.4505
    -8.3194  -8.1724  -7.8891  -7.8110  -7.6666  -7.6182  -7.5103  -7.4653
    -7.4284  -7.3750  -7.2265  -7.0477  -6.9806  -6.8655  -6.8122  -6.7617
    -6.7049  -6.6594  -6.5332  -6.4640  -6.3424  -6.2388  -6.1587  -6.1039
    -2.2418  -2.2245  -2.2018  -2.1720  -2.1580  -2.1463  -2.0861  -2.0427
    -2.0287  -1.9856  -1.9069  -1.8410  -1.8054  -1.7391  -1.5849  -1.5831
    -1.5352  -1.5258  -1.4921  -1.4679  -0.4279  -0.2879   0.1505   0.1634
     0.3952   0.7149   0.7618   0.8056   0.9823   1.0714   1.2505   1.3590
     1.4121   1.4357   1.4871   1.6162

          k = 0.3333 0.5774 0.0000 (109542 PWs)   bands (ev):

   -75.3050 -75.3049 -75.2793 -75.2793 -46.6949 -46.6949 -46.6850 -46.6850
   -46.6849 -46.6849 -46.6680 -46.6680 -46.6606 -46.6606 -46.6604 -46.6604
   -18.1369 -18.1087 -18.1087 -18.0685 -17.7591 -17.7591 -17.5744 -17.5416
   -17.5416 -17.4976 -17.3970 -17.3970  -9.6373  -9.5686  -9.5686  -9.4834
    -9.1183  -9.1095  -9.1095  -8.8759  -8.8671  -8.8671  -8.4389  -8.3473
    -8.3473  -8.2602  -8.2602  -8.0431  -7.5871  -7.5871  -7.5419  -7.5419
    -7.1818  -7.1818  -7.1772  -6.9755  -6.9755  -6.8279  -6.7250  -6.6615
    -6.6615  -6.6038  -6.5317  -6.5317  -6.2678  -6.2232  -6.2232  -6.1805
    -2.1765  -2.1765  -2.1653  -2.1480  -2.1479  -2.1220  -2.1016  -2.1016
    -2.0853  -2.0258  -2.0258  -1.9747  -1.7775  -1.7774  -1.5408  -1.5408
    -1.5270  -1.4702  -1.4702  -1.4442  -0.3469  -0.2747  -0.2747  -0.2272
     0.4082   0.4082   0.5553   0.6795   0.6795   0.7555   1.1076   1.1076
     1.2435   1.4139   1.4848   1.4848

          k =-0.1667 0.0962 0.0000 (109722 PWs)   bands (ev):

   -75.3050 -75.3050 -75.2793 -75.2793 -46.6949 -46.6949 -46.6850 -46.6850
   -46.6850 -46.6850 -46.6680 -46.6680 -46.6605 -46.6605 -46.6605 -46.6604
   -18.6137 -18.5247 -17.8395 -17.7245 -17.6515 -17.6220 -17.5973 -17.5704
   -17.3939 -17.3855 -17.3717 -17.3678 -10.0501 -10.0251  -9.6761  -9.2656
    -9.1866  -9.1424  -9.0115  -8.9684  -8.9118  -8.8621  -8.7256  -8.6897
    -8.3304  -8.2642  -7.8193  -7.7320  -7.6833  -7.6812  -7.6451  -7.5343
    -7.3506  -7.2643  -7.2362  -7.1723  -7.1381  -7.1155  -6.8444  -6.5227
    -6.4505  -6.4255  -6.3682  -6.3321  -6.2183  -6.1004  -6.0148  -5.9458
    -2.2300  -2.2232  -2.1706  -2.1461  -2.1334  -2.1186  -2.0922  -2.0611
    -1.8774  -1.8550  -1.8205  -1.8109  -1.6429  -1.6273  -1.6234  -1.6076
    -1.5661  -1.5484  -1.5417  -1.5294  -0.2094   0.0536   0.1118   0.4023
     0.5675   0.5844   0.6972   0.8860   0.9343   1.1431   1.4418   1.6700
     1.7271   1.7490   1.9703   2.0150

          k = 0.1667 0.0962 0.0000 (109722 PWs)   bands (ev):

   -75.3050 -75.3050 -75.2793 -75.2793 -46.6949 -46.6949 -46.6850 -46.6850
   -46.6850 -46.6850 -46.6680 -46.6680 -46.6605 -46.6605 -46.6605 -46.6605
   -18.6137 -18.5247 -17.8395 -17.7245 -17.6515 -17.6220 -17.5973 -17.5704
   -17.3939 -17.3855 -17.3717 -17.3678 -10.0501 -10.0251  -9.6761  -9.2656
    -9.1866  -9.1424  -9.0115  -8.9684  -8.9118  -8.8621  -8.7257  -8.6897
    -8.3304  -8.2642  -7.8193  -7.7320  -7.6833  -7.6812  -7.6451  -7.5343
    -7.3506  -7.2643  -7.2362  -7.1723  -7.1381  -7.1155  -6.8444  -6.5227
    -6.4505  -6.4255  -6.3682  -6.3321  -6.2183  -6.1004  -6.0148  -5.9458
    -2.2300  -2.2232  -2.1706  -2.1461  -2.1334  -2.1186  -2.0922  -2.0611
    -1.8774  -1.8550  -1.8205  -1.8109  -1.6429  -1.6273  -1.6234  -1.6076
    -1.5661  -1.5484  -1.5417  -1.5294  -0.2094   0.0536   0.1118   0.4023
     0.5675   0.5844   0.6972   0.8860   0.9343   1.1431   1.4418   1.6700
     1.7271   1.7490   1.9703   2.0150

          k =-0.3333 0.1925 0.0000 (109616 PWs)   bands (ev):

   -75.3050 -75.3050 -75.2793 -75.2793 -46.6949 -46.6949 -46.6850 -46.6850
   -46.6849 -46.6849 -46.6680 -46.6680 -46.6605 -46.6605 -46.6604 -46.6604
   -18.4492 -18.3699 -17.8657 -17.8168 -17.7364 -17.6591 -17.6407 -17.6116
   -17.4539 -17.4076 -17.4036 -17.3752 -10.0003  -9.9664  -9.5441  -9.3497
    -9.2901  -9.1476  -9.0788  -8.8918  -8.8200  -8.6122  -8.5416  -8.3781
    -8.2164  -8.0470  -7.8476  -7.7556  -7.7249  -7.6218  -7.5485  -7.3577
    -7.3175  -7.2144  -7.1961  -7.1480  -7.1136  -7.0873  -6.9231  -6.8536
    -6.7362  -6.6820  -6.4889  -6.4183  -6.3881  -6.1411  -6.1326  -6.0710
    -2.2462  -2.2299  -2.2223  -2.1958  -2.1804  -2.1457  -2.0232  -2.0044
    -1.9683  -1.9545  -1.7555  -1.7471  -1.7333  -1.6937  -1.6567  -1.6366
    -1.5998  -1.5834  -1.5164  -1.5019  -0.2853  -0.2109   0.4845   0.5680
     0.7301   0.8010   0.9183   1.0163   1.1451   1.1671   1.2711   1.3552
     1.4311   1.5681   1.6309   1.7373

          k = 0.3333 0.1925 0.0000 (109616 PWs)   bands (ev):

   -75.3050 -75.3050 -75.2793 -75.2793 -46.6949 -46.6949 -46.6850 -46.6850
   -46.6849 -46.6849 -46.6680 -46.6680 -46.6605 -46.6605 -46.6604 -46.6604
   -18.4492 -18.3699 -17.8657 -17.8168 -17.7364 -17.6591 -17.6407 -17.6116
   -17.4539 -17.4076 -17.4036 -17.3752 -10.0003  -9.9664  -9.5441  -9.3497
    -9.2901  -9.1476  -9.0788  -8.8918  -8.8200  -8.6122  -8.5416  -8.3781
    -8.2164  -8.0470  -7.8476  -7.7556  -7.7249  -7.6218  -7.5485  -7.3577
    -7.3175  -7.2144  -7.1961  -7.1480  -7.1136  -7.0873  -6.9231  -6.8536
    -6.7362  -6.6820  -6.4889  -6.4183  -6.3881  -6.1411  -6.1326  -6.0710
    -2.2462  -2.2299  -2.2223  -2.1958  -2.1804  -2.1457  -2.0232  -2.0044
    -1.9683  -1.9545  -1.7555  -1.7471  -1.7333  -1.6937  -1.6567  -1.6366
    -1.5997  -1.5834  -1.5164  -1.5019  -0.2853  -0.2109   0.4845   0.5680
     0.7301   0.8010   0.9183   1.0163   1.1451   1.1671   1.2711   1.3552
     1.4311   1.5681   1.6309   1.7373

          k = 0.5000-0.2887 0.0000 (109602 PWs)   bands (ev):

   -75.3050 -75.3050 -75.2793 -75.2793 -46.6949 -46.6949 -46.6850 -46.6850
   -46.6849 -46.6849 -46.6680 -46.6680 -46.6606 -46.6605 -46.6604 -46.6604
   -18.2758 -18.2401 -18.0280 -17.9982 -17.6829 -17.6409 -17.6334 -17.5946
   -17.4955 -17.4698 -17.4133 -17.3811  -9.9953  -9.9371  -9.4025  -9.3760
    -9.3196  -9.1931  -8.8524  -8.7573  -8.6204  -8.6081  -8.5106  -8.4760
    -8.1977  -8.0750  -7.9079  -7.8139  -7.6721  -7.6550  -7.5704  -7.4366
    -7.4111  -7.3799  -7.3235  -7.1228  -6.9159  -6.9146  -6.8724  -6.8223
    -6.7781  -6.7070  -6.5755  -6.5076  -6.3599  -6.2956  -6.0402  -6.0394
    -2.3195  -2.2897  -2.2142  -2.2117  -2.1900  -2.1869  -2.0008  -1.9864
    -1.9523  -1.9413  -1.9264  -1.8927  -1.7526  -1.7077  -1.5938  -1.5699
    -1.5553  -1.5320  -1.5282  -1.4941  -0.5466  -0.3881   0.2206   0.4931
     0.8184   0.8700   0.8848   0.9628   1.1616   1.3025   1.3415   1.3871
     1.4412   1.5624   1.6416   1.7636

          k =-0.5000-0.2887 0.0000 (109602 PWs)   bands (ev):

   -75.3050 -75.3050 -75.2793 -75.2793 -46.6949 -46.6949 -46.6850 -46.6850
   -46.6849 -46.6849 -46.6680 -46.6680 -46.6606 -46.6605 -46.6604 -46.6604
   -18.2758 -18.2401 -18.0280 -17.9982 -17.6829 -17.6409 -17.6334 -17.5946
   -17.4955 -17.4698 -17.4133 -17.3811  -9.9953  -9.9371  -9.4025  -9.3760
    -9.3196  -9.1931  -8.8524  -8.7573  -8.6204  -8.6081  -8.5106  -8.4760
    -8.1977  -8.0750  -7.9079  -7.8139  -7.6721  -7.6550  -7.5704  -7.4366
    -7.4111  -7.3799  -7.3235  -7.1228  -6.9159  -6.9146  -6.8724  -6.8223
    -6.7781  -6.7070  -6.5755  -6.5076  -6.3599  -6.2956  -6.0402  -6.0394
    -2.3195  -2.2897  -2.2142  -2.2116  -2.1900  -2.1869  -2.0008  -1.9864
    -1.9523  -1.9413  -1.9264  -1.8927  -1.7526  -1.7078  -1.5938  -1.5699
    -1.5553  -1.5320  -1.5282  -1.4941  -0.5466  -0.3881   0.2206   0.4931
     0.8184   0.8700   0.8848   0.9628   1.1616   1.3025   1.3415   1.3871
     1.4412   1.5624   1.6416   1.7636

          k =-0.1667 0.2887 0.0000 (109615 PWs)   bands (ev):

   -75.3050 -75.3050 -75.2793 -75.2793 -46.6949 -46.6949 -46.6850 -46.6850
   -46.6849 -46.6849 -46.6680 -46.6680 -46.6606 -46.6605 -46.6604 -46.6604
   -18.5011 -18.4178 -17.7779 -17.7693 -17.7554 -17.6694 -17.6488 -17.6268
   -17.4280 -17.4121 -17.3808 -17.3708  -9.9757  -9.9525  -9.6129  -9.3246
    -9.2490  -9.2227  -9.0568  -8.9934  -8.8764  -8.6893  -8.5523  -8.4746
    -8.1114  -7.9649  -7.9232  -7.8554  -7.7353  -7.6932  -7.4800  -7.3618
    -7.3178  -7.2799  -7.1824  -7.1432  -7.0481  -7.0168  -6.9928  -6.8655
    -6.5621  -6.5094  -6.4643  -6.4357  -6.4080  -6.1655  -6.1188  -6.0702
    -2.2601  -2.2093  -2.1866  -2.1633  -2.1234  -2.1184  -2.0729  -2.0482
    -1.9844  -1.9584  -1.7255  -1.7089  -1.6992  -1.6840  -1.6752  -1.6367
    -1.5855  -1.5743  -1.5366  -1.5087  -0.1686  -0.0320   0.3123   0.4024
     0.6147   0.6467   0.8288   0.8858   1.1456   1.1912   1.4188   1.5008
     1.5360   1.6142   1.6942   1.7688

          k = 0.3333 0.0000 0.0000 (109615 PWs)   bands (ev):

   -75.3050 -75.3050 -75.2793 -75.2793 -46.6949 -46.6949 -46.6850 -46.6850
   -46.6849 -46.6849 -46.6680 -46.6680 -46.6605 -46.6605 -46.6604 -46.6604
   -18.5011 -18.4178 -17.7779 -17.7693 -17.7554 -17.6694 -17.6488 -17.6269
   -17.4280 -17.4121 -17.3808 -17.3708  -9.9757  -9.9525  -9.6129  -9.3246
    -9.2490  -9.2227  -9.0568  -8.9934  -8.8764  -8.6893  -8.5523  -8.4746
    -8.1114  -7.9649  -7.9233  -7.8554  -7.7353  -7.6932  -7.4800  -7.3618
    -7.3178  -7.2799  -7.1824  -7.1432  -7.0481  -7.0168  -6.9928  -6.8655
    -6.5621  -6.5094  -6.4643  -6.4357  -6.4080  -6.1655  -6.1188  -6.0702
    -2.2601  -2.2093  -2.1866  -2.1633  -2.1234  -2.1184  -2.0729  -2.0482
    -1.9844  -1.9584  -1.7255  -1.7089  -1.6992  -1.6840  -1.6752  -1.6367
    -1.5855  -1.5743  -1.5366  -1.5087  -0.1686  -0.0320   0.3123   0.4024
     0.6147   0.6467   0.8288   0.8858   1.1456   1.1912   1.4188   1.5008
     1.5360   1.6142   1.6942   1.7688

          k =-0.3333 0.3849 0.0000 (109606 PWs)   bands (ev):

   -75.3050 -75.3049 -75.2793 -75.2793 -46.6949 -46.6949 -46.6850 -46.6850
   -46.6849 -46.6849 -46.6680 -46.6680 -46.6606 -46.6606 -46.6604 -46.6604
   -18.3075 -18.2433 -17.9813 -17.9451 -17.7181 -17.6899 -17.6525 -17.5780
   -17.4963 -17.4610 -17.4011 -17.3815  -9.8796  -9.8281  -9.4591  -9.3748
    -9.3095  -9.1008  -9.0754  -8.8657  -8.8054  -8.5367  -8.5119  -8.4505
    -8.3194  -8.1724  -7.8891  -7.8110  -7.6666  -7.6182  -7.5103  -7.4653
    -7.4284  -7.3750  -7.2265  -7.0477  -6.9806  -6.8655  -6.8122  -6.7617
    -6.7049  -6.6594  -6.5332  -6.4640  -6.3424  -6.2388  -6.1587  -6.1039
    -2.2418  -2.2245  -2.2018  -2.1720  -2.1580  -2.1463  -2.0861  -2.0427
    -2.0287  -1.9856  -1.9069  -1.8410  -1.8054  -1.7391  -1.5849  -1.5831
    -1.5352  -1.5258  -1.4921  -1.4679  -0.4279  -0.2879   0.1505   0.1634
     0.3952   0.7149   0.7618   0.8056   0.9823   1.0714   1.2505   1.3590
     1.4121   1.4357   1.4870   1.6162

          k =-0.1667 0.4811 0.0000 (109606 PWs)   bands (ev):

   -75.3050 -75.3049 -75.2793 -75.2793 -46.6949 -46.6949 -46.6850 -46.6850
   -46.6849 -46.6849 -46.6680 -46.6680 -46.6606 -46.6606 -46.6604 -46.6604
   -18.3077 -18.2430 -17.9839 -17.9423 -17.7214 -17.6866 -17.6524 -17.5792
   -17.4943 -17.4620 -17.4026 -17.3802  -9.8873  -9.8143  -9.5001  -9.3282
    -9.3082  -9.1128  -9.0813  -8.8495  -8.8011  -8.5907  -8.5067  -8.4127
    -8.3296  -8.1645  -7.8722  -7.8325  -7.6735  -7.6060  -7.5236  -7.4485
    -7.4163  -7.3967  -7.2256  -7.0387  -6.9559  -6.8838  -6.8698  -6.7541
    -6.6549  -6.6469  -6.5460  -6.4802  -6.3473  -6.2314  -6.1474  -6.1146
    -2.2476  -2.2282  -2.1886  -2.1722  -2.1659  -2.1430  -2.0669  -2.0516
    -2.0325  -2.0011  -1.8802  -1.8543  -1.7998  -1.7479  -1.6005  -1.5747
    -1.5306  -1.5178  -1.4968  -1.4693  -0.4229  -0.2914   0.1019   0.2168
     0.4202   0.6285   0.7611   0.8639   0.9613   1.0822   1.2763   1.3085
     1.4124   1.4407   1.5494   1.6592

          k = 0.5000 0.0962 0.0000 (109606 PWs)   bands (ev):

   -75.3050 -75.3049 -75.2793 -75.2793 -46.6949 -46.6949 -46.6850 -46.6850
   -46.6849 -46.6849 -46.6680 -46.6680 -46.6606 -46.6606 -46.6604 -46.6604
   -18.3075 -18.2433 -17.9813 -17.9451 -17.7181 -17.6899 -17.6525 -17.5780
   -17.4963 -17.4610 -17.4011 -17.3815  -9.8796  -9.8281  -9.4591  -9.3748
    -9.3095  -9.1008  -9.0754  -8.8657  -8.8054  -8.5367  -8.5119  -8.4505
    -8.3194  -8.1724  -7.8891  -7.8110  -7.6666  -7.6182  -7.5103  -7.4653
    -7.4284  -7.3750  -7.2265  -7.0477  -6.9806  -6.8655  -6.8122  -6.7617
    -6.7049  -6.6594  -6.5332  -6.4640  -6.3424  -6.2388  -6.1587  -6.1039
    -2.2418  -2.2245  -2.2018  -2.1720  -2.1580  -2.1463  -2.0861  -2.0427
    -2.0287  -1.9856  -1.9069  -1.8410  -1.8054  -1.7391  -1.5849  -1.5831
    -1.5352  -1.5258  -1.4921  -1.4679  -0.4279  -0.2879   0.1505   0.1633
     0.3952   0.7149   0.7618   0.8056   0.9823   1.0714   1.2505   1.3590
     1.4121   1.4357   1.4871   1.6162

          k =-0.3333-0.3849 0.0000 (109606 PWs)   bands (ev):

   -75.3050 -75.3049 -75.2793 -75.2793 -46.6949 -46.6949 -46.6850 -46.6850
   -46.6849 -46.6849 -46.6680 -46.6680 -46.6606 -46.6606 -46.6604 -46.6604
   -18.3077 -18.2430 -17.9839 -17.9423 -17.7214 -17.6866 -17.6524 -17.5792
   -17.4943 -17.4620 -17.4026 -17.3802  -9.8873  -9.8143  -9.5001  -9.3282
    -9.3082  -9.1128  -9.0813  -8.8495  -8.8011  -8.5907  -8.5067  -8.4127
    -8.3296  -8.1645  -7.8722  -7.8325  -7.6735  -7.6060  -7.5236  -7.4485
    -7.4163  -7.3967  -7.2256  -7.0387  -6.9559  -6.8838  -6.8698  -6.7541
    -6.6549  -6.6469  -6.5460  -6.4802  -6.3473  -6.2314  -6.1474  -6.1146
    -2.2476  -2.2282  -2.1886  -2.1722  -2.1659  -2.1430  -2.0669  -2.0516
    -2.0325  -2.0011  -1.8802  -1.8543  -1.7998  -1.7479  -1.6005  -1.5747
    -1.5306  -1.5178  -1.4968  -1.4693  -0.4229  -0.2914   0.1019   0.2168
     0.4202   0.6285   0.7611   0.8638   0.9613   1.0822   1.2763   1.3085
     1.4124   1.4407   1.5494   1.6592

          k = 0.5000-0.0962 0.0000 (109606 PWs)   bands (ev):

   -75.3050 -75.3049 -75.2793 -75.2793 -46.6949 -46.6949 -46.6850 -46.6850
   -46.6849 -46.6849 -46.6680 -46.6680 -46.6606 -46.6606 -46.6604 -46.6604
   -18.3077 -18.2430 -17.9839 -17.9423 -17.7214 -17.6866 -17.6524 -17.5792
   -17.4943 -17.4620 -17.4026 -17.3802  -9.8873  -9.8143  -9.5001  -9.3282
    -9.3082  -9.1128  -9.0813  -8.8495  -8.8011  -8.5907  -8.5067  -8.4127
    -8.3296  -8.1645  -7.8722  -7.8325  -7.6735  -7.6060  -7.5236  -7.4485
    -7.4163  -7.3967  -7.2256  -7.0387  -6.9559  -6.8838  -6.8698  -6.7541
    -6.6549  -6.6469  -6.5460  -6.4802  -6.3473  -6.2314  -6.1474  -6.1146
    -2.2476  -2.2282  -2.1886  -2.1722  -2.1659  -2.1430  -2.0669  -2.0516
    -2.0325  -2.0011  -1.8802  -1.8543  -1.7998  -1.7479  -1.6005  -1.5747
    -1.5306  -1.5178  -1.4968  -1.4693  -0.4229  -0.2914   0.1019   0.2168
     0.4202   0.6285   0.7611   0.8639   0.9613   1.0822   1.2763   1.3085
     1.4124   1.4407   1.5494   1.6592

     highest occupied, lowest unoccupied level (ev):    -5.6907   -4.6384

!    total energy              =   -5539.49916989 Ry
     total all-electron energy =     -5539.499170 Ry
     estimated scf accuracy    <          4.3E-12 Ry

     The total energy is the sum of the following terms:
     one-electron contribution =   -9586.23255525 Ry
     hartree contribution      =    4766.32409228 Ry
     xc contribution           =    -165.77949680 Ry
     ewald contribution        =    3989.39166454 Ry
     Hubbard energy            =       0.69131191 Ry
     one-center paw contrib.   =   -4543.89418656 Ry

     total magnetization       =    12.00 Bohr mag/cell
     absolute magnetization    =    17.10 Bohr mag/cell

     convergence has been achieved in  26 iterations

     negative rho (up, down):  2.685E-02 3.631E-02

     Forces acting on atoms (cartesian axes, Ry/au):

     atom    1 type  1   force =    -0.00000147    0.00000001   -0.00092217
     atom    2 type  1   force =     0.00000477    0.00000047    0.00002910
     atom    3 type  2   force =     0.01351000    0.00009400   -0.02123148
     atom    4 type  2   force =    -0.00667284   -0.01174652   -0.02123113
     atom    5 type  2   force =    -0.00683624    0.01165221   -0.02122939
     atom    6 type  2   force =    -0.01348301    0.00011673    0.02343585
     atom    7 type  2   force =     0.00684490    0.01161675    0.02343437
     atom    8 type  2   force =     0.00663863   -0.01173578    0.02343504
     atom    9 type  1   force =    -0.00000456    0.00000396   -0.00002760
     atom   10 type  1   force =     0.00000187   -0.00000404    0.00092638
     atom   11 type  2   force =     0.01348293   -0.00012258   -0.02343582
     atom   12 type  2   force =    -0.00684749   -0.01161532   -0.02343591
     atom   13 type  2   force =    -0.00663526    0.01173818   -0.02343524
     atom   14 type  2   force =    -0.01350995   -0.00009837    0.02122974
     atom   15 type  2   force =     0.00666810    0.01174923    0.02122909
     atom   16 type  2   force =     0.00683961   -0.01164893    0.02122918

     Total force =     0.090483     Total SCF correction =     0.000005


     Computing stress (Cartesian axis) and pressure


     negative rho (up, down):  2.685E-02 3.631E-02
          total   stress  (Ry/bohr**3)                   (kbar)     P=       20.81
   0.00014333  -0.00000000  -0.00000000           21.08       -0.00       -0.00
  -0.00000000   0.00014333  -0.00000000           -0.00       21.08       -0.00
  -0.00000000  -0.00000000   0.00013763           -0.00       -0.00       20.25


     Writing all to output data dir ./lt_fm_qe/lt_fm_qe.save/ :
     XML data file, charge density, pseudopotentials, collected wavefunctions

     init_run     :     49.06s CPU     50.10s WALL (       1 calls)
     electrons    :   1995.17s CPU   2065.00s WALL (       1 calls)
     forces       :    386.06s CPU    389.25s WALL (       1 calls)
     stress       :   1533.94s CPU   1548.11s WALL (       1 calls)

     Called by init_run:
     wfcinit      :     46.43s CPU     47.30s WALL (       1 calls)
     potinit      :      1.10s CPU      1.16s WALL (       1 calls)
     hinit0       :      0.91s CPU      0.92s WALL (       1 calls)

     Called by electrons:
     c_bands      :   1656.87s CPU   1716.53s WALL (      26 calls)
     sum_band     :    298.88s CPU    306.38s WALL (      26 calls)
     v_of_rho     :      5.87s CPU      6.06s WALL (      27 calls)
     newd         :      8.49s CPU     10.06s WALL (      27 calls)
     PAW_pot      :     22.45s CPU     22.84s WALL (      27 calls)
     mix_rho      :      3.04s CPU      3.12s WALL (      26 calls)

     Called by c_bands:
     init_us_2    :     25.40s CPU     25.76s WALL (    2320 calls)
     init_us_2:cp :     25.37s CPU     25.74s WALL (    2320 calls)
     cegterg      :   1597.13s CPU   1655.67s WALL (    1040 calls)

     Called by *egterg:
     cdiaghg      :    147.47s CPU    148.59s WALL (    4000 calls)
     h_psi        :   1079.79s CPU   1109.73s WALL (    4040 calls)
     s_psi        :     64.51s CPU     65.18s WALL (    4240 calls)
     g_psi        :      9.34s CPU      9.47s WALL (    2960 calls)

     Called by h_psi:
     h_psi:calbec :     72.44s CPU     74.06s WALL (    4040 calls)
     vloc_psi     :    847.79s CPU    862.04s WALL (    4040 calls)
     add_vuspsi   :     57.58s CPU     58.19s WALL (    4040 calls)
     vhpsi        :     85.87s CPU     87.00s WALL (    4040 calls)

     General routines
     calbec       :    397.46s CPU    402.85s WALL (   72440 calls)
     fft          :      4.74s CPU      4.99s WALL (     713 calls)
     ffts         :      0.34s CPU      0.37s WALL (     106 calls)
     fftw         :    770.43s CPU    783.82s WALL (  635450 calls)
     interpolate  :      0.55s CPU      0.66s WALL (      54 calls)

     Parallel routines

     Hubbard U routines
     new_ns       :     15.64s CPU     16.03s WALL (      26 calls)
     vhpsi        :     85.87s CPU     87.00s WALL (    4040 calls)
     force_hub    :    378.55s CPU    381.57s WALL (       1 calls)
                                        0.00s GPU  (       1 calls)
     stres_hub    :   1404.49s CPU   1417.02s WALL (       1 calls)
                                        0.00s GPU  (       1 calls)

     PWSCF        :      1h 6m CPU      1h 8m WALL


   This run was terminated on:  16:12:35  15Oct2025            

=------------------------------------------------------------------------------=
   JOB DONE.
=------------------------------------------------------------------------------=
