
     Program PWSCF v.7.3 starts on 15Oct2025 at 15: 1:43 

     This program is part of the open-source Quantum ESPRESSO suite
     for quantum simulation of materials; please cite
         "P. Giannozzi et al., J. Phys.:Condens. Matter 21 395502 (2009);
         "P. Giannozzi et al., J. Phys.:Condens. Matter 29 465901 (2017);
         "P. Giannozzi et al., J. Chem. Phys. 152 154105 (2020);
          URL http://www.quantum-espresso.org", 
     in publications or presentations arising from this work. More details at
     http://www.quantum-espresso.org/quote

     Parallel version (MPI), running on    24 processors

     MPI processes distributed on     1 nodes
     53120 MiB available memory on the printing compute node when the environment starts

     Reading input from lt_fm_afm_qe.scf.in
Warning: card &CELL ignored
Warning: card / ignored

     Current dimensions of program PWSCF are:
     Max number of different atomic species (ntypx) = 10
     Max number of k-points (npk) =  40000
     Max angular momentum in pseudopotentials (lmaxx) =  4
read_pp_mesh; mismatch in mesh size, discarding the one in header
read_pp_mesh; mismatch in mesh size, discarding the one in header
read_pp_mesh; mismatch in mesh size, discarding the one in header
     file Cr.GGA-PBE-paw.UPF: wavefunction(s)  3S 4S 3P 4P 3D 4D renormalized
     file I.GGA-PBE-paw.UPF: wavefunction(s)  6S 6P renormalized
     file Cr.GGA-PBE-paw.UPF: wavefunction(s)  3S 4S 3P 4P 3D 4D renormalized

     IMPORTANT: XC functional enforced from input :
     Exchange-correlation= PBE
                           (   1   4   3   4   0   0   0)
     Any further DFT definition will be discarded
     Please, verify this is what you really want


     R & G space division:  proc/nbgrp/npool/nimage =      24
     Subspace diagonalization in iterative solution of the eigenvalue problem:
     a serial algorithm will be used


     Parallelization info
     --------------------
     sticks:   dense  smooth     PW     G-vecs:    dense   smooth      PW
     Min         179     174     46                38065    36532    5046
     Max         180     175     47                38082    36557    5059
     Sum        4303    4189   1123               913669   876961  121297

     Using Slab Decomposition



     bravais-lattice index     =            0
     lattice parameter (alat)  =      12.9956  a.u.
     unit-cell volume          =    7602.9282 (a.u.)^3
     number of atoms/cell      =           16
     number of atomic types    =            3
     number of electrons       =       140.00 (up:  70.00, down:  70.00)
     number of Kohn-Sham states=          100
     kinetic-energy cutoff     =      90.0000  Ry
     charge density cutoff     =     370.0000  Ry
     scf convergence threshold =      1.0E-11
     mixing beta               =       0.5000
     number of iterations used =            8  plain     mixing
     Exchange-correlation= PBE
                           (   1   4   3   4   0   0   0)
     Hubbard projectors: ortho-atomic
     Hubbard parameters of DFT+U (Dudarev formulation) in eV:
     U(Cr-3d) =  4.3700
     J0(Cr-3d) =  0.5700
     U(Cr1-3d) =  4.3700
     J0(Cr1-3d) =  0.5700

     Internal variables: lda_plus_u =T, lda_plus_u_kind = 0

     celldm(1)=  12.995613  celldm(2)=   0.000000  celldm(3)=   0.000000
     celldm(4)=   0.000000  celldm(5)=   0.000000  celldm(6)=   0.000000

     crystal axes: (cart. coord. in units of alat)
               a(1) = (   1.000000  -0.000000   0.000000 )  
               a(2) = (  -0.500000   0.866025   0.000000 )  
               a(3) = (  -0.000000   0.000000   4.000000 )  

     reciprocal axes: (cart. coord. in units 2 pi/alat)
               b(1) = (  1.000000  0.577350  0.000000 )  
               b(2) = (  0.000000  1.154701  0.000000 )  
               b(3) = ( -0.000000 -0.000000  0.250000 )  


     PseudoPot. # 1 for Cr read from file:
     ../../Cr.GGA-PBE-paw.UPF
     MD5 check sum: 0e9dc003703e132720ff5dfacba66d28
     Pseudo is Projector augmented-wave + core cor, Zval = 14.0
     Generated using ATOMPAW code
     Shape of augmentation charge: SINC**2
     Using radial grid of 2342 points,  6 beta functions with: 
                l(1) =   0
                l(2) =   0
                l(3) =   1
                l(4) =   1
                l(5) =   2
                l(6) =   2
     Q(r) pseudized with 0 coefficients 


     PseudoPot. # 2 for I  read from file:
     ../../I.GGA-PBE-paw.UPF
     MD5 check sum: 736bb4145856fa7ed29d0984862794a4
     Pseudo is Projector augmented-wave + core cor, Zval =  7.0
     Generated using ATOMPAW code
     Shape of augmentation charge: SINC**2
     Using radial grid of 2342 points,  4 beta functions with: 
                l(1) =   0
                l(2) =   0
                l(3) =   1
                l(4) =   1
     Q(r) pseudized with 0 coefficients 


     PseudoPot. # 3 for Cr read from file:
     ../../Cr.GGA-PBE-paw.UPF
     MD5 check sum: 0e9dc003703e132720ff5dfacba66d28
     Pseudo is Projector augmented-wave + core cor, Zval = 14.0
     Generated using ATOMPAW code
     Shape of augmentation charge: SINC**2
     Using radial grid of 2342 points,  6 beta functions with: 
                l(1) =   0
                l(2) =   0
                l(3) =   1
                l(4) =   1
                l(5) =   2
                l(6) =   2
     Q(r) pseudized with 0 coefficients 


     atomic species   valence    mass     pseudopotential
     Cr               14.00    51.99610     Cr( 1.00)
     I                 7.00   126.90447     I ( 1.00)
     Cr1              14.00    51.99610     Cr( 1.00)

     Starting magnetic structure 
     atomic species   magnetization
     Cr              0.214
     I               0.000
     Cr1            -0.214

     No symmetry found



   Cartesian axes

     site n.     atom                  positions (alat units)
         1        Cr     tau(   1) = (   0.3333302   0.5773476   2.4771345  )
         2        Cr     tau(   2) = (  -0.1666653   0.8660272   2.4783670  )
         3        I      tau(   3) = (   0.4785934   0.2878151   2.2541471  )
         4        I      tau(   4) = (   0.0099554   0.5963201   2.2541472  )
         5        I      tau(   5) = (  -0.4885529   0.8479194   2.2541494  )
         6        I      tau(   6) = (   0.1887678   0.2890994   2.7012541  )
         7        I      tau(   7) = (   0.1559814   0.8466725   2.7012541  )
         8        I      tau(   8) = (  -0.3447532   0.5962818   2.7012518  )
         9        Cr1    tau(   9) = (   0.8333317   0.2886782   1.5216322  )
        10        Cr1    tau(  10) = (   0.3333282   0.5773496   1.5228650  )
        11        I      tau(  11) = (   0.9778967  -0.0004210   1.2987495  )
        12        I      tau(  12) = (   0.5106847   0.3080297   1.2987460  )
        13        I      tau(  13) = (   0.0114148   0.5584203   1.2987445  )
        14        I      tau(  14) = (   0.6880724   0.0008651   1.7458527  )
        15        I      tau(  15) = (   0.6567094   0.5583828   1.7458520  )
        16        I      tau(  16) = (   0.1552143   0.3067811   1.7458532  )

     number of k points=    20
                       cart. coord. in units 2pi/alat
        k(    1) = (   0.0000000   0.0000000   0.0000000), wk =   0.0277778
        k(    2) = (   0.0000000   0.1924501   0.0000000), wk =   0.0555556
        k(    3) = (   0.0000000   0.3849002   0.0000000), wk =   0.0555556
        k(    4) = (   0.0000000  -0.5773503   0.0000000), wk =   0.0277778
        k(    5) = (   0.1666667   0.2886751   0.0000000), wk =   0.0555556
        k(    6) = (   0.1666667   0.4811252   0.0000000), wk =   0.0555556
        k(    7) = (   0.3333333   0.5773503   0.0000000), wk =   0.0555556
        k(    8) = (  -0.1666667   0.0962250   0.0000000), wk =   0.0555556
        k(    9) = (   0.1666667   0.0962250   0.0000000), wk =   0.0555556
        k(   10) = (  -0.3333333   0.1924501   0.0000000), wk =   0.0555556
        k(   11) = (   0.3333333   0.1924501   0.0000000), wk =   0.0555556
        k(   12) = (   0.5000000  -0.2886751   0.0000000), wk =   0.0277778
        k(   13) = (  -0.5000000  -0.2886751   0.0000000), wk =   0.0277778
        k(   14) = (  -0.1666667   0.2886751   0.0000000), wk =   0.0555556
        k(   15) = (   0.3333333   0.0000000   0.0000000), wk =   0.0555556
        k(   16) = (  -0.1666667   0.4811252   0.0000000), wk =   0.0555556
        k(   17) = (  -0.3333333   0.3849002   0.0000000), wk =   0.0555556
        k(   18) = (   0.5000000   0.0962250   0.0000000), wk =   0.0555556
        k(   19) = (  -0.3333333  -0.3849002   0.0000000), wk =   0.0555556
        k(   20) = (   0.5000000  -0.0962250   0.0000000), wk =   0.0555556

     Dense  grid:   913669 G-vectors     FFT dimensions: (  80,  80, 320)

     Smooth grid:   876961 G-vectors     FFT dimensions: (  80,  80, 320)

     Estimated max dynamical RAM per process >     595.33 MB

     Estimated total dynamical RAM >      13.95 GB
 ----2D----2D----2D----2D----2D----2D----2D----2D----2D----2D----2D----2D
  The code is running with the 2D cutoff
  Please refer to:
  Sohier, T., Calandra, M., & Mauri, F. (2017), 
  Density functional perturbation theory for gated two-dimensional heterostructures:
  Theoretical developments and application to flexural phonons in graphene.
  Physical Review B, 96(7), 75448. https://doi.org/10.1103/PhysRevB.96.075448
 ----2D----2D----2D----2D----2D----2D----2D----2D----2D----2D----2D----2D
     Generating pointlists ...
     new r_m :   0.1620 (alat units)  2.1047 (a.u.) for type    1
     new r_m :   0.1620 (alat units)  2.1047 (a.u.) for type    2
     new r_m :   0.1620 (alat units)  2.1047 (a.u.) for type    3
     Cannot read rho : file not found

     Initial potential from superposition of free atoms

     starting charge     139.9932, renormalised to     140.0000

     negative rho (up, down):  2.631E-02 2.631E-02

     STARTING HUBBARD OCCUPATIONS:

     =================== HUBBARD OCCUPATIONS ===================
     ------------------------ ATOM    1 ------------------------
     Tr[ns(  1)] (up, down, total) =   5.00000  0.00000  5.00000
     Atomic magnetic moment for atom   1 =   5.00000
     SPIN  1
     eigenvalues:
       1.000  1.000  1.000  1.000  1.000
     eigenvectors (columns):
       1.000  0.000  0.000  0.000  0.000
       0.000  1.000  0.000  0.000  0.000
       0.000  0.000  1.000  0.000  0.000
       0.000  0.000  0.000  1.000  0.000
       0.000  0.000  0.000  0.000  1.000
     occupation matrix ns (before diag.):
       1.000  0.000  0.000  0.000  0.000
       0.000  1.000  0.000  0.000  0.000
       0.000  0.000  1.000  0.000  0.000
       0.000  0.000  0.000  1.000  0.000
       0.000  0.000  0.000  0.000  1.000
     SPIN  2
     eigenvalues:
       0.000  0.000  0.000  0.000  0.000
     eigenvectors (columns):
       1.000  0.000  0.000  0.000  0.000
       0.000  1.000  0.000  0.000  0.000
       0.000  0.000  1.000  0.000  0.000
       0.000  0.000  0.000  1.000  0.000
       0.000  0.000  0.000  0.000  1.000
     occupation matrix ns (before diag.):
       0.000  0.000  0.000  0.000  0.000
       0.000  0.000  0.000  0.000  0.000
       0.000  0.000  0.000  0.000  0.000
       0.000  0.000  0.000  0.000  0.000
       0.000  0.000  0.000  0.000  0.000
     ------------------------ ATOM    2 ------------------------
     Tr[ns(  2)] (up, down, total) =   5.00000  0.00000  5.00000
     Atomic magnetic moment for atom   2 =   5.00000
     SPIN  1
     eigenvalues:
       1.000  1.000  1.000  1.000  1.000
     eigenvectors (columns):
       1.000  0.000  0.000  0.000  0.000
       0.000  1.000  0.000  0.000  0.000
       0.000  0.000  1.000  0.000  0.000
       0.000  0.000  0.000  1.000  0.000
       0.000  0.000  0.000  0.000  1.000
     occupation matrix ns (before diag.):
       1.000  0.000  0.000  0.000  0.000
       0.000  1.000  0.000  0.000  0.000
       0.000  0.000  1.000  0.000  0.000
       0.000  0.000  0.000  1.000  0.000
       0.000  0.000  0.000  0.000  1.000
     SPIN  2
     eigenvalues:
       0.000  0.000  0.000  0.000  0.000
     eigenvectors (columns):
       1.000  0.000  0.000  0.000  0.000
       0.000  1.000  0.000  0.000  0.000
       0.000  0.000  1.000  0.000  0.000
       0.000  0.000  0.000  1.000  0.000
       0.000  0.000  0.000  0.000  1.000
     occupation matrix ns (before diag.):
       0.000  0.000  0.000  0.000  0.000
       0.000  0.000  0.000  0.000  0.000
       0.000  0.000  0.000  0.000  0.000
       0.000  0.000  0.000  0.000  0.000
       0.000  0.000  0.000  0.000  0.000
     ------------------------ ATOM    9 ------------------------
     Tr[ns(  9)] (up, down, total) =   0.00000  5.00000  5.00000
     Atomic magnetic moment for atom   9 =  -5.00000
     SPIN  1
     eigenvalues:
       0.000  0.000  0.000  0.000  0.000
     eigenvectors (columns):
       1.000  0.000  0.000  0.000  0.000
       0.000  1.000  0.000  0.000  0.000
       0.000  0.000  1.000  0.000  0.000
       0.000  0.000  0.000  1.000  0.000
       0.000  0.000  0.000  0.000  1.000
     occupation matrix ns (before diag.):
       0.000  0.000  0.000  0.000  0.000
       0.000  0.000  0.000  0.000  0.000
       0.000  0.000  0.000  0.000  0.000
       0.000  0.000  0.000  0.000  0.000
       0.000  0.000  0.000  0.000  0.000
     SPIN  2
     eigenvalues:
       1.000  1.000  1.000  1.000  1.000
     eigenvectors (columns):
       1.000  0.000  0.000  0.000  0.000
       0.000  1.000  0.000  0.000  0.000
       0.000  0.000  1.000  0.000  0.000
       0.000  0.000  0.000  1.000  0.000
       0.000  0.000  0.000  0.000  1.000
     occupation matrix ns (before diag.):
       1.000  0.000  0.000  0.000  0.000
       0.000  1.000  0.000  0.000  0.000
       0.000  0.000  1.000  0.000  0.000
       0.000  0.000  0.000  1.000  0.000
       0.000  0.000  0.000  0.000  1.000
     ------------------------ ATOM   10 ------------------------
     Tr[ns( 10)] (up, down, total) =   0.00000  5.00000  5.00000
     Atomic magnetic moment for atom  10 =  -5.00000
     SPIN  1
     eigenvalues:
       0.000  0.000  0.000  0.000  0.000
     eigenvectors (columns):
       1.000  0.000  0.000  0.000  0.000
       0.000  1.000  0.000  0.000  0.000
       0.000  0.000  1.000  0.000  0.000
       0.000  0.000  0.000  1.000  0.000
       0.000  0.000  0.000  0.000  1.000
     occupation matrix ns (before diag.):
       0.000  0.000  0.000  0.000  0.000
       0.000  0.000  0.000  0.000  0.000
       0.000  0.000  0.000  0.000  0.000
       0.000  0.000  0.000  0.000  0.000
       0.000  0.000  0.000  0.000  0.000
     SPIN  2
     eigenvalues:
       1.000  1.000  1.000  1.000  1.000
     eigenvectors (columns):
       1.000  0.000  0.000  0.000  0.000
       0.000  1.000  0.000  0.000  0.000
       0.000  0.000  1.000  0.000  0.000
       0.000  0.000  0.000  1.000  0.000
       0.000  0.000  0.000  0.000  1.000
     occupation matrix ns (before diag.):
       1.000  0.000  0.000  0.000  0.000
       0.000  1.000  0.000  0.000  0.000
       0.000  0.000  1.000  0.000  0.000
       0.000  0.000  0.000  1.000  0.000
       0.000  0.000  0.000  0.000  1.000

     Number of occupied Hubbard levels =   20.0000

     Atomic wfc used for Hubbard projectors are orthogonalized

     Starting wfcs are  168 atomic wfcs
     Checking if some PAW data can be deallocated... 

     total cpu time spent up to now is       51.2 secs

     Self-consistent Calculation

     iteration #  1     ecut=    90.00 Ry     beta= 0.50
     Davidson diagonalization with overlap
     ethr =  1.00E-05,  avg # of iterations =  9.1

     =================== HUBBARD OCCUPATIONS ===================
     ------------------------ ATOM    1 ------------------------
     Tr[ns(  1)] (up, down, total) =   3.42592  0.28243  3.70835
     Atomic magnetic moment for atom   1 =   3.14349
     SPIN  1
     eigenvalues:
       0.382  0.382  0.886  0.886  0.890
     eigenvectors (columns):
       0.000  0.000  0.000 -0.000  1.000
       0.809 -0.150  0.399 -0.404 -0.000
      -0.150 -0.809 -0.404 -0.399  0.000
      -0.558  0.104  0.578 -0.586 -0.000
      -0.104 -0.558  0.586  0.578 -0.000
     occupation matrix ns (before diag.):
       0.890 -0.000  0.000  0.000  0.000
      -0.000  0.545  0.000  0.235  0.000
       0.000  0.000  0.545  0.000 -0.235
       0.000  0.235  0.000  0.723  0.000
       0.000  0.000 -0.235  0.000  0.723
     SPIN  2
     eigenvalues:
       0.031  0.033  0.033  0.093  0.093
     eigenvectors (columns):
       1.000 -0.000 -0.000  0.000 -0.000
       0.000  0.582  0.023  0.812 -0.034
       0.000  0.023 -0.582  0.034  0.812
       0.000  0.812  0.034 -0.582  0.025
       0.000 -0.034  0.812  0.025  0.582
     occupation matrix ns (before diag.):
       0.031  0.000 -0.000 -0.000 -0.000
       0.000  0.073 -0.000 -0.028  0.000
      -0.000 -0.000  0.073  0.000  0.028
      -0.000 -0.028  0.000  0.053 -0.000
      -0.000  0.000  0.028 -0.000  0.053
     ------------------------ ATOM    2 ------------------------
     Tr[ns(  2)] (up, down, total) =   3.42835  0.28424  3.71259
     Atomic magnetic moment for atom   2 =   3.14411
     SPIN  1
     eigenvalues:
       0.384  0.384  0.886  0.886  0.889
     eigenvectors (columns):
      -0.000  0.000 -0.000  0.000  1.000
      -0.143  0.811 -0.294  0.486 -0.000
       0.811  0.143  0.486  0.294  0.000
       0.101 -0.559 -0.430  0.702 -0.000
       0.559  0.101 -0.702 -0.430 -0.000
     occupation matrix ns (before diag.):
       0.889 -0.000  0.000  0.000  0.000
      -0.000  0.546  0.000  0.234 -0.001
       0.000  0.000  0.546 -0.001 -0.234
       0.000  0.234 -0.001  0.724  0.000
       0.000 -0.001 -0.234  0.000  0.724
     SPIN  2
     eigenvalues:
       0.031  0.033  0.033  0.094  0.094
     eigenvectors (columns):
       1.000 -0.000  0.000  0.000 -0.000
      -0.000 -0.284  0.509  0.778 -0.235
      -0.000 -0.509 -0.284  0.235  0.778
      -0.000 -0.393  0.711 -0.558  0.171
       0.000  0.711  0.393  0.171  0.558
     occupation matrix ns (before diag.):
       0.031  0.000 -0.000  0.000 -0.000
       0.000  0.073 -0.000 -0.029  0.000
      -0.000 -0.000  0.073  0.000  0.029
       0.000 -0.029  0.000  0.054 -0.000
      -0.000  0.000  0.029 -0.000  0.054
     ------------------------ ATOM    9 ------------------------
     Tr[ns(  9)] (up, down, total) =   0.28425  3.42835  3.71260
     Atomic magnetic moment for atom   9 =  -3.14410
     SPIN  1
     eigenvalues:
       0.031  0.033  0.033  0.094  0.094
     eigenvectors (columns):
       1.000 -0.000 -0.000  0.000  0.000
      -0.000  0.360 -0.458  0.684 -0.438
       0.000  0.458  0.360  0.438  0.684
      -0.000  0.500 -0.640 -0.490  0.316
      -0.000 -0.640 -0.500  0.316  0.490
     occupation matrix ns (before diag.):
       0.031 -0.000  0.000  0.000  0.000
      -0.000  0.073 -0.000 -0.029  0.000
       0.000 -0.000  0.073  0.000  0.029
       0.000 -0.029  0.000  0.054  0.000
       0.000  0.000  0.029  0.000  0.054
     SPIN  2
     eigenvalues:
       0.384  0.384  0.886  0.886  0.889
     eigenvectors (columns):
      -0.000  0.000  0.000 -0.000 -1.000
      -0.624 -0.537 -0.566  0.043 -0.000
      -0.537  0.624 -0.043 -0.566  0.000
       0.429  0.372 -0.820  0.067 -0.000
      -0.372  0.429  0.067  0.820 -0.000
     occupation matrix ns (before diag.):
       0.889  0.000 -0.000 -0.000 -0.000
       0.000  0.546 -0.000  0.234 -0.001
      -0.000 -0.000  0.546 -0.001 -0.234
      -0.000  0.234 -0.001  0.724 -0.000
      -0.000 -0.001 -0.234 -0.000  0.724
     ------------------------ ATOM   10 ------------------------
     Tr[ns( 10)] (up, down, total) =   0.28242  3.42592  3.70834
     Atomic magnetic moment for atom  10 =  -3.14350
     SPIN  1
     eigenvalues:
       0.031  0.033  0.033  0.093  0.093
     eigenvectors (columns):
       1.000 -0.000  0.000 -0.000 -0.000
      -0.000 -0.371  0.449 -0.660  0.474
      -0.000  0.449  0.371  0.474  0.660
      -0.000 -0.518  0.626  0.474 -0.339
       0.000 -0.626 -0.518  0.339  0.474
     occupation matrix ns (before diag.):
       0.031 -0.000 -0.000  0.000 -0.000
      -0.000  0.073  0.000 -0.028  0.000
      -0.000  0.000  0.073  0.000  0.028
       0.000 -0.028  0.000  0.053 -0.000
      -0.000  0.000  0.028 -0.000  0.053
     SPIN  2
     eigenvalues:
       0.382  0.382  0.886  0.886  0.890
     eigenvectors (columns):
       0.000 -0.000 -0.000 -0.000 -1.000
      -0.682  0.461  0.534  0.193 -0.000
       0.461  0.682  0.193 -0.534  0.000
       0.470 -0.318  0.774  0.281 -0.000
       0.318  0.470 -0.281  0.774 -0.000
     occupation matrix ns (before diag.):
       0.890  0.000  0.000 -0.000  0.000
       0.000  0.545  0.000  0.235  0.000
       0.000  0.000  0.545  0.000 -0.235
      -0.000  0.235  0.000  0.723 -0.000
       0.000  0.000 -0.235 -0.000  0.723

     Number of occupied Hubbard levels =   14.8419

     negative rho (up, down):  3.121E-02 3.122E-02

     total cpu time spent up to now is      299.1 secs

     total energy              =   -5538.09741816 Ry
     estimated scf accuracy    <       2.85543902 Ry

     total magnetization       =    -0.00 Bohr mag/cell
     absolute magnetization    =    15.28 Bohr mag/cell

     iteration #  2     ecut=    90.00 Ry     beta= 0.50
     Davidson diagonalization with overlap
     ethr =  2.04E-03,  avg # of iterations =  4.2

     negative rho (up, down):  2.915E-02 2.915E-02

     total cpu time spent up to now is      392.6 secs

     total energy              =   -5536.69057145 Ry
     estimated scf accuracy    <      17.54421032 Ry

     total magnetization       =     0.00 Bohr mag/cell
     absolute magnetization    =    14.79 Bohr mag/cell

     iteration #  3     ecut=    90.00 Ry     beta= 0.50
     Davidson diagonalization with overlap
     ethr =  2.04E-03,  avg # of iterations =  2.0

     negative rho (up, down):  3.076E-02 3.077E-02

     total cpu time spent up to now is      466.0 secs

     total energy              =   -5539.43274686 Ry
     estimated scf accuracy    <       0.56912573 Ry

     total magnetization       =    -0.00 Bohr mag/cell
     absolute magnetization    =    16.26 Bohr mag/cell

     iteration #  4     ecut=    90.00 Ry     beta= 0.50
     Davidson diagonalization with overlap
     ethr =  4.07E-04,  avg # of iterations =  2.0

     negative rho (up, down):  3.180E-02 3.180E-02

     total cpu time spent up to now is      530.5 secs

     total energy              =   -5539.47802212 Ry
     estimated scf accuracy    <       0.10478313 Ry

     total magnetization       =    -0.00 Bohr mag/cell
     absolute magnetization    =    16.52 Bohr mag/cell

     iteration #  5     ecut=    90.00 Ry     beta= 0.50
     Davidson diagonalization with overlap
     ethr =  7.48E-05,  avg # of iterations =  5.0

     negative rho (up, down):  3.194E-02 3.194E-02

     total cpu time spent up to now is      613.1 secs

     total energy              =   -5539.48944285 Ry
     estimated scf accuracy    <       0.04358515 Ry

     total magnetization       =    -0.00 Bohr mag/cell
     absolute magnetization    =    16.74 Bohr mag/cell

     iteration #  6     ecut=    90.00 Ry     beta= 0.50
     Davidson diagonalization with overlap
     ethr =  3.11E-05,  avg # of iterations =  3.6

     negative rho (up, down):  3.180E-02 3.180E-02

     total cpu time spent up to now is      682.1 secs

     total energy              =   -5539.49671038 Ry
     estimated scf accuracy    <       0.00219181 Ry

     total magnetization       =    -0.00 Bohr mag/cell
     absolute magnetization    =    16.81 Bohr mag/cell

     iteration #  7     ecut=    90.00 Ry     beta= 0.50
     Davidson diagonalization with overlap
     ethr =  1.57E-06,  avg # of iterations =  7.3

     negative rho (up, down):  3.169E-02 3.169E-02

     total cpu time spent up to now is      820.1 secs

     total energy              =   -5539.49799574 Ry
     estimated scf accuracy    <       0.00300169 Ry

     total magnetization       =     0.00 Bohr mag/cell
     absolute magnetization    =    16.95 Bohr mag/cell

     iteration #  8     ecut=    90.00 Ry     beta= 0.50
     Davidson diagonalization with overlap
     ethr =  1.57E-06,  avg # of iterations =  3.4

     negative rho (up, down):  3.161E-02 3.161E-02

     total cpu time spent up to now is      890.3 secs

     total energy              =   -5539.49798039 Ry
     estimated scf accuracy    <       0.00247754 Ry

     total magnetization       =    -0.00 Bohr mag/cell
     absolute magnetization    =    17.02 Bohr mag/cell

     iteration #  9     ecut=    90.00 Ry     beta= 0.50
     Davidson diagonalization with overlap
     ethr =  1.57E-06,  avg # of iterations =  1.4

     negative rho (up, down):  3.165E-02 3.165E-02

     total cpu time spent up to now is      951.3 secs

     total energy              =   -5539.49811610 Ry
     estimated scf accuracy    <       0.00048451 Ry

     total magnetization       =    -0.00 Bohr mag/cell
     absolute magnetization    =    17.05 Bohr mag/cell

     iteration # 10     ecut=    90.00 Ry     beta= 0.50
     Davidson diagonalization with overlap
     ethr =  3.46E-07,  avg # of iterations =  2.0

     negative rho (up, down):  3.166E-02 3.166E-02

     total cpu time spent up to now is     1014.5 secs

     total energy              =   -5539.49816328 Ry
     estimated scf accuracy    <       0.00003874 Ry

     total magnetization       =    -0.00 Bohr mag/cell
     absolute magnetization    =    17.03 Bohr mag/cell

     iteration # 11     ecut=    90.00 Ry     beta= 0.50
     Davidson diagonalization with overlap
     ethr =  2.77E-08,  avg # of iterations =  4.0

     negative rho (up, down):  3.165E-02 3.165E-02

     total cpu time spent up to now is     1104.7 secs

     total energy              =   -5539.49818661 Ry
     estimated scf accuracy    <       0.00000499 Ry

     total magnetization       =    -0.00 Bohr mag/cell
     absolute magnetization    =    17.03 Bohr mag/cell

     iteration # 12     ecut=    90.00 Ry     beta= 0.50
     Davidson diagonalization with overlap
     ethr =  3.57E-09,  avg # of iterations =  2.1

     negative rho (up, down):  3.164E-02 3.164E-02

     total cpu time spent up to now is     1172.5 secs

     total energy              =   -5539.49818857 Ry
     estimated scf accuracy    <       0.00000206 Ry

     total magnetization       =     0.00 Bohr mag/cell
     absolute magnetization    =    17.03 Bohr mag/cell

     iteration # 13     ecut=    90.00 Ry     beta= 0.50
     Davidson diagonalization with overlap
     ethr =  1.47E-09,  avg # of iterations =  3.2

     negative rho (up, down):  3.163E-02 3.163E-02

     total cpu time spent up to now is     1250.9 secs

     total energy              =   -5539.49818910 Ry
     estimated scf accuracy    <       0.00000448 Ry

     total magnetization       =     0.00 Bohr mag/cell
     absolute magnetization    =    17.04 Bohr mag/cell

     iteration # 14     ecut=    90.00 Ry     beta= 0.50
     Davidson diagonalization with overlap
     ethr =  1.47E-09,  avg # of iterations =  2.0

     negative rho (up, down):  3.163E-02 3.163E-02

     total cpu time spent up to now is     1319.8 secs

     total energy              =   -5539.49818973 Ry
     estimated scf accuracy    <       0.00000041 Ry

     total magnetization       =     0.00 Bohr mag/cell
     absolute magnetization    =    17.04 Bohr mag/cell

     iteration # 15     ecut=    90.00 Ry     beta= 0.50
     Davidson diagonalization with overlap
     ethr =  2.91E-10,  avg # of iterations =  2.4

     negative rho (up, down):  3.163E-02 3.163E-02

     total cpu time spent up to now is     1386.3 secs

     total energy              =   -5539.49818978 Ry
     estimated scf accuracy    <       0.00000016 Ry

     total magnetization       =    -0.00 Bohr mag/cell
     absolute magnetization    =    17.04 Bohr mag/cell

     iteration # 16     ecut=    90.00 Ry     beta= 0.50
     Davidson diagonalization with overlap
     ethr =  1.11E-10,  avg # of iterations =  3.4

     negative rho (up, down):  3.163E-02 3.163E-02

     total cpu time spent up to now is     1458.7 secs

     total energy              =   -5539.49818981 Ry
     estimated scf accuracy    <       0.00000002 Ry

     total magnetization       =    -0.00 Bohr mag/cell
     absolute magnetization    =    17.04 Bohr mag/cell

     iteration # 17     ecut=    90.00 Ry     beta= 0.50
     Davidson diagonalization with overlap
     ethr =  1.16E-11,  avg # of iterations =  4.0

     negative rho (up, down):  3.163E-02 3.163E-02

     total cpu time spent up to now is     1553.5 secs

     total energy              =   -5539.49818982 Ry
     estimated scf accuracy    <          4.9E-09 Ry

     total magnetization       =     0.00 Bohr mag/cell
     absolute magnetization    =    17.04 Bohr mag/cell

     iteration # 18     ecut=    90.00 Ry     beta= 0.50
     Davidson diagonalization with overlap
     ethr =  3.53E-12,  avg # of iterations =  2.1

     negative rho (up, down):  3.163E-02 3.163E-02

     total cpu time spent up to now is     1619.8 secs

     total energy              =   -5539.49818982 Ry
     estimated scf accuracy    <          3.8E-09 Ry

     total magnetization       =    -0.00 Bohr mag/cell
     absolute magnetization    =    17.04 Bohr mag/cell

     iteration # 19     ecut=    90.00 Ry     beta= 0.50
     Davidson diagonalization with overlap
     ethr =  2.71E-12,  avg # of iterations =  1.6

     negative rho (up, down):  3.163E-02 3.163E-02

     total cpu time spent up to now is     1680.9 secs

     total energy              =   -5539.49818982 Ry
     estimated scf accuracy    <          9.7E-10 Ry

     total magnetization       =     0.00 Bohr mag/cell
     absolute magnetization    =    17.04 Bohr mag/cell

     iteration # 20     ecut=    90.00 Ry     beta= 0.50
     Davidson diagonalization with overlap
     ethr =  6.96E-13,  avg # of iterations =  2.7

     negative rho (up, down):  3.163E-02 3.163E-02

     total cpu time spent up to now is     1748.1 secs

     total energy              =   -5539.49818982 Ry
     estimated scf accuracy    <          4.7E-10 Ry

     total magnetization       =     0.00 Bohr mag/cell
     absolute magnetization    =    17.04 Bohr mag/cell

     iteration # 21     ecut=    90.00 Ry     beta= 0.50
     Davidson diagonalization with overlap
     ethr =  3.34E-13,  avg # of iterations =  2.5

     negative rho (up, down):  3.163E-02 3.163E-02

     total cpu time spent up to now is     1820.1 secs

     total energy              =   -5539.49818982 Ry
     estimated scf accuracy    <          4.3E-10 Ry

     total magnetization       =     0.00 Bohr mag/cell
     absolute magnetization    =    17.04 Bohr mag/cell

     iteration # 22     ecut=    90.00 Ry     beta= 0.50
     Davidson diagonalization with overlap
     ethr =  3.05E-13,  avg # of iterations =  1.3

     negative rho (up, down):  3.163E-02 3.163E-02

     total cpu time spent up to now is     1880.0 secs

     total energy              =   -5539.49818982 Ry
     estimated scf accuracy    <          6.4E-11 Ry

     total magnetization       =    -0.00 Bohr mag/cell
     absolute magnetization    =    17.04 Bohr mag/cell

     iteration # 23     ecut=    90.00 Ry     beta= 0.50
     Davidson diagonalization with overlap
     ethr =  1.00E-13,  avg # of iterations =  1.1

     negative rho (up, down):  3.163E-02 3.163E-02

     total cpu time spent up to now is     1939.7 secs

     total energy              =   -5539.49818982 Ry
     estimated scf accuracy    <          2.0E-11 Ry

     total magnetization       =    -0.00 Bohr mag/cell
     absolute magnetization    =    17.04 Bohr mag/cell

     iteration # 24     ecut=    90.00 Ry     beta= 0.50
     Davidson diagonalization with overlap
     ethr =  1.00E-13,  avg # of iterations =  1.0

     negative rho (up, down):  3.163E-02 3.163E-02

     total cpu time spent up to now is     1999.1 secs

     total energy              =   -5539.49818982 Ry
     estimated scf accuracy    <          1.4E-11 Ry

     total magnetization       =    -0.00 Bohr mag/cell
     absolute magnetization    =    17.04 Bohr mag/cell

     iteration # 25     ecut=    90.00 Ry     beta= 0.50
     Davidson diagonalization with overlap
     ethr =  1.00E-13,  avg # of iterations =  1.0

     negative rho (up, down):  3.163E-02 3.163E-02

     Magnetic moment per site  (integrated on atomic sphere of radius R)
     atom   1 (R=0.162)  charge= 12.3684  magn=  3.3157
     atom   2 (R=0.162)  charge= 12.3725  magn=  3.3122
     atom   3 (R=0.162)  charge=  4.0527  magn= -0.1301
     atom   4 (R=0.162)  charge=  4.0527  magn= -0.1301
     atom   5 (R=0.162)  charge=  4.0527  magn= -0.1301
     atom   6 (R=0.162)  charge=  4.0541  magn= -0.1343
     atom   7 (R=0.162)  charge=  4.0541  magn= -0.1343
     atom   8 (R=0.162)  charge=  4.0539  magn= -0.1343
     atom   9 (R=0.162)  charge= 12.3726  magn= -3.3121
     atom  10 (R=0.162)  charge= 12.3684  magn= -3.3157
     atom  11 (R=0.162)  charge=  4.0540  magn=  0.1343
     atom  12 (R=0.162)  charge=  4.0540  magn=  0.1343
     atom  13 (R=0.162)  charge=  4.0540  magn=  0.1343
     atom  14 (R=0.162)  charge=  4.0526  magn=  0.1301
     atom  15 (R=0.162)  charge=  4.0526  magn=  0.1301
     atom  16 (R=0.162)  charge=  4.0526  magn=  0.1301

     total cpu time spent up to now is     2058.2 secs

     End of self-consistent calculation

     =================== HUBBARD OCCUPATIONS ===================
     ------------------------ ATOM    1 ------------------------
     Tr[ns(  1)] (up, down, total) =   3.76062  0.48559  4.24620
     Atomic magnetic moment for atom   1 =   3.27503
     SPIN  1
     eigenvalues:
       0.507  0.507  0.914  0.914  0.920
     eigenvectors (columns):
      -0.000 -0.000  0.000 -0.000 -1.000
      -0.349 -0.737  0.521 -0.252  0.000
       0.737 -0.349  0.252  0.521 -0.000
       0.248  0.523  0.734 -0.356  0.000
       0.523 -0.248 -0.356 -0.734  0.000
     occupation matrix ns (before diag.):
       0.920 -0.000  0.000  0.000  0.000
      -0.000  0.643  0.000  0.192 -0.000
       0.000  0.000  0.643 -0.000 -0.192
       0.000  0.192 -0.000  0.777  0.000
       0.000 -0.000 -0.192  0.000  0.777
     SPIN  2
     eigenvalues:
       0.040  0.044  0.044  0.179  0.179
     eigenvectors (columns):
      -1.000  0.000 -0.000  0.000 -0.000
      -0.000 -0.574  0.015  0.817 -0.060
       0.000 -0.015 -0.574  0.060  0.817
      -0.000 -0.818  0.025 -0.572  0.044
      -0.000  0.025  0.818  0.044  0.572
     occupation matrix ns (before diag.):
       0.040  0.000 -0.000 -0.000 -0.000
       0.000  0.135 -0.000 -0.064  0.000
      -0.000 -0.000  0.135  0.000  0.064
      -0.000 -0.064  0.000  0.088 -0.000
      -0.000  0.000  0.064 -0.000  0.088
     ------------------------ ATOM    2 ------------------------
     Tr[ns(  2)] (up, down, total) =   3.75923  0.48812  4.24735
     Atomic magnetic moment for atom   2 =   3.27111
     SPIN  1
     eigenvalues:
       0.506  0.506  0.914  0.914  0.919
     eigenvectors (columns):
      -0.000  0.000 -0.000  0.000 -1.000
      -0.246 -0.777 -0.562  0.138  0.000
       0.777 -0.246 -0.138 -0.562 -0.000
       0.176  0.552 -0.791  0.196  0.000
       0.552 -0.176  0.196  0.791  0.000
     occupation matrix ns (before diag.):
       0.919 -0.000  0.000 -0.000  0.000
      -0.000  0.643  0.000  0.192 -0.000
       0.000  0.000  0.643 -0.000 -0.192
      -0.000  0.192 -0.000  0.777  0.000
       0.000 -0.000 -0.192  0.000  0.777
     SPIN  2
     eigenvalues:
       0.040  0.044  0.044  0.180  0.180
     eigenvectors (columns):
       1.000 -0.000 -0.000 -0.000 -0.000
      -0.000 -0.280  0.503  0.668 -0.472
      -0.000 -0.503 -0.280  0.472  0.668
      -0.000 -0.397  0.715 -0.470  0.332
       0.000  0.715  0.397  0.332  0.470
     occupation matrix ns (before diag.):
       0.040  0.000 -0.000  0.000 -0.000
       0.000  0.135 -0.000 -0.064  0.000
      -0.000 -0.000  0.135  0.000  0.064
       0.000 -0.064  0.000  0.089 -0.000
      -0.000  0.000  0.064 -0.000  0.089
     ------------------------ ATOM    9 ------------------------
     Tr[ns(  9)] (up, down, total) =   0.48813  3.75923  4.24736
     Atomic magnetic moment for atom   9 =  -3.27109
     SPIN  1
     eigenvalues:
       0.040  0.044  0.044  0.180  0.180
     eigenvectors (columns):
       1.000  0.000 -0.000  0.000  0.000
      -0.000  0.348 -0.458  0.597 -0.559
       0.000  0.458  0.348  0.559  0.597
      -0.000  0.494 -0.652 -0.419  0.394
      -0.000 -0.652 -0.494  0.394  0.419
     occupation matrix ns (before diag.):
       0.040 -0.000  0.000  0.000  0.000
      -0.000  0.135 -0.000 -0.064  0.000
       0.000 -0.000  0.135  0.000  0.064
       0.000 -0.064  0.000  0.089  0.000
       0.000  0.000  0.064  0.000  0.089
     SPIN  2
     eigenvalues:
       0.506  0.506  0.914  0.914  0.919
     eigenvectors (columns):
      -0.000 -0.000  0.000  0.000 -1.000
      -0.711  0.398 -0.282 -0.506 -0.000
      -0.398 -0.711  0.506 -0.282  0.000
       0.505 -0.284 -0.398 -0.712 -0.000
      -0.284 -0.505 -0.712  0.398 -0.000
     occupation matrix ns (before diag.):
       0.919  0.000 -0.000 -0.000 -0.000
       0.000  0.643 -0.000  0.192 -0.000
      -0.000 -0.000  0.643 -0.000 -0.192
      -0.000  0.192 -0.000  0.777 -0.000
      -0.000 -0.000 -0.192 -0.000  0.777
     ------------------------ ATOM   10 ------------------------
     Tr[ns( 10)] (up, down, total) =   0.48557  3.76063  4.24620
     Atomic magnetic moment for atom  10 =  -3.27505
     SPIN  1
     eigenvalues:
       0.040  0.044  0.044  0.179  0.179
     eigenvectors (columns):
       1.000 -0.000  0.000  0.000 -0.000
      -0.000 -0.360  0.447 -0.620  0.535
       0.000  0.447  0.360  0.535  0.620
      -0.000 -0.516  0.636  0.436 -0.373
      -0.000 -0.636 -0.516  0.373  0.436
     occupation matrix ns (before diag.):
       0.040 -0.000 -0.000  0.000 -0.000
      -0.000  0.134  0.000 -0.064  0.000
      -0.000  0.000  0.134  0.000  0.064
       0.000 -0.064  0.000  0.088 -0.000
      -0.000  0.000  0.064 -0.000  0.088
     SPIN  2
     eigenvalues:
       0.507  0.507  0.914  0.914  0.920
     eigenvectors (columns):
       0.000 -0.000 -0.000  0.000 -1.000
      -0.814 -0.044  0.056 -0.576 -0.000
      -0.044  0.814 -0.576 -0.056  0.000
       0.578  0.032  0.081 -0.812 -0.000
      -0.032  0.578  0.812  0.081 -0.000
     occupation matrix ns (before diag.):
       0.920  0.000  0.000 -0.000  0.000
       0.000  0.643 -0.000  0.192 -0.000
       0.000 -0.000  0.643 -0.000 -0.192
      -0.000  0.192 -0.000  0.777 -0.000
       0.000 -0.000 -0.192 -0.000  0.777

     Number of occupied Hubbard levels =   16.9871

 ------ SPIN UP ------------


          k = 0.0000 0.0000 0.0000 (109591 PWs)   bands (ev):

   -78.7803 -78.7584 -75.3072 -75.2892 -50.1104 -50.1090 -50.1090 -50.0890
   -50.0870 -50.0870 -46.6970 -46.6870 -46.6870 -46.6786 -46.6694 -46.6694
   -18.6421 -18.5308 -17.8358 -17.6564 -17.5463 -17.5463 -17.4401 -17.4401
   -17.3678 -17.3678 -17.2930 -17.2930 -10.4861 -10.2256 -10.0529  -9.7239
    -9.7238  -9.6947  -9.6946  -9.4279  -9.0097  -9.0097  -8.8439  -8.7875
    -8.7623  -8.7623  -8.6956  -8.6371  -8.6371  -8.4727  -8.1568  -8.1568
    -7.9405  -7.8946  -7.8946  -7.5450  -7.5450  -7.4029  -7.3679  -7.3678
    -7.2750  -7.1781  -7.1781  -7.1662  -6.9220  -6.3679  -6.3679  -6.2513
    -6.2513  -6.1893  -5.8930  -5.8930  -5.7153  -5.7153  -4.5663  -4.5663
    -4.1092  -4.1092  -2.1435  -2.1435  -2.1280  -2.1280  -1.9762  -1.8242
    -1.6228  -1.6228  -1.4937  -1.4936  -0.9537  -0.5122  -0.2449   0.0196
     0.0843   0.2016   0.9088   0.9950   0.9950   1.1177   1.1178   1.2724
     1.7381   1.8251   1.8252   1.9317

          k = 0.0000 0.1925 0.0000 (109722 PWs)   bands (ev):

   -78.7803 -78.7584 -75.3072 -75.2892 -50.1104 -50.1090 -50.1090 -50.0890
   -50.0871 -50.0870 -46.6970 -46.6870 -46.6870 -46.6786 -46.6694 -46.6694
   -18.5827 -18.4719 -17.7984 -17.6333 -17.6245 -17.5777 -17.5230 -17.4656
   -17.3778 -17.3714 -17.3003 -17.2995 -10.4569 -10.1817 -10.0326  -9.8158
    -9.8083  -9.5737  -9.5581  -9.4198  -9.0874  -9.0418  -8.8635  -8.8260
    -8.7854  -8.6965  -8.6273  -8.6077  -8.5108  -8.3088  -8.1310  -8.1003
    -8.0285  -7.8853  -7.7202  -7.6628  -7.6025  -7.4228  -7.3450  -7.3173
    -7.2072  -7.1357  -7.0802  -7.0466  -6.8037  -6.4646  -6.4323  -6.3379
    -6.3138  -6.2459  -6.1199  -5.9802  -5.9444  -5.7797  -4.5637  -4.5394
    -4.2933  -4.1546  -2.1829  -2.1751  -2.1328  -2.1008  -1.8616  -1.8286
    -1.6296  -1.6030  -1.5815  -1.5503  -0.8587  -0.2142  -0.0185   0.2727
     0.3612   0.5083   0.6272   0.7348   0.8360   1.0392   1.3476   1.4714
     1.6085   1.7042   1.8072   1.8488

          k = 0.0000 0.3849 0.0000 (109616 PWs)   bands (ev):

   -78.7804 -78.7584 -75.3071 -75.2892 -50.1104 -50.1091 -50.1090 -50.0890
   -50.0871 -50.0870 -46.6969 -46.6870 -46.6869 -46.6786 -46.6695 -46.6693
   -18.4188 -18.3121 -17.8390 -17.7307 -17.6974 -17.6322 -17.5466 -17.5084
   -17.4306 -17.3862 -17.3404 -17.3178 -10.4552 -10.0505  -9.9714  -9.8380
    -9.6807  -9.4855  -9.4464  -9.3702  -9.2088  -8.9901  -8.9449  -8.8347
    -8.7708  -8.6924  -8.5462  -8.4712  -8.4535  -8.2883  -8.1573  -8.0958
    -7.8512  -7.8230  -7.7311  -7.6258  -7.5399  -7.4191  -7.3521  -7.1931
    -7.1334  -7.1092  -7.0104  -6.9608  -6.7861  -6.7227  -6.4988  -6.4702
    -6.4343  -6.3545  -6.3098  -6.1088  -6.0242  -5.8929  -4.5492  -4.4783
    -4.4112  -4.3034  -2.2151  -2.1979  -2.1868  -2.0212  -1.9657  -1.7502
    -1.7107  -1.6509  -1.6042  -1.5288  -0.8970  -0.2623  -0.0338   0.4197
     0.5687   0.6884   0.8172   0.9159   1.0033   1.0455   1.1319   1.2087
     1.3130   1.4508   1.5132   1.6172

          k = 0.0000-0.5774 0.0000 (109602 PWs)   bands (ev):

   -78.7804 -78.7584 -75.3071 -75.2892 -50.1104 -50.1091 -50.1090 -50.0890
   -50.0871 -50.0870 -46.6969 -46.6870 -46.6868 -46.6786 -46.6695 -46.6693
   -18.2538 -18.1745 -18.0063 -17.9043 -17.6578 -17.6069 -17.5294 -17.5199
   -17.4493 -17.4046 -17.3929 -17.3277 -10.4841  -9.9705  -9.9092  -9.8310
    -9.5288  -9.3948  -9.3865  -9.3044  -9.1982  -9.1008  -9.0541  -8.8568
    -8.6651  -8.6214  -8.5894  -8.5118  -8.4040  -8.3626  -8.1583  -8.1348
    -7.8747  -7.7439  -7.6541  -7.5911  -7.5696  -7.4820  -7.4038  -7.3308
    -7.1844  -6.9879  -6.9016  -6.8721  -6.7998  -6.6966  -6.5846  -6.5460
    -6.5027  -6.3576  -6.3038  -6.0855  -6.0154  -5.9226  -4.5206  -4.4770
    -4.4252  -4.3273  -2.2884  -2.2080  -2.1884  -1.9837  -1.9729  -1.9166
    -1.7290  -1.5785  -1.5621  -1.5317  -1.1084  -0.4788   0.0274   0.1071
     0.3851   0.7021   0.8313   0.9058   0.9332   1.1491   1.2133   1.2713
     1.3636   1.4276   1.5288   1.5665

          k = 0.1667 0.2887 0.0000 (109615 PWs)   bands (ev):

   -78.7804 -78.7584 -75.3071 -75.2892 -50.1104 -50.1091 -50.1090 -50.0890
   -50.0871 -50.0870 -46.6969 -46.6870 -46.6869 -46.6786 -46.6695 -46.6693
   -18.4703 -18.3614 -17.7593 -17.7311 -17.6656 -17.6268 -17.5694 -17.5195
   -17.4097 -17.3811 -17.3237 -17.3094 -10.3888 -10.1381  -9.9589  -9.9239
    -9.6396  -9.5571  -9.4561  -9.4042  -9.1531  -9.0798  -8.9071  -8.8383
    -8.7643  -8.6122  -8.5704  -8.5312  -8.5105  -8.2723  -8.0897  -8.0482
    -7.9814  -7.8602  -7.7364  -7.6595  -7.5146  -7.4678  -7.2928  -7.2250
    -7.1427  -7.0626  -6.9972  -6.9777  -6.8893  -6.5540  -6.4981  -6.4737
    -6.3960  -6.3059  -6.2764  -6.1201  -6.0187  -5.8740  -4.5531  -4.4971
    -4.4598  -4.1816  -2.2224  -2.1730  -2.1237  -2.0725  -1.9749  -1.7024
    -1.6894  -1.6723  -1.5878  -1.5448  -0.7914  -0.2277  -0.1020   0.3271
     0.4854   0.5470   0.6982   0.8050   1.0459   1.1213   1.2824   1.3418
     1.4360   1.5321   1.5436   1.6399

          k = 0.1667 0.4811 0.0000 (109606 PWs)   bands (ev):

   -78.7804 -78.7584 -75.3071 -75.2892 -50.1104 -50.1091 -50.1090 -50.0890
   -50.0871 -50.0870 -46.6969 -46.6870 -46.6868 -46.6786 -46.6695 -46.6693
   -18.2792 -18.1807 -17.9584 -17.8589 -17.6958 -17.6257 -17.5697 -17.4981
   -17.4651 -17.4033 -17.3680 -17.3268 -10.3464 -10.0152  -9.8930  -9.8288
    -9.5298  -9.5190  -9.3794  -9.3694  -9.1763  -9.0781  -8.9452  -8.8485
    -8.8105  -8.6495  -8.5510  -8.4796  -8.4729  -8.3815  -8.2840  -8.0395
    -7.8983  -7.8321  -7.7058  -7.6031  -7.5616  -7.4096  -7.3651  -7.2474
    -7.1099  -7.0166  -6.9462  -6.8121  -6.8084  -6.6932  -6.5549  -6.5015
    -6.4601  -6.3158  -6.2885  -6.1582  -6.0118  -5.9384  -4.5246  -4.4699
    -4.4117  -4.2341  -2.2110  -2.1790  -2.1631  -2.0646  -2.0229  -1.8741
    -1.7768  -1.5891  -1.5272  -1.5097  -0.9762  -0.4866  -0.3647   0.1326
     0.2610   0.5078   0.6190   0.6427   0.8609   0.9592   1.1024   1.2024
     1.2580   1.3236   1.4163   1.5088

          k = 0.3333 0.5774 0.0000 (109542 PWs)   bands (ev):

   -78.7804 -78.7584 -75.3071 -75.2892 -50.1104 -50.1091 -50.1090 -50.0890
   -50.0871 -50.0870 -46.6969 -46.6870 -46.6868 -46.6786 -46.6696 -46.6692
   -18.1074 -18.1010 -18.0188 -18.0003 -17.7497 -17.6321 -17.5432 -17.5274
   -17.4505 -17.4169 -17.3780 -17.3406 -10.0488 -10.0446 -10.0366  -9.5805
    -9.5614  -9.5535  -9.5322  -9.2245  -9.2214  -9.0287  -8.9321  -8.9145
    -8.8164  -8.7566  -8.5682  -8.5671  -8.4270  -8.3279  -8.3269  -8.2478
    -7.8936  -7.8840  -7.8555  -7.6430  -7.5368  -7.2299  -7.1927  -7.1731
    -7.0709  -7.0276  -6.9733  -6.8606  -6.7067  -6.6649  -6.5711  -6.5397
    -6.3586  -6.3558  -6.2475  -6.2155  -5.9718  -5.9472  -4.5314  -4.4166
    -4.3880  -4.1510  -2.1451  -2.1407  -2.1233  -2.1176  -2.0514  -2.0402
    -1.7877  -1.5436  -1.4932  -1.4878  -0.9082  -0.8842  -0.3122  -0.2948
     0.1765   0.3167   0.3234   0.5248   0.5810   0.6338   0.9142   0.9566
     1.0987   1.3069   1.3568   1.3980

          k =-0.1667 0.0962 0.0000 (109722 PWs)   bands (ev):

   -78.7803 -78.7584 -75.3072 -75.2892 -50.1104 -50.1090 -50.1090 -50.0890
   -50.0871 -50.0870 -46.6970 -46.6870 -46.6870 -46.6786 -46.6694 -46.6694
   -18.5827 -18.4719 -17.7984 -17.6333 -17.6245 -17.5777 -17.5230 -17.4656
   -17.3778 -17.3714 -17.3003 -17.2995 -10.4569 -10.1817 -10.0326  -9.8158
    -9.8083  -9.5737  -9.5581  -9.4198  -9.0874  -9.0418  -8.8635  -8.8260
    -8.7854  -8.6965  -8.6273  -8.6077  -8.5108  -8.3088  -8.1310  -8.1003
    -8.0285  -7.8853  -7.7202  -7.6628  -7.6025  -7.4228  -7.3450  -7.3173
    -7.2072  -7.1357  -7.0801  -7.0466  -6.8037  -6.4646  -6.4323  -6.3379
    -6.3138  -6.2459  -6.1199  -5.9802  -5.9444  -5.7797  -4.5637  -4.5394
    -4.2933  -4.1546  -2.1829  -2.1751  -2.1328  -2.1008  -1.8616  -1.8286
    -1.6296  -1.6030  -1.5815  -1.5503  -0.8587  -0.2142  -0.0185   0.2727
     0.3612   0.5083   0.6271   0.7348   0.8360   1.0392   1.3476   1.4714
     1.6085   1.7042   1.8072   1.8488

          k = 0.1667 0.0962 0.0000 (109722 PWs)   bands (ev):

   -78.7803 -78.7584 -75.3072 -75.2892 -50.1104 -50.1090 -50.1090 -50.0890
   -50.0871 -50.0870 -46.6970 -46.6870 -46.6870 -46.6786 -46.6694 -46.6694
   -18.5827 -18.4719 -17.7984 -17.6334 -17.6245 -17.5777 -17.5230 -17.4656
   -17.3778 -17.3714 -17.3003 -17.2995 -10.4569 -10.1817 -10.0326  -9.8158
    -9.8082  -9.5737  -9.5581  -9.4198  -9.0874  -9.0418  -8.8634  -8.8260
    -8.7855  -8.6965  -8.6273  -8.6077  -8.5108  -8.3088  -8.1310  -8.1003
    -8.0285  -7.8853  -7.7202  -7.6628  -7.6025  -7.4229  -7.3450  -7.3173
    -7.2072  -7.1357  -7.0801  -7.0466  -6.8037  -6.4646  -6.4323  -6.3379
    -6.3139  -6.2459  -6.1199  -5.9802  -5.9444  -5.7797  -4.5637  -4.5394
    -4.2933  -4.1546  -2.1829  -2.1751  -2.1328  -2.1008  -1.8616  -1.8286
    -1.6296  -1.6030  -1.5815  -1.5503  -0.8587  -0.2142  -0.0185   0.2727
     0.3612   0.5083   0.6271   0.7348   0.8360   1.0392   1.3476   1.4714
     1.6085   1.7041   1.8072   1.8488

          k =-0.3333 0.1925 0.0000 (109616 PWs)   bands (ev):

   -78.7804 -78.7584 -75.3071 -75.2892 -50.1104 -50.1091 -50.1090 -50.0890
   -50.0871 -50.0870 -46.6969 -46.6870 -46.6869 -46.6786 -46.6695 -46.6693
   -18.4188 -18.3121 -17.8390 -17.7307 -17.6974 -17.6322 -17.5466 -17.5084
   -17.4306 -17.3862 -17.3404 -17.3179 -10.4552 -10.0505  -9.9714  -9.8380
    -9.6807  -9.4855  -9.4464  -9.3702  -9.2088  -8.9901  -8.9449  -8.8347
    -8.7708  -8.6924  -8.5462  -8.4712  -8.4535  -8.2883  -8.1573  -8.0958
    -7.8512  -7.8230  -7.7311  -7.6258  -7.5399  -7.4191  -7.3521  -7.1931
    -7.1334  -7.1092  -7.0104  -6.9608  -6.7861  -6.7227  -6.4988  -6.4702
    -6.4343  -6.3545  -6.3098  -6.1088  -6.0242  -5.8929  -4.5492  -4.4783
    -4.4112  -4.3034  -2.2151  -2.1979  -2.1869  -2.0212  -1.9657  -1.7502
    -1.7107  -1.6509  -1.6042  -1.5288  -0.8970  -0.2623  -0.0338   0.4197
     0.5687   0.6884   0.8172   0.9159   1.0033   1.0455   1.1319   1.2087
     1.3130   1.4508   1.5132   1.6172

          k = 0.3333 0.1925 0.0000 (109616 PWs)   bands (ev):

   -78.7804 -78.7584 -75.3071 -75.2892 -50.1104 -50.1091 -50.1090 -50.0890
   -50.0871 -50.0870 -46.6969 -46.6870 -46.6869 -46.6786 -46.6695 -46.6693
   -18.4188 -18.3121 -17.8390 -17.7307 -17.6974 -17.6322 -17.5466 -17.5084
   -17.4306 -17.3862 -17.3404 -17.3179 -10.4552 -10.0505  -9.9714  -9.8380
    -9.6807  -9.4855  -9.4464  -9.3702  -9.2088  -8.9901  -8.9449  -8.8347
    -8.7708  -8.6924  -8.5462  -8.4712  -8.4535  -8.2883  -8.1573  -8.0958
    -7.8512  -7.8230  -7.7311  -7.6258  -7.5399  -7.4192  -7.3521  -7.1931
    -7.1334  -7.1092  -7.0104  -6.9608  -6.7861  -6.7227  -6.4988  -6.4702
    -6.4344  -6.3545  -6.3098  -6.1088  -6.0242  -5.8929  -4.5492  -4.4783
    -4.4112  -4.3034  -2.2151  -2.1979  -2.1869  -2.0212  -1.9657  -1.7502
    -1.7107  -1.6509  -1.6042  -1.5288  -0.8971  -0.2623  -0.0338   0.4197
     0.5687   0.6884   0.8172   0.9159   1.0033   1.0455   1.1319   1.2087
     1.3130   1.4508   1.5132   1.6172

          k = 0.5000-0.2887 0.0000 (109602 PWs)   bands (ev):

   -78.7804 -78.7584 -75.3071 -75.2892 -50.1104 -50.1091 -50.1090 -50.0890
   -50.0871 -50.0870 -46.6969 -46.6870 -46.6868 -46.6786 -46.6695 -46.6693
   -18.2538 -18.1745 -18.0063 -17.9043 -17.6578 -17.6069 -17.5294 -17.5199
   -17.4493 -17.4046 -17.3929 -17.3278 -10.4841  -9.9705  -9.9092  -9.8310
    -9.5288  -9.3949  -9.3865  -9.3044  -9.1982  -9.1008  -9.0541  -8.8568
    -8.6651  -8.6214  -8.5894  -8.5118  -8.4040  -8.3626  -8.1583  -8.1348
    -7.8747  -7.7439  -7.6541  -7.5911  -7.5696  -7.4820  -7.4038  -7.3308
    -7.1844  -6.9879  -6.9016  -6.8721  -6.7998  -6.6966  -6.5846  -6.5460
    -6.5027  -6.3576  -6.3038  -6.0855  -6.0154  -5.9226  -4.5205  -4.4770
    -4.4252  -4.3272  -2.2885  -2.2080  -2.1884  -1.9837  -1.9729  -1.9166
    -1.7290  -1.5785  -1.5621  -1.5317  -1.1084  -0.4788   0.0274   0.1071
     0.3851   0.7021   0.8313   0.9058   0.9332   1.1491   1.2133   1.2712
     1.3636   1.4276   1.5288   1.5665

          k =-0.5000-0.2887 0.0000 (109602 PWs)   bands (ev):

   -78.7804 -78.7584 -75.3071 -75.2892 -50.1104 -50.1091 -50.1090 -50.0890
   -50.0871 -50.0870 -46.6969 -46.6870 -46.6868 -46.6786 -46.6695 -46.6693
   -18.2538 -18.1745 -18.0063 -17.9043 -17.6578 -17.6069 -17.5294 -17.5199
   -17.4494 -17.4045 -17.3929 -17.3278 -10.4841  -9.9705  -9.9092  -9.8310
    -9.5288  -9.3949  -9.3865  -9.3044  -9.1982  -9.1008  -9.0541  -8.8568
    -8.6651  -8.6214  -8.5894  -8.5118  -8.4040  -8.3626  -8.1584  -8.1348
    -7.8747  -7.7439  -7.6541  -7.5911  -7.5696  -7.4820  -7.4037  -7.3308
    -7.1843  -6.9879  -6.9016  -6.8721  -6.7998  -6.6966  -6.5846  -6.5460
    -6.5027  -6.3576  -6.3038  -6.0855  -6.0154  -5.9226  -4.5205  -4.4770
    -4.4252  -4.3272  -2.2885  -2.2080  -2.1884  -1.9837  -1.9729  -1.9166
    -1.7290  -1.5786  -1.5621  -1.5317  -1.1084  -0.4788   0.0274   0.1071
     0.3851   0.7021   0.8313   0.9058   0.9332   1.1491   1.2133   1.2713
     1.3636   1.4276   1.5288   1.5665

          k =-0.1667 0.2887 0.0000 (109615 PWs)   bands (ev):

   -78.7804 -78.7584 -75.3071 -75.2892 -50.1104 -50.1091 -50.1090 -50.0890
   -50.0871 -50.0870 -46.6969 -46.6870 -46.6869 -46.6786 -46.6695 -46.6693
   -18.4703 -18.3614 -17.7593 -17.7311 -17.6656 -17.6268 -17.5694 -17.5194
   -17.4097 -17.3811 -17.3237 -17.3094 -10.3888 -10.1381  -9.9589  -9.9239
    -9.6396  -9.5571  -9.4561  -9.4042  -9.1531  -9.0798  -8.9070  -8.8383
    -8.7643  -8.6122  -8.5704  -8.5312  -8.5106  -8.2723  -8.0897  -8.0482
    -7.9815  -7.8602  -7.7364  -7.6595  -7.5146  -7.4678  -7.2928  -7.2250
    -7.1427  -7.0627  -6.9972  -6.9777  -6.8893  -6.5540  -6.4981  -6.4736
    -6.3960  -6.3059  -6.2764  -6.1201  -6.0187  -5.8740  -4.5531  -4.4971
    -4.4598  -4.1816  -2.2224  -2.1730  -2.1237  -2.0725  -1.9749  -1.7024
    -1.6894  -1.6723  -1.5878  -1.5448  -0.7913  -0.2277  -0.1020   0.3271
     0.4854   0.5470   0.6981   0.8050   1.0460   1.1213   1.2824   1.3418
     1.4360   1.5321   1.5436   1.6399

          k = 0.3333 0.0000 0.0000 (109615 PWs)   bands (ev):

   -78.7804 -78.7584 -75.3071 -75.2892 -50.1104 -50.1091 -50.1090 -50.0890
   -50.0871 -50.0870 -46.6969 -46.6870 -46.6869 -46.6786 -46.6695 -46.6693
   -18.4703 -18.3614 -17.7593 -17.7311 -17.6656 -17.6268 -17.5694 -17.5195
   -17.4097 -17.3811 -17.3237 -17.3094 -10.3888 -10.1381  -9.9589  -9.9239
    -9.6396  -9.5571  -9.4561  -9.4042  -9.1531  -9.0798  -8.9071  -8.8383
    -8.7643  -8.6122  -8.5704  -8.5312  -8.5105  -8.2723  -8.0897  -8.0482
    -7.9814  -7.8602  -7.7364  -7.6595  -7.5146  -7.4678  -7.2928  -7.2250
    -7.1427  -7.0626  -6.9971  -6.9777  -6.8893  -6.5540  -6.4981  -6.4737
    -6.3960  -6.3059  -6.2764  -6.1201  -6.0187  -5.8740  -4.5531  -4.4971
    -4.4598  -4.1816  -2.2224  -2.1730  -2.1237  -2.0725  -1.9749  -1.7024
    -1.6894  -1.6723  -1.5878  -1.5448  -0.7914  -0.2277  -0.1020   0.3271
     0.4854   0.5470   0.6981   0.8050   1.0459   1.1213   1.2824   1.3418
     1.4360   1.5321   1.5436   1.6399

          k =-0.1667 0.4811 0.0000 (109606 PWs)   bands (ev):

   -78.7804 -78.7584 -75.3071 -75.2892 -50.1104 -50.1091 -50.1090 -50.0890
   -50.0871 -50.0870 -46.6969 -46.6870 -46.6868 -46.6786 -46.6695 -46.6693
   -18.2793 -18.1804 -17.9594 -17.8576 -17.6970 -17.6248 -17.5697 -17.4983
   -17.4652 -17.4024 -17.3693 -17.3263 -10.3466 -10.0125  -9.8835  -9.8464
    -9.5273  -9.5106  -9.3822  -9.3683  -9.1848  -9.0639  -8.9527  -8.8456
    -8.8253  -8.6460  -8.5291  -8.4941  -8.4731  -8.3767  -8.2838  -8.0517
    -7.9037  -7.8287  -7.6742  -7.6126  -7.5786  -7.4051  -7.3623  -7.2461
    -7.1191  -6.9992  -6.9595  -6.8593  -6.7676  -6.6684  -6.5777  -6.4928
    -6.4507  -6.3362  -6.2915  -6.1490  -6.0031  -5.9457  -4.5239  -4.4740
    -4.4088  -4.2336  -2.2093  -2.1771  -2.1649  -2.0682  -2.0206  -1.8750
    -1.7772  -1.5893  -1.5275  -1.5087  -0.9758  -0.4763  -0.3787   0.1384
     0.2799   0.4617   0.6068   0.6727   0.8542   0.9695   1.1014   1.1659
     1.2817   1.3471   1.4611   1.5098

          k =-0.3333 0.3849 0.0000 (109606 PWs)   bands (ev):

   -78.7804 -78.7584 -75.3071 -75.2892 -50.1104 -50.1091 -50.1090 -50.0890
   -50.0871 -50.0870 -46.6969 -46.6870 -46.6868 -46.6786 -46.6695 -46.6693
   -18.2792 -18.1807 -17.9584 -17.8589 -17.6958 -17.6257 -17.5697 -17.4981
   -17.4651 -17.4033 -17.3680 -17.3268 -10.3463 -10.0152  -9.8929  -9.8288
    -9.5298  -9.5190  -9.3794  -9.3694  -9.1763  -9.0781  -8.9452  -8.8485
    -8.8105  -8.6495  -8.5510  -8.4796  -8.4729  -8.3815  -8.2840  -8.0395
    -7.8983  -7.8321  -7.7058  -7.6031  -7.5616  -7.4096  -7.3651  -7.2474
    -7.1099  -7.0166  -6.9462  -6.8121  -6.8084  -6.6932  -6.5549  -6.5015
    -6.4601  -6.3158  -6.2885  -6.1582  -6.0118  -5.9384  -4.5246  -4.4699
    -4.4116  -4.2341  -2.2110  -2.1790  -2.1631  -2.0646  -2.0229  -1.8741
    -1.7768  -1.5891  -1.5272  -1.5097  -0.9762  -0.4866  -0.3647   0.1326
     0.2610   0.5078   0.6190   0.6427   0.8609   0.9592   1.1024   1.2024
     1.2580   1.3236   1.4162   1.5088

          k = 0.5000 0.0962 0.0000 (109606 PWs)   bands (ev):

   -78.7804 -78.7584 -75.3071 -75.2892 -50.1104 -50.1091 -50.1090 -50.0890
   -50.0871 -50.0870 -46.6969 -46.6870 -46.6868 -46.6786 -46.6695 -46.6693
   -18.2792 -18.1807 -17.9584 -17.8589 -17.6958 -17.6257 -17.5697 -17.4981
   -17.4651 -17.4033 -17.3680 -17.3269 -10.3463 -10.0152  -9.8930  -9.8288
    -9.5298  -9.5190  -9.3794  -9.3694  -9.1763  -9.0781  -8.9452  -8.8485
    -8.8105  -8.6495  -8.5510  -8.4796  -8.4729  -8.3815  -8.2840  -8.0395
    -7.8983  -7.8321  -7.7058  -7.6031  -7.5616  -7.4096  -7.3651  -7.2474
    -7.1098  -7.0166  -6.9462  -6.8121  -6.8084  -6.6932  -6.5549  -6.5015
    -6.4601  -6.3158  -6.2885  -6.1582  -6.0118  -5.9384  -4.5246  -4.4699
    -4.4117  -4.2341  -2.2110  -2.1790  -2.1631  -2.0646  -2.0229  -1.8741
    -1.7767  -1.5891  -1.5272  -1.5097  -0.9762  -0.4866  -0.3647   0.1326
     0.2610   0.5078   0.6190   0.6427   0.8609   0.9592   1.1024   1.2024
     1.2580   1.3236   1.4162   1.5088

          k =-0.3333-0.3849 0.0000 (109606 PWs)   bands (ev):

   -78.7804 -78.7584 -75.3071 -75.2892 -50.1104 -50.1091 -50.1090 -50.0890
   -50.0871 -50.0870 -46.6969 -46.6870 -46.6868 -46.6786 -46.6695 -46.6693
   -18.2793 -18.1804 -17.9594 -17.8575 -17.6970 -17.6248 -17.5697 -17.4983
   -17.4652 -17.4023 -17.3693 -17.3263 -10.3466 -10.0125  -9.8836  -9.8464
    -9.5273  -9.5106  -9.3822  -9.3683  -9.1848  -9.0639  -8.9527  -8.8456
    -8.8253  -8.6460  -8.5292  -8.4941  -8.4731  -8.3767  -8.2838  -8.0517
    -7.9037  -7.8288  -7.6742  -7.6126  -7.5786  -7.4051  -7.3623  -7.2461
    -7.1191  -6.9992  -6.9594  -6.8593  -6.7676  -6.6684  -6.5778  -6.4928
    -6.4507  -6.3362  -6.2915  -6.1490  -6.0031  -5.9457  -4.5239  -4.4740
    -4.4088  -4.2336  -2.2093  -2.1772  -2.1649  -2.0681  -2.0206  -1.8750
    -1.7772  -1.5893  -1.5275  -1.5087  -0.9758  -0.4763  -0.3787   0.1384
     0.2799   0.4617   0.6068   0.6727   0.8542   0.9695   1.1014   1.1659
     1.2817   1.3471   1.4611   1.5098

          k = 0.5000-0.0962 0.0000 (109606 PWs)   bands (ev):

   -78.7804 -78.7584 -75.3071 -75.2892 -50.1104 -50.1091 -50.1090 -50.0890
   -50.0871 -50.0870 -46.6969 -46.6870 -46.6868 -46.6786 -46.6695 -46.6693
   -18.2793 -18.1804 -17.9594 -17.8575 -17.6970 -17.6248 -17.5697 -17.4983
   -17.4652 -17.4023 -17.3693 -17.3263 -10.3466 -10.0124  -9.8836  -9.8464
    -9.5273  -9.5106  -9.3822  -9.3683  -9.1848  -9.0639  -8.9527  -8.8456
    -8.8254  -8.6460  -8.5291  -8.4941  -8.4731  -8.3767  -8.2838  -8.0517
    -7.9037  -7.8288  -7.6742  -7.6126  -7.5786  -7.4051  -7.3623  -7.2461
    -7.1191  -6.9992  -6.9594  -6.8593  -6.7676  -6.6684  -6.5777  -6.4928
    -6.4507  -6.3362  -6.2915  -6.1490  -6.0031  -5.9457  -4.5239  -4.4740
    -4.4088  -4.2336  -2.2093  -2.1772  -2.1649  -2.0682  -2.0206  -1.8750
    -1.7772  -1.5893  -1.5275  -1.5087  -0.9758  -0.4763  -0.3787   0.1384
     0.2799   0.4617   0.6068   0.6727   0.8542   0.9695   1.1014   1.1659
     1.2817   1.3471   1.4611   1.5098

 ------ SPIN DOWN ----------


          k = 0.0000 0.0000 0.0000 (109591 PWs)   bands (ev):

   -78.7804 -78.7584 -75.3072 -75.2892 -50.1104 -50.1091 -50.1091 -50.0890
   -50.0870 -50.0870 -46.6970 -46.6870 -46.6870 -46.6785 -46.6693 -46.6693
   -18.6421 -18.5308 -17.8358 -17.6564 -17.5463 -17.5462 -17.4401 -17.4401
   -17.3678 -17.3678 -17.2930 -17.2930 -10.4861 -10.2256 -10.0528  -9.7239
    -9.7239  -9.6947  -9.6947  -9.4279  -9.0097  -9.0097  -8.8439  -8.7875
    -8.7623  -8.7623  -8.6956  -8.6371  -8.6371  -8.4728  -8.1568  -8.1568
    -7.9405  -7.8946  -7.8946  -7.5450  -7.5450  -7.4029  -7.3679  -7.3678
    -7.2750  -7.1781  -7.1780  -7.1662  -6.9220  -6.3679  -6.3679  -6.2513
    -6.2513  -6.1893  -5.8930  -5.8930  -5.7153  -5.7153  -4.5664  -4.5663
    -4.1092  -4.1092  -2.1435  -2.1434  -2.1280  -2.1280  -1.9762  -1.8242
    -1.6228  -1.6228  -1.4936  -1.4936  -0.9537  -0.5122  -0.2449   0.0196
     0.0843   0.2016   0.9088   0.9950   0.9950   1.1177   1.1178   1.2724
     1.7381   1.8251   1.8251   1.9317

          k = 0.0000 0.1925 0.0000 (109722 PWs)   bands (ev):

   -78.7804 -78.7584 -75.3071 -75.2892 -50.1104 -50.1091 -50.1090 -50.0890
   -50.0871 -50.0870 -46.6969 -46.6870 -46.6870 -46.6785 -46.6694 -46.6693
   -18.5826 -18.4719 -17.7984 -17.6333 -17.6245 -17.5776 -17.5230 -17.4656
   -17.3778 -17.3714 -17.3003 -17.2995 -10.4569 -10.1817 -10.0326  -9.8158
    -9.8083  -9.5737  -9.5582  -9.4198  -9.0873  -9.0418  -8.8635  -8.8260
    -8.7855  -8.6966  -8.6273  -8.6077  -8.5108  -8.3088  -8.1310  -8.1003
    -8.0285  -7.8853  -7.7202  -7.6628  -7.6025  -7.4229  -7.3450  -7.3173
    -7.2072  -7.1357  -7.0801  -7.0466  -6.8037  -6.4646  -6.4323  -6.3380
    -6.3139  -6.2459  -6.1199  -5.9802  -5.9444  -5.7797  -4.5637  -4.5394
    -4.2933  -4.1547  -2.1829  -2.1751  -2.1328  -2.1008  -1.8616  -1.8286
    -1.6296  -1.6029  -1.5815  -1.5503  -0.8588  -0.2141  -0.0185   0.2727
     0.3612   0.5083   0.6271   0.7348   0.8361   1.0392   1.3476   1.4714
     1.6085   1.7042   1.8072   1.8488

          k = 0.0000 0.3849 0.0000 (109616 PWs)   bands (ev):

   -78.7804 -78.7584 -75.3071 -75.2892 -50.1104 -50.1091 -50.1090 -50.0890
   -50.0871 -50.0870 -46.6969 -46.6870 -46.6869 -46.6785 -46.6694 -46.6693
   -18.4188 -18.3121 -17.8390 -17.7307 -17.6974 -17.6322 -17.5466 -17.5084
   -17.4306 -17.3862 -17.3404 -17.3179 -10.4553 -10.0505  -9.9714  -9.8380
    -9.6807  -9.4855  -9.4465  -9.3702  -9.2088  -8.9901  -8.9449  -8.8347
    -8.7708  -8.6924  -8.5462  -8.4712  -8.4535  -8.2883  -8.1573  -8.0958
    -7.8512  -7.8230  -7.7311  -7.6258  -7.5399  -7.4192  -7.3521  -7.1931
    -7.1334  -7.1092  -7.0104  -6.9608  -6.7861  -6.7227  -6.4988  -6.4702
    -6.4344  -6.3545  -6.3098  -6.1088  -6.0242  -5.8929  -4.5492  -4.4783
    -4.4112  -4.3034  -2.2150  -2.1979  -2.1868  -2.0212  -1.9657  -1.7502
    -1.7107  -1.6509  -1.6042  -1.5288  -0.8971  -0.2623  -0.0338   0.4197
     0.5687   0.6884   0.8172   0.9159   1.0033   1.0455   1.1319   1.2087
     1.3130   1.4508   1.5132   1.6172

          k = 0.0000-0.5774 0.0000 (109602 PWs)   bands (ev):

   -78.7804 -78.7584 -75.3071 -75.2892 -50.1104 -50.1091 -50.1090 -50.0890
   -50.0871 -50.0870 -46.6969 -46.6870 -46.6868 -46.6785 -46.6695 -46.6693
   -18.2538 -18.1745 -18.0063 -17.9043 -17.6578 -17.6069 -17.5294 -17.5199
   -17.4494 -17.4045 -17.3929 -17.3278 -10.4841  -9.9705  -9.9092  -9.8310
    -9.5288  -9.3949  -9.3865  -9.3043  -9.1982  -9.1008  -9.0541  -8.8568
    -8.6651  -8.6214  -8.5894  -8.5118  -8.4040  -8.3626  -8.1584  -8.1348
    -7.8747  -7.7439  -7.6541  -7.5911  -7.5696  -7.4820  -7.4037  -7.3308
    -7.1844  -6.9879  -6.9016  -6.8721  -6.7998  -6.6966  -6.5846  -6.5460
    -6.5027  -6.3576  -6.3038  -6.0855  -6.0154  -5.9226  -4.5206  -4.4770
    -4.4252  -4.3272  -2.2885  -2.2080  -2.1884  -1.9837  -1.9729  -1.9165
    -1.7289  -1.5785  -1.5621  -1.5316  -1.1085  -0.4788   0.0274   0.1071
     0.3851   0.7021   0.8313   0.9058   0.9332   1.1491   1.2133   1.2712
     1.3636   1.4276   1.5288   1.5665

          k = 0.1667 0.2887 0.0000 (109615 PWs)   bands (ev):

   -78.7804 -78.7584 -75.3071 -75.2892 -50.1104 -50.1091 -50.1090 -50.0890
   -50.0871 -50.0870 -46.6969 -46.6870 -46.6869 -46.6785 -46.6694 -46.6693
   -18.4703 -18.3614 -17.7593 -17.7311 -17.6656 -17.6268 -17.5694 -17.5195
   -17.4097 -17.3811 -17.3237 -17.3094 -10.3888 -10.1382  -9.9589  -9.9239
    -9.6396  -9.5571  -9.4561  -9.4042  -9.1531  -9.0798  -8.9071  -8.8383
    -8.7643  -8.6122  -8.5704  -8.5312  -8.5105  -8.2723  -8.0897  -8.0483
    -7.9815  -7.8602  -7.7364  -7.6595  -7.5146  -7.4678  -7.2928  -7.2250
    -7.1427  -7.0627  -6.9972  -6.9777  -6.8893  -6.5540  -6.4981  -6.4736
    -6.3960  -6.3059  -6.2764  -6.1201  -6.0187  -5.8740  -4.5531  -4.4971
    -4.4598  -4.1816  -2.2224  -2.1730  -2.1237  -2.0725  -1.9749  -1.7023
    -1.6894  -1.6723  -1.5878  -1.5447  -0.7914  -0.2277  -0.1020   0.3271
     0.4854   0.5470   0.6982   0.8050   1.0460   1.1213   1.2824   1.3418
     1.4360   1.5322   1.5437   1.6399

          k = 0.1667 0.4811 0.0000 (109606 PWs)   bands (ev):

   -78.7804 -78.7584 -75.3071 -75.2892 -50.1104 -50.1091 -50.1090 -50.0890
   -50.0871 -50.0870 -46.6969 -46.6870 -46.6868 -46.6785 -46.6695 -46.6692
   -18.2792 -18.1807 -17.9584 -17.8589 -17.6958 -17.6257 -17.5697 -17.4981
   -17.4651 -17.4033 -17.3680 -17.3269 -10.3464 -10.0152  -9.8930  -9.8288
    -9.5298  -9.5190  -9.3794  -9.3694  -9.1763  -9.0781  -8.9452  -8.8485
    -8.8105  -8.6495  -8.5510  -8.4796  -8.4729  -8.3815  -8.2840  -8.0395
    -7.8983  -7.8321  -7.7058  -7.6031  -7.5616  -7.4096  -7.3651  -7.2474
    -7.1099  -7.0166  -6.9462  -6.8121  -6.8084  -6.6932  -6.5549  -6.5015
    -6.4601  -6.3158  -6.2885  -6.1582  -6.0118  -5.9384  -4.5246  -4.4700
    -4.4116  -4.2341  -2.2110  -2.1790  -2.1631  -2.0646  -2.0229  -1.8741
    -1.7767  -1.5891  -1.5272  -1.5097  -0.9762  -0.4866  -0.3647   0.1326
     0.2610   0.5078   0.6190   0.6427   0.8609   0.9592   1.1024   1.2024
     1.2580   1.3237   1.4163   1.5088

          k = 0.3333 0.5774 0.0000 (109542 PWs)   bands (ev):

   -78.7804 -78.7584 -75.3071 -75.2892 -50.1104 -50.1091 -50.1090 -50.0890
   -50.0871 -50.0870 -46.6969 -46.6870 -46.6868 -46.6785 -46.6695 -46.6692
   -18.1074 -18.1010 -18.0188 -18.0003 -17.7497 -17.6321 -17.5432 -17.5274
   -17.4505 -17.4169 -17.3780 -17.3406 -10.0488 -10.0446 -10.0366  -9.5805
    -9.5615  -9.5534  -9.5322  -9.2245  -9.2214  -9.0287  -8.9321  -8.9145
    -8.8164  -8.7566  -8.5682  -8.5671  -8.4271  -8.3279  -8.3269  -8.2478
    -7.8936  -7.8840  -7.8555  -7.6430  -7.5368  -7.2299  -7.1927  -7.1731
    -7.0709  -7.0276  -6.9733  -6.8606  -6.7067  -6.6649  -6.5711  -6.5397
    -6.3586  -6.3558  -6.2475  -6.2155  -5.9718  -5.9472  -4.5314  -4.4167
    -4.3879  -4.1510  -2.1451  -2.1407  -2.1233  -2.1176  -2.0514  -2.0401
    -1.7877  -1.5436  -1.4932  -1.4878  -0.9082  -0.8841  -0.3121  -0.2948
     0.1765   0.3167   0.3234   0.5248   0.5810   0.6338   0.9142   0.9566
     1.0987   1.3069   1.3568   1.3980

          k =-0.1667 0.0962 0.0000 (109722 PWs)   bands (ev):

   -78.7804 -78.7584 -75.3071 -75.2892 -50.1104 -50.1091 -50.1090 -50.0890
   -50.0871 -50.0870 -46.6969 -46.6870 -46.6870 -46.6785 -46.6694 -46.6693
   -18.5826 -18.4719 -17.7984 -17.6333 -17.6245 -17.5776 -17.5230 -17.4656
   -17.3778 -17.3714 -17.3003 -17.2995 -10.4569 -10.1817 -10.0326  -9.8158
    -9.8083  -9.5737  -9.5581  -9.4198  -9.0873  -9.0418  -8.8635  -8.8260
    -8.7855  -8.6966  -8.6273  -8.6077  -8.5108  -8.3088  -8.1310  -8.1003
    -8.0285  -7.8853  -7.7202  -7.6628  -7.6025  -7.4229  -7.3450  -7.3173
    -7.2072  -7.1357  -7.0802  -7.0466  -6.8037  -6.4646  -6.4323  -6.3379
    -6.3139  -6.2459  -6.1199  -5.9802  -5.9444  -5.7797  -4.5637  -4.5394
    -4.2933  -4.1547  -2.1829  -2.1751  -2.1328  -2.1008  -1.8616  -1.8286
    -1.6296  -1.6029  -1.5815  -1.5503  -0.8588  -0.2141  -0.0185   0.2727
     0.3612   0.5083   0.6271   0.7348   0.8361   1.0392   1.3476   1.4714
     1.6085   1.7042   1.8072   1.8488

          k = 0.1667 0.0962 0.0000 (109722 PWs)   bands (ev):

   -78.7804 -78.7584 -75.3071 -75.2892 -50.1104 -50.1091 -50.1090 -50.0890
   -50.0871 -50.0870 -46.6969 -46.6870 -46.6870 -46.6785 -46.6694 -46.6693
   -18.5826 -18.4719 -17.7984 -17.6333 -17.6245 -17.5777 -17.5230 -17.4656
   -17.3778 -17.3714 -17.3003 -17.2995 -10.4569 -10.1817 -10.0326  -9.8158
    -9.8083  -9.5737  -9.5581  -9.4198  -9.0874  -9.0418  -8.8635  -8.8260
    -8.7855  -8.6965  -8.6273  -8.6077  -8.5109  -8.3088  -8.1310  -8.1003
    -8.0285  -7.8853  -7.7202  -7.6628  -7.6025  -7.4228  -7.3450  -7.3173
    -7.2072  -7.1357  -7.0802  -7.0466  -6.8037  -6.4646  -6.4323  -6.3379
    -6.3139  -6.2459  -6.1199  -5.9802  -5.9444  -5.7797  -4.5637  -4.5394
    -4.2933  -4.1547  -2.1829  -2.1751  -2.1328  -2.1008  -1.8616  -1.8286
    -1.6296  -1.6029  -1.5815  -1.5503  -0.8587  -0.2141  -0.0185   0.2727
     0.3612   0.5083   0.6271   0.7348   0.8361   1.0392   1.3476   1.4714
     1.6085   1.7041   1.8072   1.8488

          k =-0.3333 0.1925 0.0000 (109616 PWs)   bands (ev):

   -78.7804 -78.7584 -75.3071 -75.2892 -50.1104 -50.1091 -50.1090 -50.0890
   -50.0871 -50.0870 -46.6969 -46.6870 -46.6869 -46.6785 -46.6694 -46.6693
   -18.4188 -18.3121 -17.8389 -17.7307 -17.6974 -17.6322 -17.5466 -17.5084
   -17.4306 -17.3862 -17.3404 -17.3179 -10.4553 -10.0505  -9.9714  -9.8380
    -9.6807  -9.4855  -9.4464  -9.3702  -9.2088  -8.9901  -8.9449  -8.8347
    -8.7708  -8.6924  -8.5462  -8.4712  -8.4535  -8.2883  -8.1573  -8.0958
    -7.8512  -7.8230  -7.7311  -7.6258  -7.5399  -7.4191  -7.3521  -7.1931
    -7.1334  -7.1092  -7.0104  -6.9608  -6.7861  -6.7227  -6.4988  -6.4702
    -6.4344  -6.3545  -6.3098  -6.1088  -6.0242  -5.8929  -4.5492  -4.4783
    -4.4112  -4.3034  -2.2150  -2.1979  -2.1868  -2.0212  -1.9657  -1.7502
    -1.7107  -1.6509  -1.6042  -1.5288  -0.8971  -0.2623  -0.0338   0.4197
     0.5687   0.6884   0.8172   0.9159   1.0033   1.0455   1.1319   1.2087
     1.3130   1.4508   1.5132   1.6172

          k = 0.3333 0.1925 0.0000 (109616 PWs)   bands (ev):

   -78.7804 -78.7584 -75.3071 -75.2892 -50.1104 -50.1091 -50.1090 -50.0890
   -50.0871 -50.0870 -46.6969 -46.6870 -46.6869 -46.6785 -46.6694 -46.6693
   -18.4188 -18.3121 -17.8389 -17.7307 -17.6974 -17.6322 -17.5466 -17.5084
   -17.4306 -17.3862 -17.3405 -17.3179 -10.4553 -10.0505  -9.9714  -9.8381
    -9.6807  -9.4855  -9.4464  -9.3702  -9.2088  -8.9901  -8.9449  -8.8347
    -8.7708  -8.6924  -8.5462  -8.4712  -8.4535  -8.2883  -8.1573  -8.0958
    -7.8512  -7.8231  -7.7311  -7.6258  -7.5399  -7.4191  -7.3521  -7.1931
    -7.1334  -7.1092  -7.0104  -6.9608  -6.7861  -6.7227  -6.4988  -6.4702
    -6.4343  -6.3545  -6.3098  -6.1088  -6.0242  -5.8929  -4.5492  -4.4783
    -4.4112  -4.3034  -2.2151  -2.1979  -2.1868  -2.0212  -1.9657  -1.7502
    -1.7107  -1.6509  -1.6042  -1.5288  -0.8971  -0.2623  -0.0338   0.4197
     0.5687   0.6884   0.8172   0.9159   1.0033   1.0455   1.1319   1.2087
     1.3130   1.4508   1.5132   1.6172

          k = 0.5000-0.2887 0.0000 (109602 PWs)   bands (ev):

   -78.7804 -78.7584 -75.3071 -75.2892 -50.1104 -50.1091 -50.1090 -50.0890
   -50.0871 -50.0870 -46.6969 -46.6870 -46.6868 -46.6785 -46.6695 -46.6693
   -18.2538 -18.1745 -18.0063 -17.9043 -17.6578 -17.6069 -17.5294 -17.5199
   -17.4494 -17.4045 -17.3929 -17.3278 -10.4841  -9.9705  -9.9092  -9.8310
    -9.5288  -9.3948  -9.3865  -9.3043  -9.1982  -9.1008  -9.0541  -8.8568
    -8.6651  -8.6214  -8.5894  -8.5118  -8.4040  -8.3626  -8.1584  -8.1348
    -7.8747  -7.7439  -7.6541  -7.5911  -7.5696  -7.4820  -7.4037  -7.3308
    -7.1844  -6.9879  -6.9016  -6.8721  -6.7998  -6.6966  -6.5846  -6.5460
    -6.5027  -6.3576  -6.3038  -6.0855  -6.0154  -5.9226  -4.5206  -4.4770
    -4.4252  -4.3273  -2.2884  -2.2080  -2.1884  -1.9837  -1.9729  -1.9165
    -1.7289  -1.5785  -1.5621  -1.5316  -1.1084  -0.4788   0.0274   0.1071
     0.3851   0.7021   0.8313   0.9058   0.9332   1.1491   1.2133   1.2712
     1.3636   1.4276   1.5288   1.5665

          k =-0.5000-0.2887 0.0000 (109602 PWs)   bands (ev):

   -78.7804 -78.7584 -75.3071 -75.2892 -50.1104 -50.1091 -50.1090 -50.0890
   -50.0871 -50.0870 -46.6969 -46.6870 -46.6868 -46.6785 -46.6695 -46.6693
   -18.2538 -18.1745 -18.0063 -17.9043 -17.6578 -17.6069 -17.5294 -17.5199
   -17.4493 -17.4046 -17.3929 -17.3278 -10.4841  -9.9705  -9.9092  -9.8310
    -9.5288  -9.3949  -9.3865  -9.3044  -9.1982  -9.1008  -9.0541  -8.8568
    -8.6651  -8.6214  -8.5894  -8.5118  -8.4040  -8.3626  -8.1583  -8.1348
    -7.8747  -7.7439  -7.6541  -7.5911  -7.5696  -7.4820  -7.4038  -7.3308
    -7.1844  -6.9879  -6.9015  -6.8721  -6.7998  -6.6966  -6.5846  -6.5460
    -6.5027  -6.3576  -6.3038  -6.0855  -6.0154  -5.9226  -4.5206  -4.4770
    -4.4252  -4.3273  -2.2884  -2.2080  -2.1884  -1.9837  -1.9729  -1.9165
    -1.7290  -1.5785  -1.5621  -1.5317  -1.1084  -0.4788   0.0274   0.1071
     0.3851   0.7021   0.8313   0.9058   0.9332   1.1491   1.2133   1.2712
     1.3636   1.4276   1.5288   1.5665

          k =-0.1667 0.2887 0.0000 (109615 PWs)   bands (ev):

   -78.7804 -78.7584 -75.3071 -75.2892 -50.1104 -50.1091 -50.1090 -50.0890
   -50.0871 -50.0870 -46.6969 -46.6870 -46.6869 -46.6785 -46.6694 -46.6693
   -18.4703 -18.3614 -17.7593 -17.7311 -17.6656 -17.6268 -17.5694 -17.5195
   -17.4097 -17.3810 -17.3237 -17.3094 -10.3888 -10.1381  -9.9589  -9.9239
    -9.6396  -9.5571  -9.4561  -9.4042  -9.1531  -9.0798  -8.9071  -8.8383
    -8.7643  -8.6122  -8.5704  -8.5312  -8.5106  -8.2723  -8.0897  -8.0482
    -7.9814  -7.8602  -7.7364  -7.6595  -7.5146  -7.4678  -7.2927  -7.2250
    -7.1427  -7.0626  -6.9971  -6.9777  -6.8893  -6.5540  -6.4981  -6.4737
    -6.3960  -6.3059  -6.2764  -6.1201  -6.0187  -5.8740  -4.5531  -4.4971
    -4.4598  -4.1816  -2.2224  -2.1730  -2.1237  -2.0725  -1.9749  -1.7023
    -1.6894  -1.6723  -1.5878  -1.5447  -0.7914  -0.2277  -0.1019   0.3271
     0.4854   0.5470   0.6981   0.8050   1.0459   1.1213   1.2824   1.3418
     1.4360   1.5322   1.5436   1.6399

          k = 0.3333 0.0000 0.0000 (109615 PWs)   bands (ev):

   -78.7804 -78.7584 -75.3071 -75.2892 -50.1104 -50.1091 -50.1090 -50.0890
   -50.0871 -50.0870 -46.6969 -46.6870 -46.6869 -46.6785 -46.6694 -46.6693
   -18.4703 -18.3614 -17.7592 -17.7311 -17.6656 -17.6268 -17.5694 -17.5195
   -17.4097 -17.3811 -17.3237 -17.3094 -10.3888 -10.1381  -9.9589  -9.9239
    -9.6396  -9.5571  -9.4561  -9.4042  -9.1531  -9.0798  -8.9071  -8.8383
    -8.7643  -8.6122  -8.5704  -8.5312  -8.5105  -8.2723  -8.0897  -8.0482
    -7.9815  -7.8602  -7.7364  -7.6595  -7.5146  -7.4678  -7.2928  -7.2250
    -7.1427  -7.0627  -6.9972  -6.9777  -6.8893  -6.5540  -6.4981  -6.4736
    -6.3960  -6.3059  -6.2764  -6.1201  -6.0187  -5.8740  -4.5531  -4.4971
    -4.4598  -4.1816  -2.2224  -2.1730  -2.1237  -2.0725  -1.9749  -1.7024
    -1.6894  -1.6723  -1.5878  -1.5447  -0.7914  -0.2277  -0.1020   0.3271
     0.4854   0.5470   0.6981   0.8050   1.0460   1.1213   1.2824   1.3418
     1.4360   1.5322   1.5436   1.6399

          k =-0.1667 0.4811 0.0000 (109606 PWs)   bands (ev):

   -78.7804 -78.7584 -75.3071 -75.2892 -50.1104 -50.1091 -50.1090 -50.0890
   -50.0871 -50.0870 -46.6969 -46.6870 -46.6868 -46.6785 -46.6695 -46.6692
   -18.2793 -18.1804 -17.9594 -17.8575 -17.6970 -17.6248 -17.5697 -17.4983
   -17.4652 -17.4023 -17.3693 -17.3263 -10.3466 -10.0125  -9.8836  -9.8464
    -9.5273  -9.5106  -9.3822  -9.3683  -9.1848  -9.0639  -8.9526  -8.8456
    -8.8254  -8.6460  -8.5292  -8.4941  -8.4732  -8.3767  -8.2838  -8.0517
    -7.9037  -7.8288  -7.6742  -7.6126  -7.5786  -7.4051  -7.3623  -7.2461
    -7.1191  -6.9992  -6.9594  -6.8593  -6.7676  -6.6684  -6.5778  -6.4928
    -6.4507  -6.3362  -6.2915  -6.1489  -6.0031  -5.9457  -4.5239  -4.4740
    -4.4088  -4.2336  -2.2093  -2.1772  -2.1649  -2.0681  -2.0205  -1.8750
    -1.7772  -1.5893  -1.5275  -1.5086  -0.9759  -0.4763  -0.3787   0.1384
     0.2799   0.4617   0.6068   0.6727   0.8542   0.9695   1.1014   1.1659
     1.2817   1.3471   1.4611   1.5098

          k =-0.3333 0.3849 0.0000 (109606 PWs)   bands (ev):

   -78.7804 -78.7584 -75.3071 -75.2892 -50.1104 -50.1091 -50.1090 -50.0890
   -50.0871 -50.0870 -46.6969 -46.6870 -46.6868 -46.6785 -46.6695 -46.6692
   -18.2792 -18.1807 -17.9584 -17.8589 -17.6958 -17.6257 -17.5697 -17.4981
   -17.4651 -17.4033 -17.3680 -17.3269 -10.3464 -10.0152  -9.8930  -9.8288
    -9.5298  -9.5190  -9.3794  -9.3694  -9.1763  -9.0781  -8.9452  -8.8485
    -8.8105  -8.6495  -8.5510  -8.4796  -8.4729  -8.3815  -8.2840  -8.0395
    -7.8983  -7.8321  -7.7058  -7.6031  -7.5616  -7.4096  -7.3651  -7.2474
    -7.1099  -7.0166  -6.9462  -6.8121  -6.8084  -6.6932  -6.5549  -6.5015
    -6.4601  -6.3158  -6.2885  -6.1582  -6.0118  -5.9384  -4.5246  -4.4700
    -4.4117  -4.2341  -2.2110  -2.1790  -2.1631  -2.0646  -2.0229  -1.8741
    -1.7767  -1.5891  -1.5272  -1.5097  -0.9762  -0.4866  -0.3647   0.1326
     0.2610   0.5078   0.6190   0.6427   0.8609   0.9593   1.1024   1.2024
     1.2580   1.3236   1.4163   1.5088

          k = 0.5000 0.0962 0.0000 (109606 PWs)   bands (ev):

   -78.7804 -78.7584 -75.3071 -75.2892 -50.1104 -50.1091 -50.1090 -50.0890
   -50.0871 -50.0870 -46.6969 -46.6870 -46.6868 -46.6785 -46.6695 -46.6692
   -18.2792 -18.1807 -17.9584 -17.8589 -17.6958 -17.6257 -17.5697 -17.4981
   -17.4651 -17.4033 -17.3680 -17.3269 -10.3464 -10.0152  -9.8930  -9.8287
    -9.5298  -9.5190  -9.3794  -9.3694  -9.1763  -9.0781  -8.9452  -8.8485
    -8.8105  -8.6495  -8.5510  -8.4796  -8.4729  -8.3815  -8.2840  -8.0395
    -7.8983  -7.8321  -7.7058  -7.6031  -7.5616  -7.4096  -7.3651  -7.2474
    -7.1099  -7.0166  -6.9462  -6.8121  -6.8084  -6.6931  -6.5549  -6.5015
    -6.4601  -6.3158  -6.2885  -6.1582  -6.0118  -5.9384  -4.5246  -4.4700
    -4.4117  -4.2341  -2.2110  -2.1790  -2.1631  -2.0646  -2.0229  -1.8740
    -1.7767  -1.5891  -1.5272  -1.5097  -0.9762  -0.4866  -0.3647   0.1326
     0.2610   0.5078   0.6190   0.6427   0.8609   0.9592   1.1024   1.2024
     1.2580   1.3237   1.4163   1.5088

          k =-0.3333-0.3849 0.0000 (109606 PWs)   bands (ev):

   -78.7804 -78.7584 -75.3071 -75.2892 -50.1104 -50.1091 -50.1090 -50.0890
   -50.0871 -50.0870 -46.6969 -46.6870 -46.6868 -46.6785 -46.6695 -46.6692
   -18.2793 -18.1804 -17.9594 -17.8576 -17.6970 -17.6248 -17.5697 -17.4983
   -17.4652 -17.4023 -17.3693 -17.3263 -10.3466 -10.0125  -9.8836  -9.8464
    -9.5273  -9.5107  -9.3822  -9.3683  -9.1848  -9.0639  -8.9526  -8.8457
    -8.8254  -8.6460  -8.5292  -8.4941  -8.4731  -8.3767  -8.2838  -8.0517
    -7.9037  -7.8287  -7.6742  -7.6126  -7.5786  -7.4051  -7.3624  -7.2460
    -7.1191  -6.9992  -6.9595  -6.8593  -6.7676  -6.6684  -6.5778  -6.4928
    -6.4507  -6.3362  -6.2915  -6.1490  -6.0031  -5.9457  -4.5239  -4.4740
    -4.4088  -4.2336  -2.2093  -2.1771  -2.1649  -2.0681  -2.0206  -1.8750
    -1.7772  -1.5893  -1.5275  -1.5086  -0.9758  -0.4763  -0.3787   0.1384
     0.2799   0.4617   0.6068   0.6727   0.8542   0.9695   1.1014   1.1658
     1.2817   1.3471   1.4611   1.5098

          k = 0.5000-0.0962 0.0000 (109606 PWs)   bands (ev):

   -78.7804 -78.7584 -75.3071 -75.2892 -50.1104 -50.1091 -50.1090 -50.0890
   -50.0871 -50.0870 -46.6969 -46.6870 -46.6868 -46.6785 -46.6695 -46.6692
   -18.2793 -18.1804 -17.9594 -17.8575 -17.6970 -17.6248 -17.5697 -17.4983
   -17.4652 -17.4023 -17.3693 -17.3263 -10.3466 -10.0125  -9.8836  -9.8464
    -9.5273  -9.5106  -9.3822  -9.3683  -9.1848  -9.0639  -8.9527  -8.8456
    -8.8254  -8.6460  -8.5292  -8.4941  -8.4732  -8.3767  -8.2838  -8.0517
    -7.9037  -7.8287  -7.6742  -7.6126  -7.5786  -7.4051  -7.3623  -7.2461
    -7.1191  -6.9992  -6.9595  -6.8593  -6.7676  -6.6684  -6.5778  -6.4928
    -6.4507  -6.3362  -6.2915  -6.1490  -6.0031  -5.9457  -4.5239  -4.4741
    -4.4088  -4.2336  -2.2093  -2.1771  -2.1649  -2.0681  -2.0206  -1.8750
    -1.7772  -1.5893  -1.5275  -1.5086  -0.9759  -0.4763  -0.3787   0.1384
     0.2799   0.4617   0.6068   0.6727   0.8542   0.9695   1.1014   1.1659
     1.2817   1.3471   1.4611   1.5098

     highest occupied, lowest unoccupied level (ev):    -5.7153   -4.5664

!    total energy              =   -5539.49818983 Ry
     total all-electron energy =     -5539.498190 Ry
     estimated scf accuracy    <          8.9E-12 Ry

     The total energy is the sum of the following terms:
     one-electron contribution =   -9586.24742924 Ry
     hartree contribution      =    4766.34125109 Ry
     xc contribution           =    -165.77740404 Ry
     ewald contribution        =    3989.39166454 Ry
     Hubbard energy            =       0.69162764 Ry
     one-center paw contrib.   =   -4543.89789981 Ry

     total magnetization       =     0.00 Bohr mag/cell
     absolute magnetization    =    17.04 Bohr mag/cell

     convergence has been achieved in  25 iterations

     negative rho (up, down):  3.163E-02 3.163E-02

     Forces acting on atoms (cartesian axes, Ry/au):

     atom    1 type  1   force =    -0.00000179   -0.00000019   -0.00074048
     atom    2 type  1   force =     0.00000489    0.00000035   -0.00000939
     atom    3 type  2   force =     0.01363200   -0.00001022   -0.02082922
     atom    4 type  2   force =    -0.00682406   -0.01179999   -0.02082909
     atom    5 type  2   force =    -0.00680697    0.01180992   -0.02082730
     atom    6 type  2   force =    -0.01342826    0.00006076    0.02331917
     atom    7 type  2   force =     0.00676947    0.01159731    0.02331772
     atom    8 type  2   force =     0.00665976   -0.01166025    0.02331892
     atom    9 type  3   force =    -0.00000452    0.00000387    0.00001303
     atom   10 type  3   force =     0.00000214   -0.00000425    0.00074602
     atom   11 type  2   force =     0.01342845   -0.00006631   -0.02331968
     atom   12 type  2   force =    -0.00677197   -0.01159594   -0.02331966
     atom   13 type  2   force =    -0.00665654    0.01166305   -0.02331882
     atom   14 type  2   force =    -0.01363209    0.00000581    0.02082668
     atom   15 type  2   force =     0.00681920    0.01180272    0.02082586
     atom   16 type  2   force =     0.00681027   -0.01180664    0.02082624

     Total force =     0.089796     Total SCF correction =     0.000012


     Computing stress (Cartesian axis) and pressure


     negative rho (up, down):  3.163E-02 3.163E-02
          total   stress  (Ry/bohr**3)                   (kbar)     P=       20.82
   0.00014326  -0.00000000  -0.00000000           21.07       -0.00       -0.00
  -0.00000000   0.00014326  -0.00000000           -0.00       21.07       -0.00
  -0.00000000  -0.00000000   0.00013807           -0.00       -0.00       20.31


     Writing all to output data dir ./lt_fm_afm_qe/lt_fm_afm_qe.save/ :
     XML data file, charge density, pseudopotentials, collected wavefunctions

     init_run     :     49.49s CPU     50.37s WALL (       1 calls)
     electrons    :   1936.74s CPU   2007.43s WALL (       1 calls)
     forces       :    383.64s CPU    388.73s WALL (       1 calls)
     stress       :   1537.87s CPU   1554.30s WALL (       1 calls)

     Called by init_run:
     wfcinit      :     46.56s CPU     47.27s WALL (       1 calls)
     potinit      :      1.11s CPU      1.15s WALL (       1 calls)
     hinit0       :      0.98s CPU      0.99s WALL (       1 calls)

     Called by electrons:
     c_bands      :   1596.52s CPU   1654.93s WALL (      25 calls)
     sum_band     :    296.91s CPU    306.23s WALL (      25 calls)
     v_of_rho     :      5.70s CPU      5.79s WALL (      26 calls)
     newd         :     13.48s CPU     15.83s WALL (      26 calls)
     PAW_pot      :     21.89s CPU     22.04s WALL (      26 calls)
     mix_rho      :      2.89s CPU      2.95s WALL (      25 calls)

     Called by c_bands:
     init_us_2    :     24.58s CPU     24.96s WALL (    2240 calls)
     init_us_2:cp :     24.56s CPU     24.94s WALL (    2240 calls)
     cegterg      :   1540.99s CPU   1598.32s WALL (    1000 calls)

     Called by *egterg:
     cdiaghg      :    148.56s CPU    149.72s WALL (    3987 calls)
     h_psi        :   1026.57s CPU   1055.08s WALL (    4027 calls)
     s_psi        :     67.72s CPU     68.55s WALL (    4227 calls)
     g_psi        :      9.25s CPU      9.39s WALL (    2987 calls)

     Called by h_psi:
     h_psi:calbec :     71.46s CPU     72.90s WALL (    4027 calls)
     vloc_psi     :    799.56s CPU    812.59s WALL (    4027 calls)
     add_vuspsi   :     59.87s CPU     60.62s WALL (    4027 calls)
     vhpsi        :     80.11s CPU     81.30s WALL (    4027 calls)

     General routines
     calbec       :    394.12s CPU    400.32s WALL (   72334 calls)
     fft          :      4.64s CPU      4.75s WALL (     688 calls)
     ffts         :      0.33s CPU      0.36s WALL (     102 calls)
     fftw         :    771.51s CPU    784.82s WALL (  617970 calls)
     interpolate  :      0.56s CPU      0.57s WALL (      52 calls)

     Parallel routines

     Hubbard U routines
     new_ns       :     15.01s CPU     15.40s WALL (      25 calls)
     vhpsi        :     80.11s CPU     81.30s WALL (    4027 calls)
     force_hub    :    375.80s CPU    380.72s WALL (       1 calls)
                                        0.00s GPU  (       1 calls)
     stres_hub    :   1406.51s CPU   1421.15s WALL (       1 calls)
                                        0.00s GPU  (       1 calls)

     PWSCF        :      1h 5m CPU      1h 7m WALL


   This run was terminated on:  16: 9:35  15Oct2025            

=------------------------------------------------------------------------------=
   JOB DONE.
=------------------------------------------------------------------------------=
