 +---------------------------------------------------------------+
 |                                                               |
 |        ####### #     # ####### ####### ####### ######         |
 |        #     # ##    # #          #    #       #     #        |
 |        #     # # #   # #          #    #       #     #        |
 |        #     # #  #  # #####      #    #####   ######         |
 |        #     # #   # # #          #    #       #              |
 |        #     # #    ## #          #    #       #              |
 |        ####### #     # #######    #    ####### #              |
 |                                                               |
 |        Linear-Scaling Ab Initio Total Energy Program          |
 |                                                               |
 |          Release for academic collaborators of ODG            |
 |                                             Version 7.3.0     |
 | Remote: git@github.com:Miesaz/onetep_mea.git                  |
 | Local branch: master                                          |
 | Commit ID: 4af45e89288c8df5499704252eec3e032ee3d0c8           |
 | Date: Tue Aug 6 11:28:44 2024 +0100                           |
 | Working tree clean                                            |
 |                                                               |
 +---------------------------------------------------------------+
 |                                                               |
 |  Authors:                                                     |
 |  Jacek Dziedzic, Peter D. Haynes, Nicholas D. M. Hine,        |
 |  Arash A. Mostofi, Mike C. Payne and Chris-Kriton Skylaris    |
 |                                                               |
 |  Contributors:                                                |
 |  J. Aarons, L. Andrinopoulos, P. W. Avraam, R. A. Bell,       |
 |  A. Bhandari, G. A. Bramley, R. J. Charlton, S. J. Clark,     |
 |  R. J. Clements, G. C. Constantinescu, F. Corsetti,           |
 |  N. Corsini, O. Dieguez, S. M. M. Dubois, K. K. B. Duff,      |
 |  J. M. Escartin, M. Escobar Azor, A. Greco,                   |
 |  H. Helal, Q. O. Hill, L. P. Lee, J.-H. Li,                   |
 |  T. Li, E. B. Linscott, G. Moynihan, D. D. O`Regan,           |
 |  O. K. Okan, E. Parkinson, M. J. S. Phipps,                   |
 |  C. J. Pickard, J. C. A. Prentice, M. I. J. Probert,          |
 |  L. E. Ratcliff, M. Robinson, A. Ruiz Serrano,                |
 |  M. dos Santos Dias, J. S. Spencer, E. W. Tait,               |
 |  G. Teobaldi, D. Turban, V. Vitale, K. A. Wilkinson,          |
 |  C. Weber, J. C. Womack, Chengcheng Xiao, N. Yeung,           |
 |  and T. J. Zuehlsdorff.                                       |
 |                                                               |
 |                                   Copyright (c) 2004-2024     |
 |                                                               |
 |  Please cite:                                                 |
 |  "The ONETEP linear-scaling density functional theory program"|
 |   J. Chem. Phys. 152(17) 174111 (2020)                        |
 |                                                               |
 |          in all publications arising from your use of ONETEP. |
 |                                                               |
 +---------------------------------------------------------------+
 |                                                               |
 |   ONETEP is based on developments described in the following  |
 |   publications:                                               |
 |                                                               |
 |  "Nonorthogonal generalized Wannier function pseudopotential  |
 |   plane-wave method".                                         |
 |   C.-K. Skylaris, A. A. Mostofi, P. D. Haynes, O. Dieguez,    |
 |   M. C. Payne.                                                |
 |   Phys. Rev. B 66 035119 (2002).                              |
 |                                                               |
 |  "Preconditioned iterative minimization for linear-scaling    |
 |   electronic structure calculations".                         |
 |   A. A. Mostofi, P. D. Haynes, C.-K. Skylaris, M. C. Payne.   |
 |   J. Chem. Phys. 119(17), pp.8842-8848 (2003).                |
 |                                                               |
 |  "Total-energy calculations on a real space grid with         |
 |   localized functions and a plane-wave basis".                |
 |   A. A. Mostofi, C.-K. Skylaris, P. D. Haynes, M. C. Payne.   |
 |   Comput. Phys. Commun. 147, pp.788-802 (2002).               |
 |                                                               |
 |  "Accurate kinetic energy evaluation in electronic structure  |
 |   calculations with localized functions on real space grids"  |
 |   C.-K. Skylaris, A. A. Mostofi, P. D. Haynes, C. J. Pickard, |
 |   M. C. Payne.                                                |
 |   Comput. Phys. Commun. 140, pp.315-322 (2001).               |
 |                                                               |
 |  "Accurate ionic forces and geometry optimization in linear-  |
 |   scaling density-functional theory with local orbitals"      |
 |   N. D. M. Hine, M. Robinson, P. D. Haynes, C.-K. Skylaris,   |
 |   M. C. Payne, and A. A. Mostofi.                             |
 |   Phys. Rev. B 83 195102 (2011).                              |
 |                                                               |
 +---------------------------------------------------------------+

Job started: 02-05-2025 10:00 (+0100)
 
Reading parameters from file "Cr2I6_bilayer_LT_FM_AFM_SP.dat" ...... done

If your calculation crashes here, before "Checking processes and threads..."
is displayed, then your stack size is insufficient.
If so, use "ulimit -s unlimited" at runtime.
You can disable this check with "check_stack_size F".

Checking processes and threads...
      Default threads: 16
   Running with 150 MPI processes.
   There are 6 MPI processes running on the same node as the root process.
   Each MPI process is using: 
               1 threads for simulation cell FFTs.
               1 threads for threaded FFT box operations.
              16 threads for loops over batched FFT box operations.
              16 threads in other parallel regions.
   MPI Interface: S1 (use mpi_f08) (-DMPI -DUSE_MPI_F08).
   MPI_ASYNC_PROTECTS_NONBLOCKING: Yes. MPI_SUBARRAYS_SUPPORTED: Yes.
   FFTW Interface: OMP-capable and MODERN. (-DUSE_MODERN_FFTW specified).
   GPU Interface: None.
   GPU FFT Backend: None.
... done

Basic input checks...... done

Reading geometry and species blocks from file "Cr2I6_bilayer_LT_FM_AFM_SP.dat" ...... done


--------------------------------------------------------------------------------
---------------------------------- INPUT FILE ----------------------------------
--------------------------------------------------------------------------------

charge : 0                                                                      
cutoff_energy : 1000 eV                                                         
delta_e_conv : F                                                                
do_properties : T                                                               
edft : F                                                                        
edft_init_maxit : 15                                                            
elec_energy_tol : 1e-07 Ha                                                      
fine_grid_scale : 4                                                             
forces_output_detail : VERBOSE                                                  
MAXIT_LNV     : 15                                                              
MINIT_LNV     : 5                                                               
maxit_ngwf_cg : 100                                                             
ngwf_threshold_orig : 1e-06                                                     
ngwfs_spin_polarized : T                                                        
output_detail : NORMAL                                                          
paw : T                                                                         
read_denskern : T                                                               
read_hamiltonian : F                                                            
read_tightbox_ngwfs : T                                                         
spin : 0                                                                        
spin_polarized : T                                                              
task : SinglePoint                                                              
write_denskern : T                                                              
write_forces : T                                                                
write_hamiltonian : T                                                           
write_tightbox_ngwfs : T                                                        
xc_functional : PBE                                                             
%BLOCK LATTICE_CART                                                             
ang                                                                             
41.261892132    0.000000000    0.000000000                                      
-20.630946066   35.733846792    0.000000000                                     
0.000000000    0.000000000   27.507928088                                       
%ENDBLOCK LATTICE_CART                                                          
%BLOCK POSITIONS_ABS                                                            
ang                                                                             
Cr       2.29230603       3.97040895      17.03520929                           
Cr      -1.14615438       5.95565340      17.04368562                           
I        3.29127824       1.97929933      15.50172901                           
I        0.06846335       4.10088269      15.50172980                           
I       -3.35976942       5.83112629      15.50174515                           
I        1.29815293       1.98813153      18.57647573                           
I        1.07268127       5.82255136      18.57647595                           
I       -2.37086124       4.10061929      18.57646027                           
Cr      5.73080703       1.98523473      10.46423698                            
Cr      2.29229229       3.97042256      10.47271549                            
I        6.72497778      -0.00289519       8.93147663                           
I        3.51196949       2.11831465       8.93145308                           
I        0.07849930       3.84024628       8.93144278                           
I        4.73186155       0.00594958      12.00619783                           
I        4.51617900       3.83998833      12.00619302                           
I        1.06740595       2.10972815      12.00620106                           
Cr      -1.14618498       9.92605008      17.03520929                           
Cr      -4.58464539      11.91129453      17.04368562                           
I       -0.14721277       7.93494046      15.50172901                           
I       -3.37002766      10.05652383      15.50172980                           
I       -6.79826043      11.78676742      15.50174515                           
I       -2.14033808       7.94377266      18.57647573                           
I       -2.36580974      11.77819249      18.57647595                           
I       -5.80935225      10.05626043      18.57646027                           
Cr      2.29231601       7.94087586      10.46423698                            
Cr     -1.14619872       9.92606369      10.47271549                            
I        3.28648677       5.95274594       8.93147663                           
I        0.07347848       8.07395578       8.93145308                           
I       -3.35999171       9.79588741       8.93144278                           
I        1.29337054       5.96159071      12.00619783                           
I        1.07768799       9.79562946      12.00619302                           
I       -2.37108506       8.06536928      12.00620106                           
Cr      -4.58467600      15.88169122      17.03520929                           
Cr      -8.02313640      17.86693567      17.04368562                           
I       -3.58570378      13.89058160      15.50172901                           
I       -6.80851867      16.01216496      15.50172980                           
I      -10.23675144      17.74240855      15.50174515                           
I       -5.57882909      13.89941380      18.57647573                           
I       -5.80430075      17.73383362      18.57647595                           
I       -9.24784326      16.01190156      18.57646027                           
Cr     -1.14617500      13.89651700      10.46423698                            
Cr     -4.58468973      15.88170482      10.47271549                            
I       -0.15200424      11.90838708       8.93147663                           
I       -3.36501253      14.02959691       8.93145308                           
I       -6.79848272      15.75152855       8.93144278                           
I       -2.14512047      11.91723184      12.00619783                           
I       -2.36080302      15.75127059      12.00619302                           
I       -5.80957607      14.02101041      12.00620106                           
Cr      -8.02316701      21.83733235      17.03520929                           
Cr     -11.46162741      23.82257680      17.04368562                           
I       -7.02419479      19.84622273      15.50172901                           
I      -10.24700968      21.96780609      15.50172980                           
I      -13.67524245      23.69804968      15.50174515                           
I       -9.01732010      19.85505493      18.57647573                           
I       -9.24279176      23.68947476      18.57647595                           
I      -12.68633427      21.96754269      18.57646027                           
Cr     -4.58466601      19.85215813      10.46423698                            
Cr     -8.02318074      21.83734595      10.47271549                            
I       -3.59049526      17.86402821       8.93147663                           
I       -6.80350354      19.98523804       8.93145308                           
I      -10.23697373      21.70716968       8.93144278                           
I       -5.58361148      17.87287297      12.00619783                           
I       -5.79929403      21.70691172      12.00619302                           
I       -9.24806708      19.97665154      12.00620106                           
Cr     -11.46165802      27.79297348      17.03520929                           
Cr     -14.90011843      29.77821793      17.04368562                           
I      -10.46268580      25.80186386      15.50172901                           
I      -13.68550069      27.92344722      15.50172980                           
I      -17.11373346      29.65369082      15.50174515                           
I      -12.45581112      25.81069606      18.57647573                           
I      -12.68128277      29.64511589      18.57647595                           
I      -16.12482528      27.92318382      18.57646027                           
Cr     -8.02315702      25.80779926      10.46423698                            
Cr    -11.46167176      27.79298708      10.47271549                            
I       -7.02898627      23.81966934       8.93147663                           
I      -10.24199455      25.94087917       8.93145308                           
I      -13.67546474      27.66281081       8.93144278                           
I       -9.02210249      23.82851411      12.00619783                           
I       -9.23778504      27.66255286      12.00619302                           
I      -12.68655809      25.93229268      12.00620106                           
Cr     -14.90014903      33.74861461      17.03520929                           
Cr     -18.33860944      35.73385906      17.04368562                           
I      -13.90117681      31.75750499      15.50172901                           
I      -17.12399170      33.87908835      15.50172980                           
I      -20.55222447      35.60933195      15.50174515                           
I      -15.89430213      31.76633719      18.57647573                           
I      -16.11977378      35.60075702      18.57647595                           
I      -19.56331629      33.87882495      18.57646027                           
Cr    -11.46164803      31.76344039      10.46423698                            
Cr    -14.90016277      33.74862822      10.47271549                            
I      -10.46747728      29.77531047       8.93147663                           
I      -13.68048556      31.89652031       8.93145308                           
I      -17.11395575      33.61845194       8.93144278                           
I      -12.46059350      29.78415524      12.00619783                           
I      -12.67627606      33.61819399      12.00619302                           
I      -16.12504910      31.88793381      12.00620106                           
Cr       9.16928805       3.97040895      17.03520929                           
Cr       5.73082764       5.95565340      17.04368562                           
I       10.16826026       1.97929933      15.50172901                           
I        6.94544538       4.10088269      15.50172980                           
I        3.51721261       5.83112629      15.50174515                           
I        8.17513495       1.98813153      18.57647573                           
I        7.94966330       5.82255136      18.57647595                           
I        4.50612079       4.10061929      18.57646027                           
Cr     12.60778905       1.98523473      10.46423698                            
Cr      9.16927431       3.97042256      10.47271549                            
I       13.60195980      -0.00289519       8.93147663                           
I       10.38895151       2.11831465       8.93145308                           
I        6.95548132       3.84024628       8.93144278                           
I       11.60884358       0.00594958      12.00619783                           
I       11.39316102       3.83998833      12.00619302                           
I        7.94438798       2.10972815      12.00620106                           
Cr       5.73079704       9.92605008      17.03520929                           
Cr       2.29233663      11.91129453      17.04368562                           
I        6.72976925       7.93494046      15.50172901                           
I        3.50695437      10.05652383      15.50172980                           
I        0.07872159      11.78676742      15.50174515                           
I        4.73664394       7.94377266      18.57647573                           
I        4.51117228      11.77819249      18.57647595                           
I        1.06762977      10.05626043      18.57646027                           
Cr      9.16929804       7.94087586      10.46423698                            
Cr      5.73078330       9.92606369      10.47271549                            
I       10.16346879       5.95274594       8.93147663                           
I        6.95046050       8.07395578       8.93145308                           
I        3.51699031       9.79588741       8.93144278                           
I        8.17035256       5.96159071      12.00619783                           
I        7.95467001       9.79562946      12.00619302                           
I        4.50589697       8.06536928      12.00620106                           
Cr       2.29230603      15.88169122      17.03520929                           
Cr      -1.14615438      17.86693567      17.04368562                           
I        3.29127824      13.89058160      15.50172901                           
I        0.06846335      16.01216496      15.50172980                           
I       -3.35976942      17.74240855      15.50174515                           
I        1.29815293      13.89941380      18.57647573                           
I        1.07268127      17.73383362      18.57647595                           
I       -2.37086124      16.01190156      18.57646027                           
Cr      5.73080703      13.89651700      10.46423698                            
Cr      2.29229229      15.88170482      10.47271549                            
I        6.72497778      11.90838708       8.93147663                           
I        3.51196949      14.02959691       8.93145308                           
I        0.07849930      15.75152855       8.93144278                           
I        4.73186155      11.91723184      12.00619783                           
I        4.51617900      15.75127059      12.00619302                           
I        1.06740595      14.02101041      12.00620106                           
Cr      -1.14618498      21.83733235      17.03520929                           
Cr      -4.58464539      23.82257680      17.04368562                           
I       -0.14721277      19.84622273      15.50172901                           
I       -3.37002766      21.96780609      15.50172980                           
I       -6.79826043      23.69804968      15.50174515                           
I       -2.14033808      19.85505493      18.57647573                           
I       -2.36580974      23.68947476      18.57647595                           
I       -5.80935225      21.96754269      18.57646027                           
Cr      2.29231601      19.85215813      10.46423698                            
Cr     -1.14619872      21.83734595      10.47271549                            
I        3.28648677      17.86402821       8.93147663                           
I        0.07347848      19.98523804       8.93145308                           
I       -3.35999171      21.70716968       8.93144278                           
I        1.29337054      17.87287297      12.00619783                           
I        1.07768799      21.70691172      12.00619302                           
I       -2.37108506      19.97665154      12.00620106                           
Cr      -4.58467600      27.79297348      17.03520929                           
Cr      -8.02313640      29.77821793      17.04368562                           
I       -3.58570378      25.80186386      15.50172901                           
I       -6.80851867      27.92344722      15.50172980                           
I      -10.23675144      29.65369082      15.50174515                           
I       -5.57882909      25.81069606      18.57647573                           
I       -5.80430075      29.64511589      18.57647595                           
I       -9.24784326      27.92318382      18.57646027                           
Cr     -1.14617500      25.80779926      10.46423698                            
Cr     -4.58468973      27.79298708      10.47271549                            
I       -0.15200424      23.81966934       8.93147663                           
I       -3.36501253      25.94087917       8.93145308                           
I       -6.79848272      27.66281081       8.93144278                           
I       -2.14512047      23.82851411      12.00619783                           
I       -2.36080302      27.66255286      12.00619302                           
I       -5.80957607      25.93229268      12.00620106                           
Cr      -8.02316701      33.74861461      17.03520929                           
Cr     -11.46162741      35.73385906      17.04368562                           
I       -7.02419479      31.75750499      15.50172901                           
I      -10.24700968      33.87908835      15.50172980                           
I      -13.67524245      35.60933195      15.50174515                           
I       -9.01732010      31.76633719      18.57647573                           
I       -9.24279176      35.60075702      18.57647595                           
I      -12.68633427      33.87882495      18.57646027                           
Cr     -4.58466601      31.76344039      10.46423698                            
Cr     -8.02318074      33.74862822      10.47271549                            
I       -3.59049526      29.77531047       8.93147663                           
I       -6.80350354      31.89652031       8.93145308                           
I      -10.23697373      33.61845194       8.93144278                           
I       -5.58361148      29.78415524      12.00619783                           
I       -5.79929403      33.61819399      12.00619302                           
I       -9.24806708      31.88793381      12.00620106                           
Cr      16.04627007       3.97040895      17.03520929                           
Cr      12.60780966       5.95565340      17.04368562                           
I       17.04524228       1.97929933      15.50172901                           
I       13.82242740       4.10088269      15.50172980                           
I       10.39419463       5.83112629      15.50174515                           
I       15.05211697       1.98813153      18.57647573                           
I       14.82664532       5.82255136      18.57647595                           
I       11.38310281       4.10061929      18.57646027                           
Cr     19.48477107       1.98523473      10.46423698                            
Cr     16.04625633       3.97042256      10.47271549                            
I       20.47894182      -0.00289519       8.93147663                           
I       17.26593353       2.11831465       8.93145308                           
I       13.83246335       3.84024628       8.93144278                           
I       18.48582560       0.00594958      12.00619783                           
I       18.27014304       3.83998833      12.00619302                           
I       14.82137000       2.10972815      12.00620106                           
Cr      12.60777906       9.92605008      17.03520929                           
Cr       9.16931865      11.91129453      17.04368562                           
I       13.60675127       7.93494046      15.50172901                           
I       10.38393639      10.05652383      15.50172980                           
I        6.95570362      11.78676742      15.50174515                           
I       11.61362596       7.94377266      18.57647573                           
I       11.38815431      11.77819249      18.57647595                           
I        7.94461180      10.05626043      18.57646027                           
Cr     16.04628006       7.94087586      10.46423698                            
Cr     12.60776532       9.92606369      10.47271549                            
I       17.04045081       5.95274594       8.93147663                           
I       13.82744252       8.07395578       8.93145308                           
I       10.39397233       9.79588741       8.93144278                           
I       15.04733459       5.96159071      12.00619783                           
I       14.83165203       9.79562946      12.00619302                           
I       11.38287899       8.06536928      12.00620106                           
Cr       9.16928805      15.88169122      17.03520929                           
Cr       5.73082764      17.86693567      17.04368562                           
I       10.16826026      13.89058160      15.50172901                           
I        6.94544538      16.01216496      15.50172980                           
I        3.51721261      17.74240855      15.50174515                           
I        8.17513495      13.89941380      18.57647573                           
I        7.94966330      17.73383362      18.57647595                           
I        4.50612079      16.01190156      18.57646027                           
Cr     12.60778905      13.89651700      10.46423698                            
Cr      9.16927431      15.88170482      10.47271549                            
I       13.60195980      11.90838708       8.93147663                           
I       10.38895151      14.02959691       8.93145308                           
I        6.95548132      15.75152855       8.93144278                           
I       11.60884358      11.91723184      12.00619783                           
I       11.39316102      15.75127059      12.00619302                           
I        7.94438798      14.02101041      12.00620106                           
Cr       5.73079704      21.83733235      17.03520929                           
Cr       2.29233663      23.82257680      17.04368562                           
I        6.72976925      19.84622273      15.50172901                           
I        3.50695437      21.96780609      15.50172980                           
I        0.07872159      23.69804968      15.50174515                           
I        4.73664394      19.85505493      18.57647573                           
I        4.51117228      23.68947476      18.57647595                           
I        1.06762977      21.96754269      18.57646027                           
Cr      9.16929804      19.85215813      10.46423698                            
Cr      5.73078330      21.83734595      10.47271549                            
I       10.16346879      17.86402821       8.93147663                           
I        6.95046050      19.98523804       8.93145308                           
I        3.51699031      21.70716968       8.93144278                           
I        8.17035256      17.87287297      12.00619783                           
I        7.95467001      21.70691172      12.00619302                           
I        4.50589697      19.97665154      12.00620106                           
Cr       2.29230603      27.79297348      17.03520929                           
Cr      -1.14615438      29.77821793      17.04368562                           
I        3.29127824      25.80186386      15.50172901                           
I        0.06846335      27.92344722      15.50172980                           
I       -3.35976942      29.65369082      15.50174515                           
I        1.29815293      25.81069606      18.57647573                           
I        1.07268127      29.64511589      18.57647595                           
I       -2.37086124      27.92318382      18.57646027                           
Cr      5.73080703      25.80779926      10.46423698                            
Cr      2.29229229      27.79298708      10.47271549                            
I        6.72497778      23.81966934       8.93147663                           
I        3.51196949      25.94087917       8.93145308                           
I        0.07849930      27.66281081       8.93144278                           
I        4.73186155      23.82851411      12.00619783                           
I        4.51617900      27.66255286      12.00619302                           
I        1.06740595      25.93229268      12.00620106                           
Cr      -1.14618498      33.74861461      17.03520929                           
Cr      -4.58464539      35.73385906      17.04368562                           
I       -0.14721277      31.75750499      15.50172901                           
I       -3.37002766      33.87908835      15.50172980                           
I       -6.79826043      35.60933195      15.50174515                           
I       -2.14033808      31.76633719      18.57647573                           
I       -2.36580974      35.60075702      18.57647595                           
I       -5.80935225      33.87882495      18.57646027                           
Cr      2.29231601      31.76344039      10.46423698                            
Cr     -1.14619872      33.74862822      10.47271549                            
I        3.28648677      29.77531047       8.93147663                           
I        0.07347848      31.89652031       8.93145308                           
I       -3.35999171      33.61845194       8.93144278                           
I        1.29337054      29.78415524      12.00619783                           
I        1.07768799      33.61819399      12.00619302                           
I       -2.37108506      31.88793381      12.00620106                           
Cr      22.92325209       3.97040895      17.03520929                           
Cr      19.48479168       5.95565340      17.04368562                           
I       23.92222431       1.97929933      15.50172901                           
I       20.69940942       4.10088269      15.50172980                           
I       17.27117665       5.83112629      15.50174515                           
I       21.92909899       1.98813153      18.57647573                           
I       21.70362734       5.82255136      18.57647595                           
I       18.26008483       4.10061929      18.57646027                           
Cr     26.36175309       1.98523473      10.46423698                            
Cr     22.92323835       3.97042256      10.47271549                            
I       27.35592384      -0.00289519       8.93147663                           
I       24.14291556       2.11831465       8.93145308                           
I       20.70944537       3.84024628       8.93144278                           
I       25.36280762       0.00594958      12.00619783                           
I       25.14712507       3.83998833      12.00619302                           
I       21.69835202       2.10972815      12.00620106                           
Cr      19.48476108       9.92605008      17.03520929                           
Cr      16.04630067      11.91129453      17.04368562                           
I       20.48373330       7.93494046      15.50172901                           
I       17.26091841      10.05652383      15.50172980                           
I       13.83268564      11.78676742      15.50174515                           
I       18.49060798       7.94377266      18.57647573                           
I       18.26513633      11.77819249      18.57647595                           
I       14.82159382      10.05626043      18.57646027                           
Cr     22.92326208       7.94087586      10.46423698                            
Cr     19.48474734       9.92606369      10.47271549                            
I       23.91743283       5.95274594       8.93147663                           
I       20.70442455       8.07395578       8.93145308                           
I       17.27095436       9.79588741       8.93144278                           
I       21.92431661       5.96159071      12.00619783                           
I       21.70863405       9.79562946      12.00619302                           
I       18.25986101       8.06536928      12.00620106                           
Cr      16.04627007      15.88169122      17.03520929                           
Cr      12.60780966      17.86693567      17.04368562                           
I       17.04524228      13.89058160      15.50172901                           
I       13.82242740      16.01216496      15.50172980                           
I       10.39419463      17.74240855      15.50174515                           
I       15.05211697      13.89941380      18.57647573                           
I       14.82664532      17.73383362      18.57647595                           
I       11.38310281      16.01190156      18.57646027                           
Cr     19.48477107      13.89651700      10.46423698                            
Cr     16.04625633      15.88170482      10.47271549                            
I       20.47894182      11.90838708       8.93147663                           
I       17.26593353      14.02959691       8.93145308                           
I       13.83246335      15.75152855       8.93144278                           
I       18.48582560      11.91723184      12.00619783                           
I       18.27014304      15.75127059      12.00619302                           
I       14.82137000      14.02101041      12.00620106                           
Cr      12.60777906      21.83733235      17.03520929                           
Cr       9.16931865      23.82257680      17.04368562                           
I       13.60675127      19.84622273      15.50172901                           
I       10.38393639      21.96780609      15.50172980                           
I        6.95570362      23.69804968      15.50174515                           
I       11.61362596      19.85505493      18.57647573                           
I       11.38815431      23.68947476      18.57647595                           
I        7.94461180      21.96754269      18.57646027                           
Cr     16.04628006      19.85215813      10.46423698                            
Cr     12.60776532      21.83734595      10.47271549                            
I       17.04045081      17.86402821       8.93147663                           
I       13.82744252      19.98523804       8.93145308                           
I       10.39397233      21.70716968       8.93144278                           
I       15.04733459      17.87287297      12.00619783                           
I       14.83165203      21.70691172      12.00619302                           
I       11.38287899      19.97665154      12.00620106                           
Cr       9.16928805      27.79297348      17.03520929                           
Cr       5.73082764      29.77821793      17.04368562                           
I       10.16826026      25.80186386      15.50172901                           
I        6.94544538      27.92344722      15.50172980                           
I        3.51721261      29.65369082      15.50174515                           
I        8.17513495      25.81069606      18.57647573                           
I        7.94966330      29.64511589      18.57647595                           
I        4.50612079      27.92318382      18.57646027                           
Cr     12.60778905      25.80779926      10.46423698                            
Cr      9.16927431      27.79298708      10.47271549                            
I       13.60195980      23.81966934       8.93147663                           
I       10.38895151      25.94087917       8.93145308                           
I        6.95548132      27.66281081       8.93144278                           
I       11.60884358      23.82851411      12.00619783                           
I       11.39316102      27.66255286      12.00619302                           
I        7.94438798      25.93229268      12.00620106                           
Cr       5.73079704      33.74861461      17.03520929                           
Cr       2.29233663      35.73385906      17.04368562                           
I        6.72976925      31.75750499      15.50172901                           
I        3.50695437      33.87908835      15.50172980                           
I        0.07872159      35.60933195      15.50174515                           
I        4.73664394      31.76633719      18.57647573                           
I        4.51117228      35.60075702      18.57647595                           
I        1.06762977      33.87882495      18.57646027                           
Cr      9.16929804      31.76344039      10.46423698                            
Cr      5.73078330      33.74862822      10.47271549                            
I       10.16346879      29.77531047       8.93147663                           
I        6.95046050      31.89652031       8.93145308                           
I        3.51699031      33.61845194       8.93144278                           
I        8.17035256      29.78415524      12.00619783                           
I        7.95467001      33.61819399      12.00619302                           
I        4.50589697      31.88793381      12.00620106                           
Cr      29.80023411       3.97040895      17.03520929                           
Cr      26.36177371       5.95565340      17.04368562                           
I       30.79920633       1.97929933      15.50172901                           
I       27.57639144       4.10088269      15.50172980                           
I       24.14815867       5.83112629      15.50174515                           
I       28.80608102       1.98813153      18.57647573                           
I       28.58060936       5.82255136      18.57647595                           
I       25.13706685       4.10061929      18.57646027                           
Cr     33.23873511       1.98523473      10.46423698                            
Cr     29.80022038       3.97042256      10.47271549                            
I       34.23290587      -0.00289519       8.93147663                           
I       31.01989758       2.11831465       8.93145308                           
I       27.58642739       3.84024628       8.93144278                           
I       32.23978964       0.00594958      12.00619783                           
I       32.02410709       3.83998833      12.00619302                           
I       28.57533404       2.10972815      12.00620106                           
Cr      26.36174310       9.92605008      17.03520929                           
Cr      22.92328270      11.91129453      17.04368562                           
I       27.36071532       7.93494046      15.50172901                           
I       24.13790043      10.05652383      15.50172980                           
I       20.70966766      11.78676742      15.50174515                           
I       25.36759001       7.94377266      18.57647573                           
I       25.14211835      11.77819249      18.57647595                           
I       21.69857584      10.05626043      18.57646027                           
Cr     29.80024410       7.94087586      10.46423698                            
Cr     26.36172937       9.92606369      10.47271549                            
I       30.79441485       5.95274594       8.93147663                           
I       27.58140657       8.07395578       8.93145308                           
I       24.14793638       9.79588741       8.93144278                           
I       28.80129863       5.96159071      12.00619783                           
I       28.58561608       9.79562946      12.00619302                           
I       25.13684303       8.06536928      12.00620106                           
Cr      22.92325209      15.88169122      17.03520929                           
Cr      19.48479168      17.86693567      17.04368562                           
I       23.92222431      13.89058160      15.50172901                           
I       20.69940942      16.01216496      15.50172980                           
I       17.27117665      17.74240855      15.50174515                           
I       21.92909899      13.89941380      18.57647573                           
I       21.70362734      17.73383362      18.57647595                           
I       18.26008483      16.01190156      18.57646027                           
Cr     26.36175309      13.89651700      10.46423698                            
Cr     22.92323835      15.88170482      10.47271549                            
I       27.35592384      11.90838708       8.93147663                           
I       24.14291556      14.02959691       8.93145308                           
I       20.70944537      15.75152855       8.93144278                           
I       25.36280762      11.91723184      12.00619783                           
I       25.14712507      15.75127059      12.00619302                           
I       21.69835202      14.02101041      12.00620106                           
Cr      19.48476108      21.83733235      17.03520929                           
Cr      16.04630067      23.82257680      17.04368562                           
I       20.48373330      19.84622273      15.50172901                           
I       17.26091841      21.96780609      15.50172980                           
I       13.83268564      23.69804968      15.50174515                           
I       18.49060798      19.85505493      18.57647573                           
I       18.26513633      23.68947476      18.57647595                           
I       14.82159382      21.96754269      18.57646027                           
Cr     22.92326208      19.85215813      10.46423698                            
Cr     19.48474734      21.83734595      10.47271549                            
I       23.91743283      17.86402821       8.93147663                           
I       20.70442455      19.98523804       8.93145308                           
I       17.27095436      21.70716968       8.93144278                           
I       21.92431661      17.87287297      12.00619783                           
I       21.70863405      21.70691172      12.00619302                           
I       18.25986101      19.97665154      12.00620106                           
Cr      16.04627007      27.79297348      17.03520929                           
Cr      12.60780966      29.77821793      17.04368562                           
I       17.04524228      25.80186386      15.50172901                           
I       13.82242740      27.92344722      15.50172980                           
I       10.39419463      29.65369082      15.50174515                           
I       15.05211697      25.81069606      18.57647573                           
I       14.82664532      29.64511589      18.57647595                           
I       11.38310281      27.92318382      18.57646027                           
Cr     19.48477107      25.80779926      10.46423698                            
Cr     16.04625633      27.79298708      10.47271549                            
I       20.47894182      23.81966934       8.93147663                           
I       17.26593353      25.94087917       8.93145308                           
I       13.83246335      27.66281081       8.93144278                           
I       18.48582560      23.82851411      12.00619783                           
I       18.27014304      27.66255286      12.00619302                           
I       14.82137000      25.93229268      12.00620106                           
Cr      12.60777906      33.74861461      17.03520929                           
Cr       9.16931865      35.73385906      17.04368562                           
I       13.60675127      31.75750499      15.50172901                           
I       10.38393639      33.87908835      15.50172980                           
I        6.95570362      35.60933195      15.50174515                           
I       11.61362596      31.76633719      18.57647573                           
I       11.38815431      35.60075702      18.57647595                           
I        7.94461180      33.87882495      18.57646027                           
Cr     16.04628006      31.76344039      10.46423698                            
Cr     12.60776532      33.74862822      10.47271549                            
I       17.04045081      29.77531047       8.93147663                           
I       13.82744252      31.89652031       8.93145308                           
I       10.39397233      33.61845194       8.93144278                           
I       15.04733459      29.78415524      12.00619783                           
I       14.83165203      33.61819399      12.00619302                           
I       11.38287899      31.88793381      12.00620106                           
Cr      36.67721614       3.97040895      17.03520929                           
Cr      33.23875573       5.95565340      17.04368562                           
I       37.67618835       1.97929933      15.50172901                           
I       34.45337346       4.10088269      15.50172980                           
I       31.02514069       5.83112629      15.50174515                           
I       35.68306304       1.98813153      18.57647573                           
I       35.45759138       5.82255136      18.57647595                           
I       32.01404887       4.10061929      18.57646027                           
Cr     40.11571714       1.98523473      10.46423698                            
Cr     36.67720240       3.97042256      10.47271549                            
I       41.10988789      -0.00289519       8.93147663                           
I       37.89687960       2.11831465       8.93145308                           
I       34.46340941       3.84024628       8.93144278                           
I       39.11677166       0.00594958      12.00619783                           
I       38.90108911       3.83998833      12.00619302                           
I       35.45231606       2.10972815      12.00620106                           
Cr      33.23872513       9.92605008      17.03520929                           
Cr      29.80026472      11.91129453      17.04368562                           
I       34.23769734       7.93494046      15.50172901                           
I       31.01488245      10.05652383      15.50172980                           
I       27.58664968      11.78676742      15.50174515                           
I       32.24457203       7.94377266      18.57647573                           
I       32.01910037      11.77819249      18.57647595                           
I       28.57555786      10.05626043      18.57646027                           
Cr     36.67722612       7.94087586      10.46423698                            
Cr     33.23871139       9.92606369      10.47271549                            
I       37.67139688       5.95274594       8.93147663                           
I       34.45838859       8.07395578       8.93145308                           
I       31.02491840       9.79588741       8.93144278                           
I       35.67828065       5.96159071      12.00619783                           
I       35.46259810       9.79562946      12.00619302                           
I       32.01382505       8.06536928      12.00620106                           
Cr      29.80023411      15.88169122      17.03520929                           
Cr      26.36177371      17.86693567      17.04368562                           
I       30.79920633      13.89058160      15.50172901                           
I       27.57639144      16.01216496      15.50172980                           
I       24.14815867      17.74240855      15.50174515                           
I       28.80608102      13.89941380      18.57647573                           
I       28.58060936      17.73383362      18.57647595                           
I       25.13706685      16.01190156      18.57646027                           
Cr     33.23873511      13.89651700      10.46423698                            
Cr     29.80022038      15.88170482      10.47271549                            
I       34.23290587      11.90838708       8.93147663                           
I       31.01989758      14.02959691       8.93145308                           
I       27.58642739      15.75152855       8.93144278                           
I       32.23978964      11.91723184      12.00619783                           
I       32.02410709      15.75127059      12.00619302                           
I       28.57533404      14.02101041      12.00620106                           
Cr      26.36174310      21.83733235      17.03520929                           
Cr      22.92328270      23.82257680      17.04368562                           
I       27.36071532      19.84622273      15.50172901                           
I       24.13790043      21.96780609      15.50172980                           
I       20.70966766      23.69804968      15.50174515                           
I       25.36759001      19.85505493      18.57647573                           
I       25.14211835      23.68947476      18.57647595                           
I       21.69857584      21.96754269      18.57646027                           
Cr     29.80024410      19.85215813      10.46423698                            
Cr     26.36172937      21.83734595      10.47271549                            
I       30.79441485      17.86402821       8.93147663                           
I       27.58140657      19.98523804       8.93145308                           
I       24.14793638      21.70716968       8.93144278                           
I       28.80129863      17.87287297      12.00619783                           
I       28.58561608      21.70691172      12.00619302                           
I       25.13684303      19.97665154      12.00620106                           
Cr      22.92325209      27.79297348      17.03520929                           
Cr      19.48479168      29.77821793      17.04368562                           
I       23.92222431      25.80186386      15.50172901                           
I       20.69940942      27.92344722      15.50172980                           
I       17.27117665      29.65369082      15.50174515                           
I       21.92909899      25.81069606      18.57647573                           
I       21.70362734      29.64511589      18.57647595                           
I       18.26008483      27.92318382      18.57646027                           
Cr     26.36175309      25.80779926      10.46423698                            
Cr     22.92323835      27.79298708      10.47271549                            
I       27.35592384      23.81966934       8.93147663                           
I       24.14291556      25.94087917       8.93145308                           
I       20.70944537      27.66281081       8.93144278                           
I       25.36280762      23.82851411      12.00619783                           
I       25.14712507      27.66255286      12.00619302                           
I       21.69835202      25.93229268      12.00620106                           
Cr      19.48476108      33.74861461      17.03520929                           
Cr      16.04630067      35.73385906      17.04368562                           
I       20.48373330      31.75750499      15.50172901                           
I       17.26091841      33.87908835      15.50172980                           
I       13.83268564      35.60933195      15.50174515                           
I       18.49060798      31.76633719      18.57647573                           
I       18.26513633      35.60075702      18.57647595                           
I       14.82159382      33.87882495      18.57646027                           
Cr     22.92326208      31.76344039      10.46423698                            
Cr     19.48474734      33.74862822      10.47271549                            
I       23.91743283      29.77531047       8.93147663                           
I       20.70442455      31.89652031       8.93145308                           
I       17.27095436      33.61845194       8.93144278                           
I       21.92431661      29.78415524      12.00619783                           
I       21.70863405      33.61819399      12.00619302                           
I       18.25986101      31.88793381      12.00620106                           
%ENDBLOCK POSITIONS_ABS                                                         
%BLOCK SPECIES                                                                  
Cr Cr 24 -1 15                                                                  
I   I  53 -1 15                                                                 
%ENDBLOCK SPECIES                                                               
%BLOCK SPECIES_ATOMIC_SET                                                       
Cr "SOLVE INIT SPIN=3"                                                          
I   "SOLVE"                                                                     
%ENDBLOCK SPECIES_ATOMIC_SET                                                    
%BLOCK HUBBARD                                                                  
Cr  2 2.97 0.37 -10.0 0.00 0.0                                                  
%ENDBLOCK HUBBARD                                                               
%BLOCK SPECIES_LDOS_GROUPS                                                      
Cr                                                                              
I                                                                               
%ENDBLOCK SPECIES_LDOS_GROUPS                                                   
%BLOCK SPECIES_POT                                                              
Cr  "../../../../Cr.PBE-paw.abinit"                                             
I   "../../../../I.PBE-paw.abinit"                                              
%ENDBLOCK SPECIES_POT                                                           

--------------------------------------------------------------------------------
-------------------------------- END INPUT FILE --------------------------------
--------------------------------------------------------------------------------


 
 ESDF WARNING(1): "charge" (esdf_physical) has no units. Assume "e".
<<<<<<<<<<<<<<<<<<<<<<<<<<<<<<<<< Full system >>>>>>>>>>>>>>>>>>>>>>>>>>>>>>>>>>
<<<<<<<<<<<<<<<<<<<<<<<<<<< PAW Dataset information >>>>>>>>>>>>>>>>>>>>>>>>>>>
File: ../../../../Cr.PBE-paw.abinit; rc = 2.11 bohr; shape type =  2; rshape = 1.80 bohr;
  Atomic number: 24;  ionic charge: 14.000000
    Partial Wave 1: l = 0
    Partial Wave 2: l = 0
    Partial Wave 3: l = 1
    Partial Wave 4: l = 1
    Partial Wave 5: l = 2
    Partial Wave 6: l = 2
  Core charge supplied for Nonlinear Core Corrections
File: ../../../../I.PBE-paw.abinit; rc = 2.30 bohr; shape type =  2; rshape = 2.11 bohr;
  Atomic number: 53;  ionic charge:  7.000000
    Partial Wave 1: l = 0
    Partial Wave 2: l = 0
    Partial Wave 3: l = 1
    Partial Wave 4: l = 1
  Core charge supplied for Nonlinear Core Corrections
<<<<<<<<<<<<<<<<<<<<<<<<<<<<<<<<<<<<<<< >>>>>>>>>>>>>>>>>>>>>>>>>>>>>>>>>>>>>>>

-------------------------- Atom counting information ---------------------------
Symbol    Natoms    Nngwfs    Nprojs
  Cr       144      1872      2592
  I        432      1728      3456
.......   ......    ......    ......
Totals:    576      3600      6048
--------------------------------------------------------------------------------

=============================== PSINC grid sizes ===============================
                      Simulation cell:  175 x 175 x 117
                              FFT-box:  175 x 175 x 117
                                  PPD:    5 x   5 x   1
Grid space d1=  0.445563862424a0 (KE cutoff=  38.26345Eh =1041.20135eV)
Grid space d2=  0.445563862400a0 (KE cutoff=  38.26345Eh =1041.20135eV)
Grid space d3=  0.444294449711a0 (KE cutoff=  38.48241Eh =1047.15957eV)
================================================================================

********************* Fourier parallelisation information **********************
       Coarse grid (whole simulation cell) dimensions:    175   175   117
          Real-space ('12') slabs/proc (min max mean):      0     1     0
         Recip-space ('23') slabs/proc (min max mean):      0     1     0
********************************************************************************

********************* Fourier parallelisation information **********************
       Double grid (whole simulation cell) dimensions:    350   350   234
          Real-space ('12') slabs/proc (min max mean):      1     2     1
         Recip-space ('23') slabs/proc (min max mean):      1     2     1
********************************************************************************

********************* Fourier parallelisation information **********************
         Fine grid (whole simulation cell) dimensions:    700   700   468
          Real-space ('12') slabs/proc (min max mean):      3     4     3
         Recip-space ('23') slabs/proc (min max mean):      2     3     2
********************************************************************************
energy_and_force_init_cell: WARNING in internal_setup_spin:
        even number of electrons in cell and zero spin
        but continuing with spin-polarised calculation

Atom SCF Calculation for Cr : Z (AE atom) =  24 : Z (PS atom) =  14
Config String: 3s2.0 3p6.0 3d5.0 4s1.0 4p0.0 INIT SPIN=3
Orbitals (num,occ):  5     2.00 6.00 5.00 1.00 0.00
Orbitals   (num,l):  5        0    1    2    0    1
Atom SCF converged after  64 iterations to a total energy of    -87.07044631
Adjusting orbital occupancies:
Orbitals (num,spin,occ):  5  1     1.00 3.00 3.50 1.00 0.00
Orbitals   (num,spin,l):  5  1        0    1    2    0    1
Orbitals (num,spin,occ):  5  2     1.00 3.00 1.00 0.50 0.00
Orbitals   (num,spin,l):  5  2        0    1    2    0    1

Atom SCF Calculation for I  : Z (AE atom) =  53 : Z (PS atom) =   7
Config String: 5s2.0 5p5.0
Orbitals (num,occ):  2     2.00 5.00
Orbitals   (num,l):  2        0    1
Atom SCF converged after  28 iterations to a total energy of    -11.61352964

Atom SCF Calculation for Cr : Z (AE atom) =  24 : Z (PS atom) =  14
Config String: 3s2.0 3p6.0 3d5.0 4s1.0 4p0.0 INIT SPIN=3
Orbitals (num,occ):  5     2.00 6.00 5.00 1.00 0.00
Orbitals   (num,l):  5        0    1    2    0    1
Atom SCF converged after  64 iterations to a total energy of    -87.07044631

Atom SCF Calculation for I  : Z (AE atom) =  53 : Z (PS atom) =   7
Config String: 5s2.0 5p5.0
Orbitals (num,occ):  2     2.00 5.00
Orbitals   (num,l):  2        0    1
Atom SCF converged after  28 iterations to a total energy of    -11.61352964

Determining parallel strategy ...... done
Calculating Ewald energy ...            31583.245177 Hartree
Basis initialisation ...
... done

============================= Charge Augmentation ==============================
                           Aug box size:   49 x  49 x  45
================================================================================
Sparse matrix initialisation ...
 done

Reading NGWFs from file "Cr2I6_bilayer_LT_FM_AFM_SP.tightbox_ngwfs" ... done
 done

================================= Core Density =================================
               Core den box size:  125 x 125 x 105
================================================================================

Reading density kernel from file "Cr2I6_bilayer_LT_FM_AFM_SP.dkn" ... done

>>> Optimising kernel for current NGWFs:


>>> Density kernel optimised for the current NGWF basis:
     ~~~~~~~~~~~~~~~~~~~~~~~~~~~~~~~~~~~~~~~~~~~~~~~~~~~~~~~~~~~
     Total energy                =  -1.76310353654319E+04  Eh
     Estimated bandgap (UP spin) =  -8.5777E-03  Eh
     Estimated bandgap (DN spin) =   4.4789E-02  Eh
     RMS occupancy error         =   1.8006E-03
     [H,K] commutator            =   3.8296E-06
     UP spin occupancy bounds    = [  0.002:  1.003]
     DN spin occupancy bounds    = [  0.000:  1.000]
     ~~~~~~~~~~~~~~~~~~~~~~~~~~~~~~~~~~~~~~~~~~~~~~~~~~~~~~~~~~~




################################################################################
########################### NGWF CG iteration  001 #############################
################################################################################

>>> Checking for convergence of NGWFs:   NOT CONVERGED
  ========================================================================
         NGWF RMS gradient =  1.1923E-05 >  1.0000E-06  | above tolerance
  ========================================================================

>>> Improving NGWFs using line search:
  ========================================================================
   Predicted total energy    =      -1.76310651732075E+04 Eh
   Predicted gain in energy  =      -2.98077755724080E-02 Eh
  ========================================================================

Writing NGWFs to file "Cr2I6_bilayer_LT_FM_AFM_SP.tightbox_ngwfs".... done

>>> Optimising kernel for current NGWFs:
   iter  |      energy (Eh)       | rms gradient |  commutator  |   dE (Eh)
    1        -1.763101945777E+04     3.3174E-04     3.9106E-06
    2        -1.763101948674E+04     3.3174E-04     3.6980E-06    -2.8966E-05
    3        -1.763101951343E+04     3.3174E-04     3.5384E-06    -2.6691E-05
    4        -1.763101953833E+04     3.3174E-04     3.4221E-06    -2.4900E-05
    5        -1.763101956187E+04     3.3174E-04     3.3454E-06    -2.3544E-05
Finished density kernel iterations (   5)

Writing density kernel to file "Cr2I6_bilayer_LT_FM_AFM_SP.dkn" ... done


>>> Density kernel optimised for the current NGWF basis:
     ~~~~~~~~~~~~~~~~~~~~~~~~~~~~~~~~~~~~~~~~~~~~~~~~~~~~~~~~~~~
     Total energy                =  -1.76310195618739E+04  Eh
     Estimated bandgap (UP spin) =  -8.6173E-03  Eh
     Estimated bandgap (DN spin) =   4.4624E-02  Eh
     RMS occupancy error         =   1.5727E-03
     [H,K] commutator            =   3.3454E-06
     UP spin occupancy bounds    = [  0.002:  1.002]
     DN spin occupancy bounds    = [  0.000:  1.000]
     ~~~~~~~~~~~~~~~~~~~~~~~~~~~~~~~~~~~~~~~~~~~~~~~~~~~~~~~~~~~




################################################################################
########################### NGWF CG iteration  002 #############################
################################################################################

>>> Checking for convergence of NGWFs:   NOT CONVERGED
  ========================================================================
         NGWF RMS gradient =  1.3111E-05 >  1.0000E-06  | above tolerance
  Maximum change in energy =  2.7437E-05 >  1.0000E-07  | above tolerance
  ========================================================================

>>> Improving NGWFs using line search:
WARNING in services_cubic_fit_minimum:
  cubic step (  -21.37811) less than zero - setting to safe value
  ========================================================================
   Predicted total energy    =      -1.76386290454706E+04 Eh
   Predicted gain in energy  =      -7.60948359673785E+00 Eh
  ========================================================================

Writing NGWFs to file "Cr2I6_bilayer_LT_FM_AFM_SP.tightbox_ngwfs".... done

>>> Optimising kernel for current NGWFs:
   iter  |      energy (Eh)       | rms gradient |  commutator  |   dE (Eh)
    1        -1.763102016661E+04     3.3173E-04     3.5558E-06
    2        -1.763102019145E+04     3.3173E-04     3.4632E-06    -2.4836E-05
    3        -1.763102021539E+04     3.3173E-04     3.3788E-06    -2.3940E-05
    4        -1.763102023851E+04     3.3173E-04     3.3117E-06    -2.3127E-05
    5        -1.763102026094E+04     3.3173E-04     3.2571E-06    -2.2423E-05
    6        -1.763102028276E+04     3.3173E-04     3.2057E-06    -2.1824E-05
Finished density kernel iterations (   6)

Writing density kernel to file "Cr2I6_bilayer_LT_FM_AFM_SP.dkn" ... done


>>> Density kernel optimised for the current NGWF basis:
     ~~~~~~~~~~~~~~~~~~~~~~~~~~~~~~~~~~~~~~~~~~~~~~~~~~~~~~~~~~~
     Total energy                =  -1.76310202827622E+04  Eh
     Estimated bandgap (UP spin) =  -8.5975E-03  Eh
     Estimated bandgap (DN spin) =   4.4698E-02  Eh
     RMS occupancy error         =   1.5727E-03
     [H,K] commutator            =   3.2057E-06
     UP spin occupancy bounds    = [  0.002:  1.002]
     DN spin occupancy bounds    = [  0.000:  1.000]
     ~~~~~~~~~~~~~~~~~~~~~~~~~~~~~~~~~~~~~~~~~~~~~~~~~~~~~~~~~~~




################################################################################
########################### NGWF CG iteration  003 #############################
################################################################################

>>> Checking for convergence of NGWFs:   NOT CONVERGED
  ========================================================================
         NGWF RMS gradient =  1.3110E-05 >  1.0000E-06  | above tolerance
  Maximum change in energy =  2.7437E-05 >  1.0000E-07  | above tolerance
  ========================================================================

>>> Improving NGWFs using line search:
Resetting NGWF CG
  ========================================================================
   Predicted total energy    =      -1.76310388481583E+04 Eh
   Predicted gain in energy  =      -1.85653960797936E-02 Eh
  ========================================================================

Writing NGWFs to file "Cr2I6_bilayer_LT_FM_AFM_SP.tightbox_ngwfs".... done

>>> Optimising kernel for current NGWFs:
   iter  |      energy (Eh)       | rms gradient |  commutator  |   dE (Eh)
    1        -1.763102111576E+04     3.3171E-04     3.6222E-06
    2        -1.763102114079E+04     3.3170E-04     3.4540E-06    -2.5032E-05
    3        -1.763102116436E+04     3.3170E-04     3.3591E-06    -2.3568E-05
    4        -1.763102118691E+04     3.3170E-04     3.2893E-06    -2.2550E-05
    5        -1.763102120868E+04     3.3171E-04     3.2362E-06    -2.1770E-05
    6        -1.763102122984E+04     3.3171E-04     3.1945E-06    -2.1155E-05
    7        -1.763102125050E+04     3.3171E-04     3.1610E-06    -2.0662E-05
Finished density kernel iterations (   7)

Writing density kernel to file "Cr2I6_bilayer_LT_FM_AFM_SP.dkn" ... done


>>> Density kernel optimised for the current NGWF basis:
     ~~~~~~~~~~~~~~~~~~~~~~~~~~~~~~~~~~~~~~~~~~~~~~~~~~~~~~~~~~~
     Total energy                =  -1.76310212504992E+04  Eh
     Estimated bandgap (UP spin) =  -8.5807E-03  Eh
     Estimated bandgap (DN spin) =   4.4690E-02  Eh
     RMS occupancy error         =   1.5727E-03
     [H,K] commutator            =   3.1610E-06
     UP spin occupancy bounds    = [  0.002:  1.002]
     DN spin occupancy bounds    = [ -0.000:  1.000]
     ~~~~~~~~~~~~~~~~~~~~~~~~~~~~~~~~~~~~~~~~~~~~~~~~~~~~~~~~~~~




################################################################################
########################### NGWF CG iteration  004 #############################
################################################################################

>>> Checking for convergence of NGWFs:   NOT CONVERGED
  ========================================================================
         NGWF RMS gradient =  1.3095E-05 >  1.0000E-06  | above tolerance
  Maximum change in energy =  1.6801E-06 >  1.0000E-07  | above tolerance
  ========================================================================

>>> Improving NGWFs using line search:
  ========================================================================
   Predicted total energy    =      -1.76310398526677E+04 Eh
   Predicted gain in energy  =      -1.86021684930893E-02 Eh
  ========================================================================

Writing NGWFs to file "Cr2I6_bilayer_LT_FM_AFM_SP.tightbox_ngwfs".... done

>>> Optimising kernel for current NGWFs:
   iter  |      energy (Eh)       | rms gradient |  commutator  |   dE (Eh)
    1        -1.763102203944E+04     3.3168E-04     3.5033E-06
    2        -1.763102206281E+04     3.3168E-04     3.3767E-06    -2.3373E-05
    3        -1.763102208514E+04     3.3168E-04     3.2997E-06    -2.2333E-05
    4        -1.763102210673E+04     3.3168E-04     3.2426E-06    -2.1593E-05
    5        -1.763102212774E+04     3.3169E-04     3.1962E-06    -2.1008E-05
    6        -1.763102214827E+04     3.3169E-04     3.1570E-06    -2.0523E-05
    7        -1.763102216838E+04     3.3169E-04     3.1257E-06    -2.0113E-05
    8        -1.763102218826E+04     3.3169E-04     3.1080E-06    -1.9879E-05
Finished density kernel iterations (   8)

Writing density kernel to file "Cr2I6_bilayer_LT_FM_AFM_SP.dkn" ... done


>>> Density kernel optimised for the current NGWF basis:
     ~~~~~~~~~~~~~~~~~~~~~~~~~~~~~~~~~~~~~~~~~~~~~~~~~~~~~~~~~~~
     Total energy                =  -1.76310221882585E+04  Eh
     Estimated bandgap (UP spin) =  -8.5547E-03  Eh
     Estimated bandgap (DN spin) =   4.4676E-02  Eh
     RMS occupancy error         =   1.5727E-03
     [H,K] commutator            =   3.1080E-06
     UP spin occupancy bounds    = [  0.002:  1.002]
     DN spin occupancy bounds    = [  0.000:  1.000]
     ~~~~~~~~~~~~~~~~~~~~~~~~~~~~~~~~~~~~~~~~~~~~~~~~~~~~~~~~~~~




################################################################################
########################### NGWF CG iteration  005 #############################
################################################################################

>>> Checking for convergence of NGWFs:   NOT CONVERGED
  ========================================================================
         NGWF RMS gradient =  1.3085E-05 >  1.0000E-06  | above tolerance
  Maximum change in energy =  1.6801E-06 >  1.0000E-07  | above tolerance
  ========================================================================

>>> Improving NGWFs using line search:
  ========================================================================
   Predicted total energy    =      -1.76310407859305E+04 Eh
   Predicted gain in energy  =      -1.85976719658356E-02 Eh
  ========================================================================

Writing NGWFs to file "Cr2I6_bilayer_LT_FM_AFM_SP.tightbox_ngwfs".... done

>>> Optimising kernel for current NGWFs:
   iter  |      energy (Eh)       | rms gradient |  commutator  |   dE (Eh)
    1        -1.763102294396E+04     3.3166E-04     3.4475E-06
    2        -1.763102296657E+04     3.3166E-04     3.3092E-06    -2.2611E-05
    3        -1.763102298808E+04     3.3166E-04     3.2385E-06    -2.1511E-05
    4        -1.763102300887E+04     3.3166E-04     3.1890E-06    -2.0785E-05
    5        -1.763102302911E+04     3.3167E-04     3.1500E-06    -2.0243E-05
    6        -1.763102304893E+04     3.3167E-04     3.1191E-06    -1.9816E-05
    7        -1.763102306840E+04     3.3167E-04     3.0948E-06    -1.9470E-05
    8        -1.763102308779E+04     3.3167E-04     3.0719E-06    -1.9392E-05
    9        -1.763102310698E+04     3.3167E-04     3.0629E-06    -1.9193E-05
Finished density kernel iterations (   9)

Writing density kernel to file "Cr2I6_bilayer_LT_FM_AFM_SP.dkn" ... done


>>> Density kernel optimised for the current NGWF basis:
     ~~~~~~~~~~~~~~~~~~~~~~~~~~~~~~~~~~~~~~~~~~~~~~~~~~~~~~~~~~~
     Total energy                =  -1.76310231069820E+04  Eh
     Estimated bandgap (UP spin) =  -8.5093E-03  Eh
     Estimated bandgap (DN spin) =   4.4698E-02  Eh
     RMS occupancy error         =   1.5727E-03
     [H,K] commutator            =   3.0629E-06
     UP spin occupancy bounds    = [  0.002:  1.002]
     DN spin occupancy bounds    = [ -0.000:  1.000]
     ~~~~~~~~~~~~~~~~~~~~~~~~~~~~~~~~~~~~~~~~~~~~~~~~~~~~~~~~~~~




################################################################################
########################### NGWF CG iteration  006 #############################
################################################################################

>>> Checking for convergence of NGWFs:   NOT CONVERGED
  ========================================================================
         NGWF RMS gradient =  1.3079E-05 >  1.0000E-06  | above tolerance
  Maximum change in energy =  1.6281E-06 >  1.0000E-07  | above tolerance
  ========================================================================

>>> Improving NGWFs using line search:
  ========================================================================
   Predicted total energy    =      -1.76310416736796E+04 Eh
   Predicted gain in energy  =      -1.85666975521599E-02 Eh
  ========================================================================

Writing NGWFs to file "Cr2I6_bilayer_LT_FM_AFM_SP.tightbox_ngwfs".... done

>>> Optimising kernel for current NGWFs:
   iter  |      energy (Eh)       | rms gradient |  commutator  |   dE (Eh)
    1        -1.763102383723E+04     3.3164E-04     3.3665E-06
    2        -1.763102385890E+04     3.3164E-04     3.2436E-06    -2.1674E-05
    3        -1.763102387957E+04     3.3164E-04     3.1778E-06    -2.0668E-05
    4        -1.763102389957E+04     3.3165E-04     3.1355E-06    -2.0001E-05
    5        -1.763102391910E+04     3.3165E-04     3.1091E-06    -1.9526E-05
    6        -1.763102393827E+04     3.3165E-04     3.0833E-06    -1.9172E-05
    7        -1.763102395716E+04     3.3165E-04     3.0652E-06    -1.8890E-05
    8        -1.763102397609E+04     3.3165E-04     3.0393E-06    -1.8933E-05
    9        -1.763102399483E+04     3.3165E-04     3.0216E-06    -1.8732E-05
   10        -1.763102401341E+04     3.3165E-04     3.0107E-06    -1.8588E-05
Finished density kernel iterations (  10)

Writing density kernel to file "Cr2I6_bilayer_LT_FM_AFM_SP.dkn" ... done


>>> Density kernel optimised for the current NGWF basis:
     ~~~~~~~~~~~~~~~~~~~~~~~~~~~~~~~~~~~~~~~~~~~~~~~~~~~~~~~~~~~
     Total energy                =  -1.76310240134148E+04  Eh
     Estimated bandgap (UP spin) =  -8.4994E-03  Eh
     Estimated bandgap (DN spin) =   4.4649E-02  Eh
     RMS occupancy error         =   1.5727E-03
     [H,K] commutator            =   3.0107E-06
     UP spin occupancy bounds    = [  0.002:  1.002]
     DN spin occupancy bounds    = [  0.000:  1.000]
     ~~~~~~~~~~~~~~~~~~~~~~~~~~~~~~~~~~~~~~~~~~~~~~~~~~~~~~~~~~~




################################################################################
########################### NGWF CG iteration  007 #############################
################################################################################

>>> Checking for convergence of NGWFs:   NOT CONVERGED
  ========================================================================
         NGWF RMS gradient =  1.3074E-05 >  1.0000E-06  | above tolerance
  Maximum change in energy =  1.5950E-06 >  1.0000E-07  | above tolerance
  ========================================================================

>>> Improving NGWFs using line search:
  ========================================================================
   Predicted total energy    =      -1.76310425200105E+04 Eh
   Predicted gain in energy  =      -1.85065957302868E-02 Eh
  ========================================================================

Writing NGWFs to file "Cr2I6_bilayer_LT_FM_AFM_SP.tightbox_ngwfs".... done

>>> Optimising kernel for current NGWFs:
   iter  |      energy (Eh)       | rms gradient |  commutator  |   dE (Eh)
    1        -1.763102473516E+04     3.3163E-04     3.2802E-06
    2        -1.763102475606E+04     3.3163E-04     3.1709E-06    -2.0898E-05
    3        -1.763102477606E+04     3.3163E-04     3.1136E-06    -2.0002E-05
    4        -1.763102479548E+04     3.3163E-04     3.0799E-06    -1.9425E-05
    5        -1.763102481451E+04     3.3163E-04     3.0549E-06    -1.9027E-05
[...]
########################### NGWF CG iteration  032 #############################
################################################################################

>>> Checking for convergence of NGWFs:   NOT CONVERGED
  ========================================================================
         NGWF RMS gradient =  1.2998E-05 >  1.0000E-06  | above tolerance
  Maximum change in energy =  8.3563E-07 >  1.0000E-07  | above tolerance
  ========================================================================

>>> Improving NGWFs using line search:
  ========================================================================
   Predicted total energy    =      -1.76310589728770E+04 Eh
   Predicted gain in energy  =      -1.81613175554958E-02 Eh
  ========================================================================

Writing NGWFs to file "Cr2I6_bilayer_LT_FM_AFM_SP.tightbox_ngwfs".... done

>>> Optimising kernel for current NGWFs:
   iter  |      energy (Eh)       | rms gradient |  commutator  |   dE (Eh)
    1        -1.763104109459E+04     3.3127E-04     2.5794E-06
    2        -1.763104110793E+04     3.3127E-04     2.5116E-06    -1.3332E-05
    3        -1.763104112077E+04     3.3127E-04     2.4768E-06    -1.2848E-05
    4        -1.763104113331E+04     3.3127E-04     2.4605E-06    -1.2539E-05
    5        -1.763104114566E+04     3.3127E-04     2.4532E-06    -1.2345E-05
    6        -1.763104115788E+04     3.3127E-04     2.4491E-06    -1.2224E-05
    7        -1.763104117003E+04     3.3127E-04     2.4453E-06    -1.2146E-05
    8        -1.763104118231E+04     3.3127E-04     2.4287E-06    -1.2278E-05
    9        -1.763104119449E+04     3.3127E-04     2.4197E-06    -1.2183E-05
   10        -1.763104120661E+04     3.3127E-04     2.4148E-06    -1.2121E-05
   11        -1.763104121868E+04     3.3127E-04     2.4117E-06    -1.2073E-05
   12        -1.763104123072E+04     3.3127E-04     2.4092E-06    -1.2034E-05
   13        -1.763104124272E+04     3.3127E-04     2.4067E-06    -1.2000E-05
   14        -1.763104125477E+04     3.3127E-04     2.4013E-06    -1.2049E-05
   15        -1.763104126677E+04     3.3127E-04     2.3977E-06    -1.2005E-05
Finished density kernel iterations (  15)

Writing density kernel to file "Cr2I6_bilayer_LT_FM_AFM_SP.dkn" ... done


>>> Density kernel optimised for the current NGWF basis:
     ~~~~~~~~~~~~~~~~~~~~~~~~~~~~~~~~~~~~~~~~~~~~~~~~~~~~~~~~~~~
     Total energy                =  -1.76310412667715E+04  Eh
     Estimated bandgap (UP spin) =  -7.6776E-03  Eh
     Estimated bandgap (DN spin) =   4.4525E-02  Eh
     RMS occupancy error         =   1.5727E-03
     [H,K] commutator            =   2.3977E-06
     UP spin occupancy bounds    = [  0.002:  1.002]
     DN spin occupancy bounds    = [ -0.000:  1.000]
     ~~~~~~~~~~~~~~~~~~~~~~~~~~~~~~~~~~~~~~~~~~~~~~~~~~~~~~~~~~~




################################################################################
########################### NGWF CG iteration  033 #############################
################################################################################

>>> Checking for convergence of NGWFs:   NOT CONVERGED
  ========================================================================
         NGWF RMS gradient =  1.2997E-05 >  1.0000E-06  | above tolerance
  Maximum change in energy =  8.0601E-07 >  1.0000E-07  | above tolerance
  ========================================================================

>>> Improving NGWFs using line search:
  ========================================================================
   Predicted total energy    =      -1.76310594444678E+04 Eh
   Predicted gain in energy  =      -1.81776962454023E-02 Eh
  ========================================================================

Writing NGWFs to file "Cr2I6_bilayer_LT_FM_AFM_SP.tightbox_ngwfs".... done

>>> Optimising kernel for current NGWFs:
   iter  |      energy (Eh)       | rms gradient |  commutator  |   dE (Eh)
    1        -1.763104154212E+04     3.3126E-04     2.5665E-06
    2        -1.763104155533E+04     3.3126E-04     2.4987E-06    -1.3205E-05
    3        -1.763104156805E+04     3.3126E-04     2.4640E-06    -1.2722E-05
    4        -1.763104158047E+04     3.3126E-04     2.4477E-06    -1.2415E-05
    5        -1.763104159269E+04     3.3126E-04     2.4404E-06    -1.2222E-05
    6        -1.763104160479E+04     3.3126E-04     2.4364E-06    -1.2102E-05
    7        -1.763104161682E+04     3.3126E-04     2.4327E-06    -1.2024E-05
    8        -1.763104162897E+04     3.3126E-04     2.4161E-06    -1.2156E-05
    9        -1.763104164103E+04     3.3126E-04     2.4071E-06    -1.2062E-05
   10        -1.763104165303E+04     3.3126E-04     2.4022E-06    -1.2000E-05
   11        -1.763104166498E+04     3.3126E-04     2.3991E-06    -1.1952E-05
   12        -1.763104167690E+04     3.3126E-04     2.3967E-06    -1.1914E-05
   13        -1.763104168878E+04     3.3126E-04     2.3942E-06    -1.1880E-05
   14        -1.763104170071E+04     3.3126E-04     2.3888E-06    -1.1929E-05
   15        -1.763104171259E+04     3.3126E-04     2.3853E-06    -1.1885E-05
Finished density kernel iterations (  15)

Writing density kernel to file "Cr2I6_bilayer_LT_FM_AFM_SP.dkn" ... done


>>> Density kernel optimised for the current NGWF basis:
     ~~~~~~~~~~~~~~~~~~~~~~~~~~~~~~~~~~~~~~~~~~~~~~~~~~~~~~~~~~~
     Total energy                =  -1.76310417125917E+04  Eh
     Estimated bandgap (UP spin) =  -7.6680E-03  Eh
     Estimated bandgap (DN spin) =   4.4614E-02  Eh
     RMS occupancy error         =   1.5727E-03
     [H,K] commutator            =   2.3853E-06
     UP spin occupancy bounds    = [  0.002:  1.002]
     DN spin occupancy bounds    = [ -0.000:  1.000]
     ~~~~~~~~~~~~~~~~~~~~~~~~~~~~~~~~~~~~~~~~~~~~~~~~~~~~~~~~~~~




################################################################################
########################### NGWF CG iteration  034 #############################
################################################################################

>>> Checking for convergence of NGWFs:   NOT CONVERGED
  ========================================================================
         NGWF RMS gradient =  1.2995E-05 >  1.0000E-06  | above tolerance
  Maximum change in energy =  7.9030E-07 >  1.0000E-07  | above tolerance
  ========================================================================

>>> Improving NGWFs using line search:
  ========================================================================
   Predicted total energy    =      -1.76310598745382E+04 Eh
   Predicted gain in energy  =      -1.81619464965479E-02 Eh
  ========================================================================

Writing NGWFs to file "Cr2I6_bilayer_LT_FM_AFM_SP.tightbox_ngwfs".... done

>>> Optimising kernel for current NGWFs:
   iter  |      energy (Eh)       | rms gradient |  commutator  |   dE (Eh)
    1        -1.763104197995E+04     3.3124E-04     2.5536E-06
    2        -1.763104199303E+04     3.3124E-04     2.4859E-06    -1.3079E-05
    3        -1.763104200563E+04     3.3124E-04     2.4514E-06    -1.2599E-05
    4        -1.763104201792E+04     3.3124E-04     2.4352E-06    -1.2295E-05
    5        -1.763104203003E+04     3.3125E-04     2.4280E-06    -1.2103E-05
    6        -1.763104204201E+04     3.3125E-04     2.4241E-06    -1.1984E-05
    7        -1.763104205392E+04     3.3125E-04     2.4204E-06    -1.1907E-05
    8        -1.763104206596E+04     3.3125E-04     2.4038E-06    -1.2038E-05
    9        -1.763104207790E+04     3.3125E-04     2.3949E-06    -1.1944E-05
   10        -1.763104208978E+04     3.3125E-04     2.3900E-06    -1.1882E-05
   11        -1.763104210162E+04     3.3125E-04     2.3870E-06    -1.1835E-05
   12        -1.763104211342E+04     3.3125E-04     2.3845E-06    -1.1797E-05
   13        -1.763104212518E+04     3.3125E-04     2.3821E-06    -1.1764E-05
   14        -1.763104213699E+04     3.3125E-04     2.3767E-06    -1.1812E-05
   15        -1.763104214876E+04     3.3125E-04     2.3732E-06    -1.1769E-05
Finished density kernel iterations (  15)

Writing density kernel to file "Cr2I6_bilayer_LT_FM_AFM_SP.dkn" ... done


>>> Density kernel optimised for the current NGWF basis:
     ~~~~~~~~~~~~~~~~~~~~~~~~~~~~~~~~~~~~~~~~~~~~~~~~~~~~~~~~~~~
     Total energy                =  -1.76310421487607E+04  Eh
     Estimated bandgap (UP spin) =  -7.6370E-03  Eh
     Estimated bandgap (DN spin) =   4.4463E-02  Eh
     RMS occupancy error         =   1.5727E-03
     [H,K] commutator            =   2.3732E-06
     UP spin occupancy bounds    = [  0.002:  1.002]
     DN spin occupancy bounds    = [ -0.000:  1.000]
     ~~~~~~~~~~~~~~~~~~~~~~~~~~~~~~~~~~~~~~~~~~~~~~~~~~~~~~~~~~~




################################################################################
########################### NGWF CG iteration  035 #############################
################################################################################

>>> Checking for convergence of NGWFs:   NOT CONVERGED
  ========================================================================
         NGWF RMS gradient =  1.2994E-05 >  1.0000E-06  | above tolerance
  Maximum change in energy =  7.7399E-07 >  1.0000E-07  | above tolerance
  ========================================================================

>>> Improving NGWFs using line search:
  ========================================================================
   Predicted total energy    =      -1.76310602281903E+04 Eh
   Predicted gain in energy  =      -1.80794295811211E-02 Eh
  ========================================================================

Writing NGWFs to file "Cr2I6_bilayer_LT_FM_AFM_SP.tightbox_ngwfs".... done

>>> Optimising kernel for current NGWFs:
   iter  |      energy (Eh)       | rms gradient |  commutator  |   dE (Eh)
    1        -1.763104240364E+04     3.3123E-04     2.5365E-06
    2        -1.763104241657E+04     3.3123E-04     2.4709E-06    -1.2935E-05
    3        -1.763104242905E+04     3.3123E-04     2.4375E-06    -1.2472E-05
    4        -1.763104244122E+04     3.3123E-04     2.4220E-06    -1.2178E-05
    5        -1.763104245322E+04     3.3123E-04     2.4151E-06    -1.1993E-05
    6        -1.763104246509E+04     3.3124E-04     2.4112E-06    -1.1877E-05
    7        -1.763104247690E+04     3.3124E-04     2.4077E-06    -1.1802E-05
    8        -1.763104248882E+04     3.3123E-04     2.3915E-06    -1.1922E-05
    9        -1.763104250065E+04     3.3123E-04     2.3827E-06    -1.1830E-05
   10        -1.763104251242E+04     3.3123E-04     2.3779E-06    -1.1770E-05
   11        -1.763104252414E+04     3.3123E-04     2.3749E-06    -1.1724E-05
   12        -1.763104253583E+04     3.3123E-04     2.3725E-06    -1.1686E-05
   13        -1.763104254748E+04     3.3123E-04     2.3701E-06    -1.1653E-05
   14        -1.763104255918E+04     3.3123E-04     2.3648E-06    -1.1699E-05
   15        -1.763104257084E+04     3.3123E-04     2.3614E-06    -1.1657E-05
Finished density kernel iterations (  15)

Writing density kernel to file "Cr2I6_bilayer_LT_FM_AFM_SP.dkn" ... done


>>> Density kernel optimised for the current NGWF basis:
     ~~~~~~~~~~~~~~~~~~~~~~~~~~~~~~~~~~~~~~~~~~~~~~~~~~~~~~~~~~~
     Total energy                =  -1.76310425708362E+04  Eh
     Estimated bandgap (UP spin) =  -7.6257E-03  Eh
     Estimated bandgap (DN spin) =   4.4520E-02  Eh
     RMS occupancy error         =   1.5727E-03
     [H,K] commutator            =   2.3614E-06
     UP spin occupancy bounds    = [  0.002:  1.002]
     DN spin occupancy bounds    = [  0.000:  1.000]
     ~~~~~~~~~~~~~~~~~~~~~~~~~~~~~~~~~~~~~~~~~~~~~~~~~~~~~~~~~~~




################################################################################
########################### NGWF CG iteration  036 #############################
################################################################################

>>> Checking for convergence of NGWFs:   NOT CONVERGED
  ========================================================================
         NGWF RMS gradient =  1.2993E-05 >  1.0000E-06  | above tolerance
  Maximum change in energy =  7.5724E-07 >  1.0000E-07  | above tolerance
  ========================================================================

>>> Improving NGWFs using line search:
  ========================================================================
   Predicted total energy    =      -1.76310607012892E+04 Eh
   Predicted gain in energy  =      -1.81304529542103E-02 Eh
  ========================================================================

Writing NGWFs to file "Cr2I6_bilayer_LT_FM_AFM_SP.tightbox_ngwfs".... done

>>> Optimising kernel for current NGWFs:
   iter  |      energy (Eh)       | rms gradient |  commutator  |   dE (Eh)
    1        -1.763104281948E+04     3.3122E-04     2.5250E-06
    2        -1.763104283230E+04     3.3122E-04     2.4592E-06    -1.2823E-05
    3        -1.763104284466E+04     3.3122E-04     2.4258E-06    -1.2361E-05
    4        -1.763104285673E+04     3.3122E-04     2.4103E-06    -1.2067E-05
    5        -1.763104286861E+04     3.3122E-04     2.4035E-06    -1.1883E-05
    6        -1.763104288038E+04     3.3122E-04     2.3997E-06    -1.1768E-05
    7        -1.763104289208E+04     3.3122E-04     2.3962E-06    -1.1694E-05
    8        -1.763104290389E+04     3.3122E-04     2.3800E-06    -1.1813E-05
    9        -1.763104291561E+04     3.3122E-04     2.3712E-06    -1.1721E-05
   10        -1.763104292727E+04     3.3122E-04     2.3664E-06    -1.1661E-05
   11        -1.763104293889E+04     3.3122E-04     2.3635E-06    -1.1616E-05
   12        -1.763104295047E+04     3.3122E-04     2.3611E-06    -1.1578E-05
   13        -1.763104296201E+04     3.3122E-04     2.3587E-06    -1.1546E-05
   14        -1.763104297360E+04     3.3122E-04     2.3535E-06    -1.1592E-05
   15        -1.763104298515E+04     3.3122E-04     2.3500E-06    -1.1550E-05
Finished density kernel iterations (  15)

Writing density kernel to file "Cr2I6_bilayer_LT_FM_AFM_SP.dkn" ... done


>>> Density kernel optimised for the current NGWF basis:
     ~~~~~~~~~~~~~~~~~~~~~~~~~~~~~~~~~~~~~~~~~~~~~~~~~~~~~~~~~~~
     Total energy                =  -1.76310429851529E+04  Eh
     Estimated bandgap (UP spin) =  -7.5792E-03  Eh
     Estimated bandgap (DN spin) =   4.4522E-02  Eh
     RMS occupancy error         =   1.5727E-03
     [H,K] commutator            =   2.3500E-06
     UP spin occupancy bounds    = [  0.002:  1.002]
     DN spin occupancy bounds    = [ -0.000:  1.000]
     ~~~~~~~~~~~~~~~~~~~~~~~~~~~~~~~~~~~~~~~~~~~~~~~~~~~~~~~~~~~




################################################################################
########################### NGWF CG iteration  037 #############################
################################################################################

>>> Checking for convergence of NGWFs:   NOT CONVERGED
  ========================================================================
         NGWF RMS gradient =  1.2991E-05 >  1.0000E-06  | above tolerance
  Maximum change in energy =  7.3277E-07 >  1.0000E-07  | above tolerance
  ========================================================================

>>> Improving NGWFs using line search:
  ========================================================================
   Predicted total energy    =      -1.76310611329513E+04 Eh
   Predicted gain in energy  =      -1.81477984224330E-02 Eh
  ========================================================================

Writing NGWFs to file "Cr2I6_bilayer_LT_FM_AFM_SP.tightbox_ngwfs".... done

>>> Optimising kernel for current NGWFs:
   iter  |      energy (Eh)       | rms gradient |  commutator  |   dE (Eh)
    1        -1.763104322720E+04     3.3121E-04     2.5137E-06
    2        -1.763104323991E+04     3.3121E-04     2.4479E-06    -1.2714E-05
    3        -1.763104325216E+04     3.3121E-04     2.4145E-06    -1.2253E-05
    4        -1.763104326412E+04     3.3121E-04     2.3991E-06    -1.1961E-05
    5        -1.763104327590E+04     3.3121E-04     2.3923E-06    -1.1777E-05
    6        -1.763104328757E+04     3.3121E-04     2.3886E-06    -1.1663E-05
    7        -1.763104329915E+04     3.3121E-04     2.3852E-06    -1.1590E-05
    8        -1.763104331086E+04     3.3121E-04     2.3689E-06    -1.1708E-05
    9        -1.763104332248E+04     3.3121E-04     2.3601E-06    -1.1617E-05
   10        -1.763104333404E+04     3.3121E-04     2.3554E-06    -1.1557E-05
   11        -1.763104334555E+04     3.3121E-04     2.3524E-06    -1.1512E-05
   12        -1.763104335702E+04     3.3121E-04     2.3501E-06    -1.1475E-05
   13        -1.763104336846E+04     3.3121E-04     2.3477E-06    -1.1443E-05
   14        -1.763104337995E+04     3.3121E-04     2.3425E-06    -1.1489E-05
   15        -1.763104339140E+04     3.3121E-04     2.3391E-06    -1.1446E-05
Finished density kernel iterations (  15)

Writing density kernel to file "Cr2I6_bilayer_LT_FM_AFM_SP.dkn" ... done


>>> Density kernel optimised for the current NGWF basis:
     ~~~~~~~~~~~~~~~~~~~~~~~~~~~~~~~~~~~~~~~~~~~~~~~~~~~~~~~~~~~
     Total energy                =  -1.76310433913993E+04  Eh
     Estimated bandgap (UP spin) =  -7.5637E-03  Eh
     Estimated bandgap (DN spin) =   4.4531E-02  Eh
     RMS occupancy error         =   1.5727E-03
     [H,K] commutator            =   2.3391E-06
     UP spin occupancy bounds    = [  0.002:  1.002]
     DN spin occupancy bounds    = [  0.000:  1.000]
     ~~~~~~~~~~~~~~~~~~~~~~~~~~~~~~~~~~~~~~~~~~~~~~~~~~~~~~~~~~~




################################################################################
########################### NGWF CG iteration  038 #############################
################################################################################

>>> Checking for convergence of NGWFs:   NOT CONVERGED
  ========================================================================
         NGWF RMS gradient =  1.2990E-05 >  1.0000E-06  | above tolerance
  Maximum change in energy =  7.1930E-07 >  1.0000E-07  | above tolerance
  ========================================================================

>>> Improving NGWFs using line search:
  ========================================================================
   Predicted total energy    =      -1.76310615244994E+04 Eh
   Predicted gain in energy  =      -1.81331001549552E-02 Eh
  ========================================================================

Writing NGWFs to file "Cr2I6_bilayer_LT_FM_AFM_SP.tightbox_ngwfs".... done

>>> Optimising kernel for current NGWFs:
   iter  |      energy (Eh)       | rms gradient |  commutator  |   dE (Eh)
:  1.000]
     ~~~~~~~~~~~~~~~~~~~~~~~~~~~~~~~~~~~~~~~~~~~~~~~~~~~~~~~~~~~




################################################################################
########################### NGWF CG iteration  038 #############################
################################################################################

>>> Checking for convergence of NGWFs:   NOT CONVERGED
  ========================================================================
         NGWF RMS gradient =  1.3097E-05 >  1.0000E-06  | above tolerance
  Maximum change in energy =  2.1027E-06 >  1.0000E-07  | above tolerance
  ========================================================================

>>> Improving NGWFs using line search:
  ========================================================================
   Predicted total energy    =      -1.76310401121913E+04 Eh
   Predicted gain in energy  =      -1.86886694609711E-02 Eh
  ========================================================================

Writing NGWFs to file "Cr2I6_bilayer_LT_FM_AFM_SP.tightbox_ngwfs".... done

>>> Optimising kernel for current NGWFs:
   iter  |      energy (Eh)       | rms gradient |  commutator  |   dE (Eh)
    1        -1.763102227781E+04     3.3168E-04     3.2211E-06
    2        -1.763102229720E+04     3.3168E-04     3.0503E-06    -1.9392E-05
