==================================================================================
It's Mon 12 May 2025 04:34:55 PM BST.
*** Starting onetep_launcher (node nid004358, PIDs 16909 16910 16911 16912 16913 16914)...
    - ONETEP arguments: Cr2I6_bilayer_LT_FM_AFM_SP.dat
    - Current directory: /mnt/lustre/a2fs-work3/work/e89/e89/phsmea/CrI3_onetep_U/U_2.97/LT_FM/LT_FM_AFM_J/sp
    - Launcher executable directory: /mnt/lustre/a2fs-work3/work/e89/e89/phsmea/CrI3_onetep_U/U_2.97/LT_FM/LT_FM_AFM_J/sp
    - (-e) ONETEP executable specified through command-line: /work/e89/e89/phsmea/onetep.archer2_2024_cray
      ... trying /work/e89/e89/phsmea/onetep.archer2_2024_cray
          -> looks OK
*** Setting up environment...
    - (-s) Process stack size: unlimited
    - (-t) OMP_NUM_THREADS: 16
    - (-o) OMP_STACKSIZE: 64M
    - (-c) Maximum core file size: 2048000
    - (-d) decfort_dump_flag: n
    - (-m) I_MPI_OFA_TRANSLATION_CACHE: 0
    - (-m) I_MPI_DAPL_TRANSLATION_CACHE: 0
    - (-m) I_MPI_DAPL_UD_TRANSLATION_CACHE: 0
*** Starting ONETEP...
    - /work/e89/e89/phsmea/onetep.archer2_2024_cray Cr2I6_bilayer_LT_FM_AFM_SP.dat
=================================================================================
_________________________________________________________________________________
 +---------------------------------------------------------------+
 |                                                               |
 |        ####### #     # ####### ####### ####### ######         |
 |        #     # ##    # #          #    #       #     #        |
 |        #     # # #   # #          #    #       #     #        |
 |        #     # #  #  # #####      #    #####   ######         |
 |        #     # #   # # #          #    #       #              |
 |        #     # #    ## #          #    #       #              |
 |        ####### #     # #######    #    ####### #              |
 |                                                               |
 |        Linear-Scaling Ab Initio Total Energy Program          |
 |                                                               |
 |          Release for academic collaborators of ODG            |
 |                                             Version 7.3.0     |
 | Remote: git@github.com:Miesaz/onetep_mea.git                  |
 | Local branch: master                                          |
 | Commit ID: 4af45e89288c8df5499704252eec3e032ee3d0c8           |
 | Date: Tue Aug 6 11:28:44 2024 +0100                           |
 | Working tree clean                                            |
 |                                                               |
 +---------------------------------------------------------------+
 |                                                               |
 |  Authors:                                                     |
 |  Jacek Dziedzic, Peter D. Haynes, Nicholas D. M. Hine,        |
 |  Arash A. Mostofi, Mike C. Payne and Chris-Kriton Skylaris    |
 |                                                               |
 |  Contributors:                                                |
 |  J. Aarons, L. Andrinopoulos, P. W. Avraam, R. A. Bell,       |
 |  A. Bhandari, G. A. Bramley, R. J. Charlton, S. J. Clark,     |
 |  R. J. Clements, G. C. Constantinescu, F. Corsetti,           |
 |  N. Corsini, O. Dieguez, S. M. M. Dubois, K. K. B. Duff,      |
 |  J. M. Escartin, M. Escobar Azor, A. Greco,                   |
 |  H. Helal, Q. O. Hill, L. P. Lee, J.-H. Li,                   |
 |  T. Li, E. B. Linscott, G. Moynihan, D. D. O`Regan,           |
 |  O. K. Okan, E. Parkinson, M. J. S. Phipps,                   |
 |  C. J. Pickard, J. C. A. Prentice, M. I. J. Probert,          |
 |  L. E. Ratcliff, M. Robinson, A. Ruiz Serrano,                |
 |  M. dos Santos Dias, J. S. Spencer, E. W. Tait,               |
 |  G. Teobaldi, D. Turban, V. Vitale, K. A. Wilkinson,          |
 |  C. Weber, J. C. Womack, Chengcheng Xiao, N. Yeung,           |
 |  and T. J. Zuehlsdorff.                                       |
 |                                                               |
 |                                   Copyright (c) 2004-2024     |
 |                                                               |
 |  Please cite:                                                 |
 |  "The ONETEP linear-scaling density functional theory program"|
 |   J. Chem. Phys. 152(17) 174111 (2020)                        |
 |                                                               |
 |          in all publications arising from your use of ONETEP. |
 |                                                               |
 +---------------------------------------------------------------+
 |                                                               |
 |   ONETEP is based on developments described in the following  |
 |   publications:                                               |
 |                                                               |
 |  "Nonorthogonal generalized Wannier function pseudopotential  |
 |   plane-wave method".                                         |
 |   C.-K. Skylaris, A. A. Mostofi, P. D. Haynes, O. Dieguez,    |
 |   M. C. Payne.                                                |
 |   Phys. Rev. B 66 035119 (2002).                              |
 |                                                               |
 |  "Preconditioned iterative minimization for linear-scaling    |
 |   electronic structure calculations".                         |
 |   A. A. Mostofi, P. D. Haynes, C.-K. Skylaris, M. C. Payne.   |
 |   J. Chem. Phys. 119(17), pp.8842-8848 (2003).                |
 |                                                               |
 |  "Total-energy calculations on a real space grid with         |
 |   localized functions and a plane-wave basis".                |
 |   A. A. Mostofi, C.-K. Skylaris, P. D. Haynes, M. C. Payne.   |
 |   Comput. Phys. Commun. 147, pp.788-802 (2002).               |
 |                                                               |
 |  "Accurate kinetic energy evaluation in electronic structure  |
 |   calculations with localized functions on real space grids"  |
 |   C.-K. Skylaris, A. A. Mostofi, P. D. Haynes, C. J. Pickard, |
 |   M. C. Payne.                                                |
 |   Comput. Phys. Commun. 140, pp.315-322 (2001).               |
 |                                                               |
 |  "Accurate ionic forces and geometry optimization in linear-  |
 |   scaling density-functional theory with local orbitals"      |
 |   N. D. M. Hine, M. Robinson, P. D. Haynes, C.-K. Skylaris,   |
 |   M. C. Payne, and A. A. Mostofi.                             |
 |   Phys. Rev. B 83 195102 (2011).                              |
 |                                                               |
 +---------------------------------------------------------------+

Job started: 12-05-2025 16:34 (+0100)
 
Reading parameters from file "Cr2I6_bilayer_LT_FM_AFM_SP.dat" ...... done

If your calculation crashes here, before "Checking processes and threads..."
is displayed, then your stack size is insufficient.
If so, use "ulimit -s unlimited" at runtime.
You can disable this check with "check_stack_size F".

Checking processes and threads...
      Default threads: 16
   Running with 150 MPI processes.
   There are 6 MPI processes running on the same node as the root process.
   Each MPI process is using: 
               1 threads for simulation cell FFTs.
               1 threads for threaded FFT box operations.
              16 threads for loops over batched FFT box operations.
              16 threads in other parallel regions.
   MPI Interface: S1 (use mpi_f08) (-DMPI -DUSE_MPI_F08).
   MPI_ASYNC_PROTECTS_NONBLOCKING: Yes. MPI_SUBARRAYS_SUPPORTED: Yes.
   FFTW Interface: OMP-capable and MODERN. (-DUSE_MODERN_FFTW specified).
   GPU Interface: None.
   GPU FFT Backend: None.
... done

Basic input checks...... done

Reading geometry and species blocks from file "Cr2I6_bilayer_LT_FM_AFM_SP.dat" ...... done


--------------------------------------------------------------------------------
---------------------------------- INPUT FILE ----------------------------------
--------------------------------------------------------------------------------

charge : 0                                                                      
cutoff_energy : 1000 eV                                                         
delta_e_conv : F                                                                
do_properties : T                                                               
edft : F                                                                        
edft_init_maxit : 15                                                            
elec_energy_tol : 1e-07 Ha                                                      
fine_grid_scale : 4                                                             
forces_output_detail : VERBOSE                                                  
MAXIT_LNV     : 15                                                              
MINIT_LNV     : 5                                                               
maxit_ngwf_cg : 100                                                             
ngwf_threshold_orig : 1e-06                                                     
ngwfs_spin_polarized : T                                                        
output_detail : NORMAL                                                          
paw : T                                                                         
read_denskern : F                                                               
read_hamiltonian : F                                                            
read_tightbox_ngwfs : F                                                         
spin : 0                                                                        
spin_polarized : T                                                              
task : SinglePoint                                                              
write_denskern : T                                                              
write_forces : T                                                                
write_hamiltonian : T                                                           
write_tightbox_ngwfs : T                                                        
xc_functional : PBE                                                             
%BLOCK LATTICE_CART                                                             
ang                                                                             
41.261892132    0.000000000    0.000000000                                      
-20.630946066   35.733846792    0.000000000                                     
0.000000000    0.000000000   27.507928088                                       
%ENDBLOCK LATTICE_CART                                                          
%BLOCK POSITIONS_ABS                                                            
ang                                                                             
Cr       2.29230603       3.97040895      17.03520929                           
Cr      -1.14615438       5.95565340      17.04368562                           
I        3.29127824       1.97929933      15.50172901                           
I        0.06846335       4.10088269      15.50172980                           
I       -3.35976942       5.83112629      15.50174515                           
I        1.29815293       1.98813153      18.57647573                           
I        1.07268127       5.82255136      18.57647595                           
I       -2.37086124       4.10061929      18.57646027                           
Cr1      5.73080703       1.98523473      10.46423698                           
Cr1      2.29229229       3.97042256      10.47271549                           
I        6.72497778      -0.00289519       8.93147663                           
I        3.51196949       2.11831465       8.93145308                           
I        0.07849930       3.84024628       8.93144278                           
I        4.73186155       0.00594958      12.00619783                           
I        4.51617900       3.83998833      12.00619302                           
I        1.06740595       2.10972815      12.00620106                           
Cr      -1.14618498       9.92605008      17.03520929                           
Cr      -4.58464539      11.91129453      17.04368562                           
I       -0.14721277       7.93494046      15.50172901                           
I       -3.37002766      10.05652383      15.50172980                           
I       -6.79826043      11.78676742      15.50174515                           
I       -2.14033808       7.94377266      18.57647573                           
I       -2.36580974      11.77819249      18.57647595                           
I       -5.80935225      10.05626043      18.57646027                           
Cr1      2.29231601       7.94087586      10.46423698                           
Cr1     -1.14619872       9.92606369      10.47271549                           
I        3.28648677       5.95274594       8.93147663                           
I        0.07347848       8.07395578       8.93145308                           
I       -3.35999171       9.79588741       8.93144278                           
I        1.29337054       5.96159071      12.00619783                           
I        1.07768799       9.79562946      12.00619302                           
I       -2.37108506       8.06536928      12.00620106                           
Cr      -4.58467600      15.88169122      17.03520929                           
Cr      -8.02313640      17.86693567      17.04368562                           
I       -3.58570378      13.89058160      15.50172901                           
I       -6.80851867      16.01216496      15.50172980                           
I      -10.23675144      17.74240855      15.50174515                           
I       -5.57882909      13.89941380      18.57647573                           
I       -5.80430075      17.73383362      18.57647595                           
I       -9.24784326      16.01190156      18.57646027                           
Cr1     -1.14617500      13.89651700      10.46423698                           
Cr1     -4.58468973      15.88170482      10.47271549                           
I       -0.15200424      11.90838708       8.93147663                           
I       -3.36501253      14.02959691       8.93145308                           
I       -6.79848272      15.75152855       8.93144278                           
I       -2.14512047      11.91723184      12.00619783                           
I       -2.36080302      15.75127059      12.00619302                           
I       -5.80957607      14.02101041      12.00620106                           
Cr      -8.02316701      21.83733235      17.03520929                           
Cr     -11.46162741      23.82257680      17.04368562                           
I       -7.02419479      19.84622273      15.50172901                           
I      -10.24700968      21.96780609      15.50172980                           
I      -13.67524245      23.69804968      15.50174515                           
I       -9.01732010      19.85505493      18.57647573                           
I       -9.24279176      23.68947476      18.57647595                           
I      -12.68633427      21.96754269      18.57646027                           
Cr1     -4.58466601      19.85215813      10.46423698                           
Cr1     -8.02318074      21.83734595      10.47271549                           
I       -3.59049526      17.86402821       8.93147663                           
I       -6.80350354      19.98523804       8.93145308                           
I      -10.23697373      21.70716968       8.93144278                           
I       -5.58361148      17.87287297      12.00619783                           
I       -5.79929403      21.70691172      12.00619302                           
I       -9.24806708      19.97665154      12.00620106                           
Cr     -11.46165802      27.79297348      17.03520929                           
Cr     -14.90011843      29.77821793      17.04368562                           
I      -10.46268580      25.80186386      15.50172901                           
I      -13.68550069      27.92344722      15.50172980                           
I      -17.11373346      29.65369082      15.50174515                           
I      -12.45581112      25.81069606      18.57647573                           
I      -12.68128277      29.64511589      18.57647595                           
I      -16.12482528      27.92318382      18.57646027                           
Cr1     -8.02315702      25.80779926      10.46423698                           
Cr1    -11.46167176      27.79298708      10.47271549                           
I       -7.02898627      23.81966934       8.93147663                           
I      -10.24199455      25.94087917       8.93145308                           
I      -13.67546474      27.66281081       8.93144278                           
I       -9.02210249      23.82851411      12.00619783                           
I       -9.23778504      27.66255286      12.00619302                           
I      -12.68655809      25.93229268      12.00620106                           
Cr     -14.90014903      33.74861461      17.03520929                           
Cr     -18.33860944      35.73385906      17.04368562                           
I      -13.90117681      31.75750499      15.50172901                           
I      -17.12399170      33.87908835      15.50172980                           
I      -20.55222447      35.60933195      15.50174515                           
I      -15.89430213      31.76633719      18.57647573                           
I      -16.11977378      35.60075702      18.57647595                           
I      -19.56331629      33.87882495      18.57646027                           
Cr1    -11.46164803      31.76344039      10.46423698                           
Cr1    -14.90016277      33.74862822      10.47271549                           
I      -10.46747728      29.77531047       8.93147663                           
I      -13.68048556      31.89652031       8.93145308                           
I      -17.11395575      33.61845194       8.93144278                           
I      -12.46059350      29.78415524      12.00619783                           
I      -12.67627606      33.61819399      12.00619302                           
I      -16.12504910      31.88793381      12.00620106                           
Cr       9.16928805       3.97040895      17.03520929                           
Cr       5.73082764       5.95565340      17.04368562                           
I       10.16826026       1.97929933      15.50172901                           
I        6.94544538       4.10088269      15.50172980                           
I        3.51721261       5.83112629      15.50174515                           
I        8.17513495       1.98813153      18.57647573                           
I        7.94966330       5.82255136      18.57647595                           
I        4.50612079       4.10061929      18.57646027                           
Cr1     12.60778905       1.98523473      10.46423698                           
Cr1      9.16927431       3.97042256      10.47271549                           
I       13.60195980      -0.00289519       8.93147663                           
I       10.38895151       2.11831465       8.93145308                           
I        6.95548132       3.84024628       8.93144278                           
I       11.60884358       0.00594958      12.00619783                           
I       11.39316102       3.83998833      12.00619302                           
I        7.94438798       2.10972815      12.00620106                           
Cr       5.73079704       9.92605008      17.03520929                           
Cr       2.29233663      11.91129453      17.04368562                           
I        6.72976925       7.93494046      15.50172901                           
I        3.50695437      10.05652383      15.50172980                           
I        0.07872159      11.78676742      15.50174515                           
I        4.73664394       7.94377266      18.57647573                           
I        4.51117228      11.77819249      18.57647595                           
I        1.06762977      10.05626043      18.57646027                           
Cr1      9.16929804       7.94087586      10.46423698                           
Cr1      5.73078330       9.92606369      10.47271549                           
I       10.16346879       5.95274594       8.93147663                           
I        6.95046050       8.07395578       8.93145308                           
I        3.51699031       9.79588741       8.93144278                           
I        8.17035256       5.96159071      12.00619783                           
I        7.95467001       9.79562946      12.00619302                           
I        4.50589697       8.06536928      12.00620106                           
Cr       2.29230603      15.88169122      17.03520929                           
Cr      -1.14615438      17.86693567      17.04368562                           
I        3.29127824      13.89058160      15.50172901                           
I        0.06846335      16.01216496      15.50172980                           
I       -3.35976942      17.74240855      15.50174515                           
I        1.29815293      13.89941380      18.57647573                           
I        1.07268127      17.73383362      18.57647595                           
I       -2.37086124      16.01190156      18.57646027                           
Cr1      5.73080703      13.89651700      10.46423698                           
Cr1      2.29229229      15.88170482      10.47271549                           
I        6.72497778      11.90838708       8.93147663                           
I        3.51196949      14.02959691       8.93145308                           
I        0.07849930      15.75152855       8.93144278                           
I        4.73186155      11.91723184      12.00619783                           
I        4.51617900      15.75127059      12.00619302                           
I        1.06740595      14.02101041      12.00620106                           
Cr      -1.14618498      21.83733235      17.03520929                           
Cr      -4.58464539      23.82257680      17.04368562                           
I       -0.14721277      19.84622273      15.50172901                           
I       -3.37002766      21.96780609      15.50172980                           
I       -6.79826043      23.69804968      15.50174515                           
I       -2.14033808      19.85505493      18.57647573                           
I       -2.36580974      23.68947476      18.57647595                           
I       -5.80935225      21.96754269      18.57646027                           
Cr1      2.29231601      19.85215813      10.46423698                           
Cr1     -1.14619872      21.83734595      10.47271549                           
I        3.28648677      17.86402821       8.93147663                           
I        0.07347848      19.98523804       8.93145308                           
I       -3.35999171      21.70716968       8.93144278                           
I        1.29337054      17.87287297      12.00619783                           
I        1.07768799      21.70691172      12.00619302                           
I       -2.37108506      19.97665154      12.00620106                           
Cr      -4.58467600      27.79297348      17.03520929                           
Cr      -8.02313640      29.77821793      17.04368562                           
I       -3.58570378      25.80186386      15.50172901                           
I       -6.80851867      27.92344722      15.50172980                           
I      -10.23675144      29.65369082      15.50174515                           
I       -5.57882909      25.81069606      18.57647573                           
I       -5.80430075      29.64511589      18.57647595                           
I       -9.24784326      27.92318382      18.57646027                           
Cr1     -1.14617500      25.80779926      10.46423698                           
Cr1     -4.58468973      27.79298708      10.47271549                           
I       -0.15200424      23.81966934       8.93147663                           
I       -3.36501253      25.94087917       8.93145308                           
I       -6.79848272      27.66281081       8.93144278                           
I       -2.14512047      23.82851411      12.00619783                           
I       -2.36080302      27.66255286      12.00619302                           
I       -5.80957607      25.93229268      12.00620106                           
Cr      -8.02316701      33.74861461      17.03520929                           
Cr     -11.46162741      35.73385906      17.04368562                           
I       -7.02419479      31.75750499      15.50172901                           
I      -10.24700968      33.87908835      15.50172980                           
I      -13.67524245      35.60933195      15.50174515                           
I       -9.01732010      31.76633719      18.57647573                           
I       -9.24279176      35.60075702      18.57647595                           
I      -12.68633427      33.87882495      18.57646027                           
Cr1     -4.58466601      31.76344039      10.46423698                           
Cr1     -8.02318074      33.74862822      10.47271549                           
I       -3.59049526      29.77531047       8.93147663                           
I       -6.80350354      31.89652031       8.93145308                           
I      -10.23697373      33.61845194       8.93144278                           
I       -5.58361148      29.78415524      12.00619783                           
I       -5.79929403      33.61819399      12.00619302                           
I       -9.24806708      31.88793381      12.00620106                           
Cr      16.04627007       3.97040895      17.03520929                           
Cr      12.60780966       5.95565340      17.04368562                           
I       17.04524228       1.97929933      15.50172901                           
I       13.82242740       4.10088269      15.50172980                           
I       10.39419463       5.83112629      15.50174515                           
I       15.05211697       1.98813153      18.57647573                           
I       14.82664532       5.82255136      18.57647595                           
I       11.38310281       4.10061929      18.57646027                           
Cr1     19.48477107       1.98523473      10.46423698                           
Cr1     16.04625633       3.97042256      10.47271549                           
I       20.47894182      -0.00289519       8.93147663                           
I       17.26593353       2.11831465       8.93145308                           
I       13.83246335       3.84024628       8.93144278                           
I       18.48582560       0.00594958      12.00619783                           
I       18.27014304       3.83998833      12.00619302                           
I       14.82137000       2.10972815      12.00620106                           
Cr      12.60777906       9.92605008      17.03520929                           
Cr       9.16931865      11.91129453      17.04368562                           
I       13.60675127       7.93494046      15.50172901                           
I       10.38393639      10.05652383      15.50172980                           
I        6.95570362      11.78676742      15.50174515                           
I       11.61362596       7.94377266      18.57647573                           
I       11.38815431      11.77819249      18.57647595                           
I        7.94461180      10.05626043      18.57646027                           
Cr1     16.04628006       7.94087586      10.46423698                           
Cr1     12.60776532       9.92606369      10.47271549                           
I       17.04045081       5.95274594       8.93147663                           
I       13.82744252       8.07395578       8.93145308                           
I       10.39397233       9.79588741       8.93144278                           
I       15.04733459       5.96159071      12.00619783                           
I       14.83165203       9.79562946      12.00619302                           
I       11.38287899       8.06536928      12.00620106                           
Cr       9.16928805      15.88169122      17.03520929                           
Cr       5.73082764      17.86693567      17.04368562                           
I       10.16826026      13.89058160      15.50172901                           
I        6.94544538      16.01216496      15.50172980                           
I        3.51721261      17.74240855      15.50174515                           
I        8.17513495      13.89941380      18.57647573                           
I        7.94966330      17.73383362      18.57647595                           
I        4.50612079      16.01190156      18.57646027                           
Cr1     12.60778905      13.89651700      10.46423698                           
Cr1      9.16927431      15.88170482      10.47271549                           
I       13.60195980      11.90838708       8.93147663                           
I       10.38895151      14.02959691       8.93145308                           
I        6.95548132      15.75152855       8.93144278                           
I       11.60884358      11.91723184      12.00619783                           
I       11.39316102      15.75127059      12.00619302                           
I        7.94438798      14.02101041      12.00620106                           
Cr       5.73079704      21.83733235      17.03520929                           
Cr       2.29233663      23.82257680      17.04368562                           
I        6.72976925      19.84622273      15.50172901                           
I        3.50695437      21.96780609      15.50172980                           
I        0.07872159      23.69804968      15.50174515                           
I        4.73664394      19.85505493      18.57647573                           
I        4.51117228      23.68947476      18.57647595                           
I        1.06762977      21.96754269      18.57646027                           
Cr1      9.16929804      19.85215813      10.46423698                           
Cr1      5.73078330      21.83734595      10.47271549                           
I       10.16346879      17.86402821       8.93147663                           
I        6.95046050      19.98523804       8.93145308                           
I        3.51699031      21.70716968       8.93144278                           
I        8.17035256      17.87287297      12.00619783                           
I        7.95467001      21.70691172      12.00619302                           
I        4.50589697      19.97665154      12.00620106                           
Cr       2.29230603      27.79297348      17.03520929                           
Cr      -1.14615438      29.77821793      17.04368562                           
I        3.29127824      25.80186386      15.50172901                           
I        0.06846335      27.92344722      15.50172980                           
I       -3.35976942      29.65369082      15.50174515                           
I        1.29815293      25.81069606      18.57647573                           
I        1.07268127      29.64511589      18.57647595                           
I       -2.37086124      27.92318382      18.57646027                           
Cr1      5.73080703      25.80779926      10.46423698                           
Cr1      2.29229229      27.79298708      10.47271549                           
I        6.72497778      23.81966934       8.93147663                           
I        3.51196949      25.94087917       8.93145308                           
I        0.07849930      27.66281081       8.93144278                           
I        4.73186155      23.82851411      12.00619783                           
I        4.51617900      27.66255286      12.00619302                           
I        1.06740595      25.93229268      12.00620106                           
Cr      -1.14618498      33.74861461      17.03520929                           
Cr      -4.58464539      35.73385906      17.04368562                           
I       -0.14721277      31.75750499      15.50172901                           
I       -3.37002766      33.87908835      15.50172980                           
I       -6.79826043      35.60933195      15.50174515                           
I       -2.14033808      31.76633719      18.57647573                           
I       -2.36580974      35.60075702      18.57647595                           
I       -5.80935225      33.87882495      18.57646027                           
Cr1      2.29231601      31.76344039      10.46423698                           
Cr1     -1.14619872      33.74862822      10.47271549                           
I        3.28648677      29.77531047       8.93147663                           
I        0.07347848      31.89652031       8.93145308                           
I       -3.35999171      33.61845194       8.93144278                           
I        1.29337054      29.78415524      12.00619783                           
I        1.07768799      33.61819399      12.00619302                           
I       -2.37108506      31.88793381      12.00620106                           
Cr      22.92325209       3.97040895      17.03520929                           
Cr      19.48479168       5.95565340      17.04368562                           
I       23.92222431       1.97929933      15.50172901                           
I       20.69940942       4.10088269      15.50172980                           
I       17.27117665       5.83112629      15.50174515                           
I       21.92909899       1.98813153      18.57647573                           
I       21.70362734       5.82255136      18.57647595                           
I       18.26008483       4.10061929      18.57646027                           
Cr1     26.36175309       1.98523473      10.46423698                           
Cr1     22.92323835       3.97042256      10.47271549                           
I       27.35592384      -0.00289519       8.93147663                           
I       24.14291556       2.11831465       8.93145308                           
I       20.70944537       3.84024628       8.93144278                           
I       25.36280762       0.00594958      12.00619783                           
I       25.14712507       3.83998833      12.00619302                           
I       21.69835202       2.10972815      12.00620106                           
Cr      19.48476108       9.92605008      17.03520929                           
Cr      16.04630067      11.91129453      17.04368562                           
I       20.48373330       7.93494046      15.50172901                           
I       17.26091841      10.05652383      15.50172980                           
I       13.83268564      11.78676742      15.50174515                           
I       18.49060798       7.94377266      18.57647573                           
I       18.26513633      11.77819249      18.57647595                           
I       14.82159382      10.05626043      18.57646027                           
Cr1     22.92326208       7.94087586      10.46423698                           
Cr1     19.48474734       9.92606369      10.47271549                           
I       23.91743283       5.95274594       8.93147663                           
I       20.70442455       8.07395578       8.93145308                           
I       17.27095436       9.79588741       8.93144278                           
I       21.92431661       5.96159071      12.00619783                           
I       21.70863405       9.79562946      12.00619302                           
I       18.25986101       8.06536928      12.00620106                           
Cr      16.04627007      15.88169122      17.03520929                           
Cr      12.60780966      17.86693567      17.04368562                           
I       17.04524228      13.89058160      15.50172901                           
I       13.82242740      16.01216496      15.50172980                           
I       10.39419463      17.74240855      15.50174515                           
I       15.05211697      13.89941380      18.57647573                           
I       14.82664532      17.73383362      18.57647595                           
I       11.38310281      16.01190156      18.57646027                           
Cr1     19.48477107      13.89651700      10.46423698                           
Cr1     16.04625633      15.88170482      10.47271549                           
I       20.47894182      11.90838708       8.93147663                           
I       17.26593353      14.02959691       8.93145308                           
I       13.83246335      15.75152855       8.93144278                           
I       18.48582560      11.91723184      12.00619783                           
I       18.27014304      15.75127059      12.00619302                           
I       14.82137000      14.02101041      12.00620106                           
Cr      12.60777906      21.83733235      17.03520929                           
Cr       9.16931865      23.82257680      17.04368562                           
I       13.60675127      19.84622273      15.50172901                           
I       10.38393639      21.96780609      15.50172980                           
I        6.95570362      23.69804968      15.50174515                           
I       11.61362596      19.85505493      18.57647573                           
I       11.38815431      23.68947476      18.57647595                           
I        7.94461180      21.96754269      18.57646027                           
Cr1     16.04628006      19.85215813      10.46423698                           
Cr1     12.60776532      21.83734595      10.47271549                           
I       17.04045081      17.86402821       8.93147663                           
I       13.82744252      19.98523804       8.93145308                           
I       10.39397233      21.70716968       8.93144278                           
I       15.04733459      17.87287297      12.00619783                           
I       14.83165203      21.70691172      12.00619302                           
I       11.38287899      19.97665154      12.00620106                           
Cr       9.16928805      27.79297348      17.03520929                           
Cr       5.73082764      29.77821793      17.04368562                           
I       10.16826026      25.80186386      15.50172901                           
I        6.94544538      27.92344722      15.50172980                           
I        3.51721261      29.65369082      15.50174515                           
I        8.17513495      25.81069606      18.57647573                           
I        7.94966330      29.64511589      18.57647595                           
I        4.50612079      27.92318382      18.57646027                           
Cr1     12.60778905      25.80779926      10.46423698                           
Cr1      9.16927431      27.79298708      10.47271549                           
I       13.60195980      23.81966934       8.93147663                           
I       10.38895151      25.94087917       8.93145308                           
I        6.95548132      27.66281081       8.93144278                           
I       11.60884358      23.82851411      12.00619783                           
I       11.39316102      27.66255286      12.00619302                           
I        7.94438798      25.93229268      12.00620106                           
Cr       5.73079704      33.74861461      17.03520929                           
Cr       2.29233663      35.73385906      17.04368562                           
I        6.72976925      31.75750499      15.50172901                           
I        3.50695437      33.87908835      15.50172980                           
I        0.07872159      35.60933195      15.50174515                           
I        4.73664394      31.76633719      18.57647573                           
I        4.51117228      35.60075702      18.57647595                           
I        1.06762977      33.87882495      18.57646027                           
Cr1      9.16929804      31.76344039      10.46423698                           
Cr1      5.73078330      33.74862822      10.47271549                           
I       10.16346879      29.77531047       8.93147663                           
I        6.95046050      31.89652031       8.93145308                           
I        3.51699031      33.61845194       8.93144278                           
I        8.17035256      29.78415524      12.00619783                           
I        7.95467001      33.61819399      12.00619302                           
I        4.50589697      31.88793381      12.00620106                           
Cr      29.80023411       3.97040895      17.03520929                           
Cr      26.36177371       5.95565340      17.04368562                           
I       30.79920633       1.97929933      15.50172901                           
I       27.57639144       4.10088269      15.50172980                           
I       24.14815867       5.83112629      15.50174515                           
I       28.80608102       1.98813153      18.57647573                           
I       28.58060936       5.82255136      18.57647595                           
I       25.13706685       4.10061929      18.57646027                           
Cr1     33.23873511       1.98523473      10.46423698                           
Cr1     29.80022038       3.97042256      10.47271549                           
I       34.23290587      -0.00289519       8.93147663                           
I       31.01989758       2.11831465       8.93145308                           
I       27.58642739       3.84024628       8.93144278                           
I       32.23978964       0.00594958      12.00619783                           
I       32.02410709       3.83998833      12.00619302                           
I       28.57533404       2.10972815      12.00620106                           
Cr      26.36174310       9.92605008      17.03520929                           
Cr      22.92328270      11.91129453      17.04368562                           
I       27.36071532       7.93494046      15.50172901                           
I       24.13790043      10.05652383      15.50172980                           
I       20.70966766      11.78676742      15.50174515                           
I       25.36759001       7.94377266      18.57647573                           
I       25.14211835      11.77819249      18.57647595                           
I       21.69857584      10.05626043      18.57646027                           
Cr1     29.80024410       7.94087586      10.46423698                           
Cr1     26.36172937       9.92606369      10.47271549                           
I       30.79441485       5.95274594       8.93147663                           
I       27.58140657       8.07395578       8.93145308                           
I       24.14793638       9.79588741       8.93144278                           
I       28.80129863       5.96159071      12.00619783                           
I       28.58561608       9.79562946      12.00619302                           
I       25.13684303       8.06536928      12.00620106                           
Cr      22.92325209      15.88169122      17.03520929                           
Cr      19.48479168      17.86693567      17.04368562                           
I       23.92222431      13.89058160      15.50172901                           
I       20.69940942      16.01216496      15.50172980                           
I       17.27117665      17.74240855      15.50174515                           
I       21.92909899      13.89941380      18.57647573                           
I       21.70362734      17.73383362      18.57647595                           
I       18.26008483      16.01190156      18.57646027                           
Cr1     26.36175309      13.89651700      10.46423698                           
Cr1     22.92323835      15.88170482      10.47271549                           
I       27.35592384      11.90838708       8.93147663                           
I       24.14291556      14.02959691       8.93145308                           
I       20.70944537      15.75152855       8.93144278                           
I       25.36280762      11.91723184      12.00619783                           
I       25.14712507      15.75127059      12.00619302                           
I       21.69835202      14.02101041      12.00620106                           
Cr      19.48476108      21.83733235      17.03520929                           
Cr      16.04630067      23.82257680      17.04368562                           
I       20.48373330      19.84622273      15.50172901                           
I       17.26091841      21.96780609      15.50172980                           
I       13.83268564      23.69804968      15.50174515                           
I       18.49060798      19.85505493      18.57647573                           
I       18.26513633      23.68947476      18.57647595                           
I       14.82159382      21.96754269      18.57646027                           
Cr1     22.92326208      19.85215813      10.46423698                           
Cr1     19.48474734      21.83734595      10.47271549                           
I       23.91743283      17.86402821       8.93147663                           
I       20.70442455      19.98523804       8.93145308                           
I       17.27095436      21.70716968       8.93144278                           
I       21.92431661      17.87287297      12.00619783                           
I       21.70863405      21.70691172      12.00619302                           
I       18.25986101      19.97665154      12.00620106                           
Cr      16.04627007      27.79297348      17.03520929                           
Cr      12.60780966      29.77821793      17.04368562                           
I       17.04524228      25.80186386      15.50172901                           
I       13.82242740      27.92344722      15.50172980                           
I       10.39419463      29.65369082      15.50174515                           
I       15.05211697      25.81069606      18.57647573                           
I       14.82664532      29.64511589      18.57647595                           
I       11.38310281      27.92318382      18.57646027                           
Cr1     19.48477107      25.80779926      10.46423698                           
Cr1     16.04625633      27.79298708      10.47271549                           
I       20.47894182      23.81966934       8.93147663                           
I       17.26593353      25.94087917       8.93145308                           
I       13.83246335      27.66281081       8.93144278                           
I       18.48582560      23.82851411      12.00619783                           
I       18.27014304      27.66255286      12.00619302                           
I       14.82137000      25.93229268      12.00620106                           
Cr      12.60777906      33.74861461      17.03520929                           
Cr       9.16931865      35.73385906      17.04368562                           
I       13.60675127      31.75750499      15.50172901                           
I       10.38393639      33.87908835      15.50172980                           
I        6.95570362      35.60933195      15.50174515                           
I       11.61362596      31.76633719      18.57647573                           
I       11.38815431      35.60075702      18.57647595                           
I        7.94461180      33.87882495      18.57646027                           
Cr1     16.04628006      31.76344039      10.46423698                           
Cr1     12.60776532      33.74862822      10.47271549                           
I       17.04045081      29.77531047       8.93147663                           
I       13.82744252      31.89652031       8.93145308                           
I       10.39397233      33.61845194       8.93144278                           
I       15.04733459      29.78415524      12.00619783                           
I       14.83165203      33.61819399      12.00619302                           
I       11.38287899      31.88793381      12.00620106                           
Cr      36.67721614       3.97040895      17.03520929                           
Cr      33.23875573       5.95565340      17.04368562                           
I       37.67618835       1.97929933      15.50172901                           
I       34.45337346       4.10088269      15.50172980                           
I       31.02514069       5.83112629      15.50174515                           
I       35.68306304       1.98813153      18.57647573                           
I       35.45759138       5.82255136      18.57647595                           
I       32.01404887       4.10061929      18.57646027                           
Cr1     40.11571714       1.98523473      10.46423698                           
Cr1     36.67720240       3.97042256      10.47271549                           
I       41.10988789      -0.00289519       8.93147663                           
I       37.89687960       2.11831465       8.93145308                           
I       34.46340941       3.84024628       8.93144278                           
I       39.11677166       0.00594958      12.00619783                           
I       38.90108911       3.83998833      12.00619302                           
I       35.45231606       2.10972815      12.00620106                           
Cr      33.23872513       9.92605008      17.03520929                           
Cr      29.80026472      11.91129453      17.04368562                           
I       34.23769734       7.93494046      15.50172901                           
I       31.01488245      10.05652383      15.50172980                           
I       27.58664968      11.78676742      15.50174515                           
I       32.24457203       7.94377266      18.57647573                           
I       32.01910037      11.77819249      18.57647595                           
I       28.57555786      10.05626043      18.57646027                           
Cr1     36.67722612       7.94087586      10.46423698                           
Cr1     33.23871139       9.92606369      10.47271549                           
I       37.67139688       5.95274594       8.93147663                           
I       34.45838859       8.07395578       8.93145308                           
I       31.02491840       9.79588741       8.93144278                           
I       35.67828065       5.96159071      12.00619783                           
I       35.46259810       9.79562946      12.00619302                           
I       32.01382505       8.06536928      12.00620106                           
Cr      29.80023411      15.88169122      17.03520929                           
Cr      26.36177371      17.86693567      17.04368562                           
I       30.79920633      13.89058160      15.50172901                           
I       27.57639144      16.01216496      15.50172980                           
I       24.14815867      17.74240855      15.50174515                           
I       28.80608102      13.89941380      18.57647573                           
I       28.58060936      17.73383362      18.57647595                           
I       25.13706685      16.01190156      18.57646027                           
Cr1     33.23873511      13.89651700      10.46423698                           
Cr1     29.80022038      15.88170482      10.47271549                           
I       34.23290587      11.90838708       8.93147663                           
I       31.01989758      14.02959691       8.93145308                           
I       27.58642739      15.75152855       8.93144278                           
I       32.23978964      11.91723184      12.00619783                           
I       32.02410709      15.75127059      12.00619302                           
I       28.57533404      14.02101041      12.00620106                           
Cr      26.36174310      21.83733235      17.03520929                           
Cr      22.92328270      23.82257680      17.04368562                           
I       27.36071532      19.84622273      15.50172901                           
I       24.13790043      21.96780609      15.50172980                           
I       20.70966766      23.69804968      15.50174515                           
I       25.36759001      19.85505493      18.57647573                           
I       25.14211835      23.68947476      18.57647595                           
I       21.69857584      21.96754269      18.57646027                           
Cr1     29.80024410      19.85215813      10.46423698                           
Cr1     26.36172937      21.83734595      10.47271549                           
I       30.79441485      17.86402821       8.93147663                           
I       27.58140657      19.98523804       8.93145308                           
I       24.14793638      21.70716968       8.93144278                           
I       28.80129863      17.87287297      12.00619783                           
I       28.58561608      21.70691172      12.00619302                           
I       25.13684303      19.97665154      12.00620106                           
Cr      22.92325209      27.79297348      17.03520929                           
Cr      19.48479168      29.77821793      17.04368562                           
I       23.92222431      25.80186386      15.50172901                           
I       20.69940942      27.92344722      15.50172980                           
I       17.27117665      29.65369082      15.50174515                           
I       21.92909899      25.81069606      18.57647573                           
I       21.70362734      29.64511589      18.57647595                           
I       18.26008483      27.92318382      18.57646027                           
Cr1     26.36175309      25.80779926      10.46423698                           
Cr1     22.92323835      27.79298708      10.47271549                           
I       27.35592384      23.81966934       8.93147663                           
I       24.14291556      25.94087917       8.93145308                           
I       20.70944537      27.66281081       8.93144278                           
I       25.36280762      23.82851411      12.00619783                           
I       25.14712507      27.66255286      12.00619302                           
I       21.69835202      25.93229268      12.00620106                           
Cr      19.48476108      33.74861461      17.03520929                           
Cr      16.04630067      35.73385906      17.04368562                           
I       20.48373330      31.75750499      15.50172901                           
I       17.26091841      33.87908835      15.50172980                           
I       13.83268564      35.60933195      15.50174515                           
I       18.49060798      31.76633719      18.57647573                           
I       18.26513633      35.60075702      18.57647595                           
I       14.82159382      33.87882495      18.57646027                           
Cr1     22.92326208      31.76344039      10.46423698                           
Cr1     19.48474734      33.74862822      10.47271549                           
I       23.91743283      29.77531047       8.93147663                           
I       20.70442455      31.89652031       8.93145308                           
I       17.27095436      33.61845194       8.93144278                           
I       21.92431661      29.78415524      12.00619783                           
I       21.70863405      33.61819399      12.00619302                           
I       18.25986101      31.88793381      12.00620106                           
%ENDBLOCK POSITIONS_ABS                                                         
%BLOCK SPECIES                                                                  
Cr Cr 24 -1 15                                                                  
I   I  53 -1 15                                                                 
Cr1 Cr 24 -1 15                                                                 
%ENDBLOCK SPECIES                                                               
%BLOCK SPECIES_ATOMIC_SET                                                       
Cr "SOLVE INIT SPIN=3"                                                          
I   "SOLVE"                                                                     
Cr1 "SOLVE INIT SPIN=-3"                                                        
%ENDBLOCK SPECIES_ATOMIC_SET                                                    
%BLOCK HUBBARD                                                                  
Cr  2 2.97 0.37 -10.0 0.00 0.0                                                  
Cr1  2 2.97 0.37 -10.0 0.00 0.0                                                 
%ENDBLOCK HUBBARD                                                               
%BLOCK SPECIES_LDOS_GROUPS                                                      
Cr                                                                              
I                                                                               
Cr1                                                                             
%ENDBLOCK SPECIES_LDOS_GROUPS                                                   
%BLOCK SPECIES_POT                                                              
Cr  "../../../../Cr.PBE-paw.abinit"                                             
I   "../../../../I.PBE-paw.abinit"                                              
Cr1  "../../../../Cr.PBE-paw.abinit"                                            
%ENDBLOCK SPECIES_POT                                                           

--------------------------------------------------------------------------------
-------------------------------- END INPUT FILE --------------------------------
--------------------------------------------------------------------------------


 
 ESDF WARNING(1): "charge" (esdf_physical) has no units. Assume "e".
<<<<<<<<<<<<<<<<<<<<<<<<<<<<<<<<< Full system >>>>>>>>>>>>>>>>>>>>>>>>>>>>>>>>>>
<<<<<<<<<<<<<<<<<<<<<<<<<<< PAW Dataset information >>>>>>>>>>>>>>>>>>>>>>>>>>>
File: ../../../../Cr.PBE-paw.abinit; rc = 2.11 bohr; shape type =  2; rshape = 1.80 bohr;
  Atomic number: 24;  ionic charge: 14.000000
    Partial Wave 1: l = 0
    Partial Wave 2: l = 0
    Partial Wave 3: l = 1
    Partial Wave 4: l = 1
    Partial Wave 5: l = 2
    Partial Wave 6: l = 2
  Core charge supplied for Nonlinear Core Corrections
File: ../../../../I.PBE-paw.abinit; rc = 2.30 bohr; shape type =  2; rshape = 2.11 bohr;
  Atomic number: 53;  ionic charge:  7.000000
    Partial Wave 1: l = 0
    Partial Wave 2: l = 0
    Partial Wave 3: l = 1
    Partial Wave 4: l = 1
  Core charge supplied for Nonlinear Core Corrections
<<<<<<<<<<<<<<<<<<<<<<<<<<<<<<<<<<<<<<< >>>>>>>>>>>>>>>>>>>>>>>>>>>>>>>>>>>>>>>

-------------------------- Atom counting information ---------------------------
Symbol    Natoms    Nngwfs    Nprojs
  Cr       144      1872      2592
  I        432      1728      3456
.......   ......    ......    ......
Totals:    576      3600      6048
--------------------------------------------------------------------------------

=============================== PSINC grid sizes ===============================
                      Simulation cell:  175 x 175 x 117
                              FFT-box:  175 x 175 x 117
                                  PPD:    5 x   5 x   1
Grid space d1=  0.445563862424a0 (KE cutoff=  38.26345Eh =1041.20135eV)
Grid space d2=  0.445563862400a0 (KE cutoff=  38.26345Eh =1041.20135eV)
Grid space d3=  0.444294449711a0 (KE cutoff=  38.48241Eh =1047.15957eV)
================================================================================

********************* Fourier parallelisation information **********************
       Coarse grid (whole simulation cell) dimensions:    175   175   117
          Real-space ('12') slabs/proc (min max mean):      0     1     0
         Recip-space ('23') slabs/proc (min max mean):      0     1     0
********************************************************************************

********************* Fourier parallelisation information **********************
       Double grid (whole simulation cell) dimensions:    350   350   234
          Real-space ('12') slabs/proc (min max mean):      1     2     1
         Recip-space ('23') slabs/proc (min max mean):      1     2     1
********************************************************************************

********************* Fourier parallelisation information **********************
         Fine grid (whole simulation cell) dimensions:    700   700   468
          Real-space ('12') slabs/proc (min max mean):      3     4     3
         Recip-space ('23') slabs/proc (min max mean):      2     3     2
********************************************************************************
energy_and_force_init_cell: WARNING in internal_setup_spin:
        even number of electrons in cell and zero spin
        but continuing with spin-polarised calculation

Atom SCF Calculation for Cr : Z (AE atom) =  24 : Z (PS atom) =  14
Config String: 3s2.0 3p6.0 3d5.0 4s1.0 4p0.0 INIT SPIN=3
Orbitals (num,occ):  5     2.00 6.00 5.00 1.00 0.00
Orbitals   (num,l):  5        0    1    2    0    1
Atom SCF converged after  64 iterations to a total energy of    -87.07044631
Adjusting orbital occupancies:
Orbitals (num,spin,occ):  5  1     1.00 3.00 3.50 1.00 0.00
Orbitals   (num,spin,l):  5  1        0    1    2    0    1
Orbitals (num,spin,occ):  5  2     1.00 3.00 1.00 0.50 0.00
Orbitals   (num,spin,l):  5  2        0    1    2    0    1

Atom SCF Calculation for I  : Z (AE atom) =  53 : Z (PS atom) =   7
Config String: 5s2.0 5p5.0
Orbitals (num,occ):  2     2.00 5.00
Orbitals   (num,l):  2        0    1
Atom SCF converged after  28 iterations to a total energy of    -11.61352964

Atom SCF Calculation for Cr : Z (AE atom) =  24 : Z (PS atom) =  14
Config String: 3s2.0 3p6.0 3d5.0 4s1.0 4p0.0 INIT SPIN=-3
Orbitals (num,occ):  5     2.00 6.00 5.00 1.00 0.00
Orbitals   (num,l):  5        0    1    2    0    1
Atom SCF converged after  64 iterations to a total energy of    -87.07044631
Adjusting orbital occupancies:
Orbitals (num,spin,occ):  5  1     1.00 3.00 1.00 0.50 0.00
Orbitals   (num,spin,l):  5  1        0    1    2    0    1
Orbitals (num,spin,occ):  5  2     1.00 3.00 3.50 1.00 0.00
Orbitals   (num,spin,l):  5  2        0    1    2    0    1

Atom SCF Calculation for Cr : Z (AE atom) =  24 : Z (PS atom) =  14
Config String: 3s2.0 3p6.0 3d5.0 4s1.0 4p0.0 INIT SPIN=3
Orbitals (num,occ):  5     2.00 6.00 5.00 1.00 0.00
Orbitals   (num,l):  5        0    1    2    0    1
Atom SCF converged after  64 iterations to a total energy of    -87.07044631

Atom SCF Calculation for I  : Z (AE atom) =  53 : Z (PS atom) =   7
Config String: 5s2.0 5p5.0
Orbitals (num,occ):  2     2.00 5.00
Orbitals   (num,l):  2        0    1
Atom SCF converged after  28 iterations to a total energy of    -11.61352964

Atom SCF Calculation for Cr : Z (AE atom) =  24 : Z (PS atom) =  14
Config String: 3s2.0 3p6.0 3d5.0 4s1.0 4p0.0 INIT SPIN=-3
Orbitals (num,occ):  5     2.00 6.00 5.00 1.00 0.00
Orbitals   (num,l):  5        0    1    2    0    1
Atom SCF converged after  64 iterations to a total energy of    -87.07044631

Determining parallel strategy ...... done
Calculating Ewald energy ...            31583.245177 Hartree
Basis initialisation ...
... done

============================= Charge Augmentation ==============================
                           Aug box size:   49 x  49 x  45
================================================================================
Sparse matrix initialisation ...
 done
NGWF initialisation ... done
 done

================================= Core Density =================================
               Core den box size:  125 x 125 x 105
================================================================================
Density kernel initialisation

--------------------------- Ensemble-DFT optimisation --------------------------
Running ScaLAPACK on  150 processor(s).
With smearing scheme: FERMIDIRAC                                                                      

--------------------------------------------------------------------------------
  Iter                              Commutator    Free_energy(A=E-TS)     DeltaA
#    0                          0.006243993730  -17452.71597617824950  -1.75E+04
#    1                          0.001682234721  -17596.62145017554210  -1.44E+02
#    2                          0.000307250982  -17612.05355420753040  -1.54E+01
#    3                          0.000164562391  -17612.63023362691820  -5.77E-01
#    4                          0.000183314762  -17613.00279290827530  -3.73E-01
#    5                          0.000090985194  -17613.21423534861610  -2.11E-01
#    6                          0.000109568624  -17613.34180828191890  -1.28E-01
#    7                          0.000051471963  -17613.42015582467140  -7.83E-02
#    8                          0.000063664425  -17613.46605534072660  -4.59E-02
#    9                          0.000032481671  -17613.49453375953450  -2.85E-02
#   10                          0.000039740468  -17613.51147399941330  -1.69E-02
#   11                          0.000022179743  -17613.52372160537930  -1.22E-02
#   12                          0.000025403502  -17613.53098339041030  -7.26E-03
#   13                          0.000016555822  -17613.53666816210900  -5.68E-03
#   14                          0.000016799760  -17613.54003042223480  -3.36E-03
#   15                          0.000013277240  -17613.54294786433460  -2.92E-03
Finished EDFT density kernel iterations (  15)


Writing density kernel to file "Cr2I6_bilayer_LT_FM_AFM_SP.dkn" ... done

Writing Hamiltonian to file "Cr2I6_bilayer_LT_FM_AFM_SP.ham" ... done

Writing density kernel to file "Cr2I6_bilayer_LT_FM_AFM_SP.dkn" ... done

>>> Optimising kernel for current NGWFs:
   iter  |      energy (Eh)       | rms gradient |  commutator  |   dE (Eh)
    1        -1.761354225127E+04     2.5333E-05     1.2795E-05
    2        -1.761354363863E+04     3.2053E-05     1.6189E-05    -1.3874E-03
    3        -1.761354510731E+04     4.1904E-05     2.1165E-05    -1.4687E-03
    4        -1.761354689983E+04     5.5634E-05     2.8100E-05    -1.7925E-03
    5        -1.761354786264E+04     4.3688E-05     2.2066E-05    -9.6281E-04
Finished density kernel iterations (   5)

Writing density kernel to file "Cr2I6_bilayer_LT_FM_AFM_SP.dkn" ... done


>>> Density kernel optimised for the current NGWF basis:
     ~~~~~~~~~~~~~~~~~~~~~~~~~~~~~~~~~~~~~~~~~~~~~~~~~~~~~~~~~~~
     Total energy                =  -1.76135478626442E+04  Eh
     Estimated bandgap (UP spin) =   4.0377E-02  Eh
     Estimated bandgap (DN spin) =   4.0398E-02  Eh
     RMS occupancy error         =   7.9260E-10
     [H,K] commutator            =   2.2066E-05
     UP spin occupancy bounds    = [ -0.000:  1.000]
     DN spin occupancy bounds    = [ -0.000:  1.000]
     ~~~~~~~~~~~~~~~~~~~~~~~~~~~~~~~~~~~~~~~~~~~~~~~~~~~~~~~~~~~




################################################################################
########################### NGWF CG iteration  001 #############################
################################################################################

>>> Checking for convergence of NGWFs:   NOT CONVERGED
  ========================================================================
         NGWF RMS gradient =  1.0287E-04 >  1.0000E-06  | above tolerance
  ========================================================================

>>> Improving NGWFs using line search:
  ========================================================================
   Predicted total energy    =      -1.76215636667373E+04 Eh
   Predicted gain in energy  =      -8.01580409309099E+00 Eh
  ========================================================================

Writing NGWFs to file "Cr2I6_bilayer_LT_FM_AFM_SP.tightbox_ngwfs".... done

>>> Optimising kernel for current NGWFs:
   iter  |      energy (Eh)       | rms gradient |  commutator  |   dE (Eh)
    1        -1.762154946646E+04     5.6224E-04     2.8397E-04
    2        -1.762196113990E+04     2.2530E-04     1.1379E-04    -4.1167E-01
    3        -1.762200589553E+04     9.7566E-05     4.9278E-05    -4.4756E-02
    4        -1.762201860168E+04     6.7694E-05     3.4191E-05    -1.2706E-02
    5        -1.762202589095E+04     2.9986E-05     1.5145E-05    -7.2893E-03
Finished density kernel iterations (   5)

Writing density kernel to file "Cr2I6_bilayer_LT_FM_AFM_SP.dkn" ... done


>>> Density kernel optimised for the current NGWF basis:
     ~~~~~~~~~~~~~~~~~~~~~~~~~~~~~~~~~~~~~~~~~~~~~~~~~~~~~~~~~~~
     Total energy                =  -1.76220258909513E+04  Eh
     Estimated bandgap (UP spin) =   4.7272E-02  Eh
     Estimated bandgap (DN spin) =   4.7286E-02  Eh
     RMS occupancy error         =   8.3339E-10
     [H,K] commutator            =   1.5145E-05
     UP spin occupancy bounds    = [ -0.000:  1.000]
     DN spin occupancy bounds    = [ -0.000:  1.000]
     ~~~~~~~~~~~~~~~~~~~~~~~~~~~~~~~~~~~~~~~~~~~~~~~~~~~~~~~~~~~




################################################################################
########################### NGWF CG iteration  002 #############################
################################################################################

>>> Checking for convergence of NGWFs:   NOT CONVERGED
  ========================================================================
         NGWF RMS gradient =  6.9621E-05 >  1.0000E-06  | above tolerance
  Maximum change in energy =  1.4719E-02 >  1.0000E-07  | above tolerance
  ========================================================================

>>> Improving NGWFs using line search:
  ========================================================================
   Predicted total energy    =      -1.76247179765984E+04 Eh
   Predicted gain in energy  =      -2.69208564715882E+00 Eh
  ========================================================================

Writing NGWFs to file "Cr2I6_bilayer_LT_FM_AFM_SP.tightbox_ngwfs".... done

>>> Optimising kernel for current NGWFs:
   iter  |      energy (Eh)       | rms gradient |  commutator  |   dE (Eh)
    1        -1.762470969156E+04     2.0795E-04     1.0503E-04
    2        -1.762477668424E+04     4.7145E-05     2.3812E-05    -6.6993E-02
    3        -1.762478190159E+04     5.6784E-05     2.8680E-05    -5.2174E-03
    4        -1.762478549704E+04     2.7509E-05     1.3894E-05    -3.5954E-03
    5        -1.762478692340E+04     2.6734E-05     1.3503E-05    -1.4264E-03
Finished density kernel iterations (   5)

Writing density kernel to file "Cr2I6_bilayer_LT_FM_AFM_SP.dkn" ... done


>>> Density kernel optimised for the current NGWF basis:
     ~~~~~~~~~~~~~~~~~~~~~~~~~~~~~~~~~~~~~~~~~~~~~~~~~~~~~~~~~~~
     Total energy                =  -1.76247869233964E+04  Eh
     Estimated bandgap (UP spin) =   4.6416E-02  Eh
     Estimated bandgap (DN spin) =   4.6530E-02  Eh
     RMS occupancy error         =   1.0721E-10
     [H,K] commutator            =   1.3503E-05
     UP spin occupancy bounds    = [ -0.000:  1.000]
     DN spin occupancy bounds    = [ -0.000:  1.000]
     ~~~~~~~~~~~~~~~~~~~~~~~~~~~~~~~~~~~~~~~~~~~~~~~~~~~~~~~~~~~




################################################################################
########################### NGWF CG iteration  003 #############################
################################################################################

>>> Checking for convergence of NGWFs:   NOT CONVERGED
  ========================================================================
         NGWF RMS gradient =  4.2925E-05 >  1.0000E-06  | above tolerance
  Maximum change in energy =  1.4719E-02 >  1.0000E-07  | above tolerance
  ========================================================================

>>> Improving NGWFs using line search:
  ========================================================================
   Predicted total energy    =      -1.76258953274730E+04 Eh
   Predicted gain in energy  =      -1.10840407662181E+00 Eh
  ========================================================================

Writing NGWFs to file "Cr2I6_bilayer_LT_FM_AFM_SP.tightbox_ngwfs".... done

>>> Optimising kernel for current NGWFs:
   iter  |      energy (Eh)       | rms gradient |  commutator  |   dE (Eh)
    1        -1.762588536575E+04     2.1109E-04     1.0662E-04
    2        -1.762593545847E+04     1.0052E-04     5.0771E-05    -5.0093E-02
    3        -1.762594386095E+04     3.4860E-05     1.7607E-05    -8.4025E-03
    4        -1.762594570157E+04     2.6616E-05     1.3443E-05    -1.8406E-03
    5        -1.762594722735E+04     1.6746E-05     8.4578E-06    -1.5258E-03
Finished density kernel iterations (   5)

Writing density kernel to file "Cr2I6_bilayer_LT_FM_AFM_SP.dkn" ... done


>>> Density kernel optimised for the current NGWF basis:
     ~~~~~~~~~~~~~~~~~~~~~~~~~~~~~~~~~~~~~~~~~~~~~~~~~~~~~~~~~~~
     Total energy                =  -1.76259472273532E+04  Eh
     Estimated bandgap (UP spin) =   4.6598E-02  Eh
     Estimated bandgap (DN spin) =   4.6669E-02  Eh
     RMS occupancy error         =   1.3109E-10
     [H,K] commutator            =   8.4578E-06
     UP spin occupancy bounds    = [  0.000:  1.000]
     DN spin occupancy bounds    = [  0.000:  1.000]
     ~~~~~~~~~~~~~~~~~~~~~~~~~~~~~~~~~~~~~~~~~~~~~~~~~~~~~~~~~~~




################################################################################
########################### NGWF CG iteration  004 #############################
################################################################################

>>> Checking for convergence of NGWFs:   NOT CONVERGED
  ========================================================================
         NGWF RMS gradient =  2.9555E-05 >  1.0000E-06  | above tolerance
  Maximum change in energy =  4.7935E-03 >  1.0000E-07  | above tolerance
  ========================================================================

>>> Improving NGWFs using line search:
  ========================================================================
   Predicted total energy    =      -1.76265345072300E+04 Eh
   Predicted gain in energy  =      -5.87279876832326E-01 Eh
  ========================================================================

Writing NGWFs to file "Cr2I6_bilayer_LT_FM_AFM_SP.tightbox_ngwfs".... done

>>> Optimising kernel for current NGWFs:
   iter  |      energy (Eh)       | rms gradient |  commutator  |   dE (Eh)
    1        -1.762652380368E+04     9.2085E-05     4.6510E-05
    2        -1.762653452977E+04     4.4910E-05     2.2683E-05    -1.0726E-02
    3        -1.762653654711E+04     2.3808E-05     1.2025E-05    -2.0173E-03
    4        -1.762653765542E+04     2.2364E-05     1.1295E-05    -1.1083E-03
    5        -1.762653839136E+04     1.2129E-05     6.1259E-06    -7.3594E-04
Finished density kernel iterations (   5)

Writing density kernel to file "Cr2I6_bilayer_LT_FM_AFM_SP.dkn" ... done


>>> Density kernel optimised for the current NGWF basis:
     ~~~~~~~~~~~~~~~~~~~~~~~~~~~~~~~~~~~~~~~~~~~~~~~~~~~~~~~~~~~
     Total energy                =  -1.76265383913568E+04  Eh
     Estimated bandgap (UP spin) =   4.5803E-02  Eh
     Estimated bandgap (DN spin) =   4.5772E-02  Eh
     RMS occupancy error         =   7.6946E-11
     [H,K] commutator            =   6.1259E-06
     UP spin occupancy bounds    = [  0.000:  1.000]
     DN spin occupancy bounds    = [  0.000:  1.000]
     ~~~~~~~~~~~~~~~~~~~~~~~~~~~~~~~~~~~~~~~~~~~~~~~~~~~~~~~~~~~




################################################################################
########################### NGWF CG iteration  005 #############################
################################################################################

>>> Checking for convergence of NGWFs:   NOT CONVERGED
  ========================================================================
         NGWF RMS gradient =  2.0766E-05 >  1.0000E-06  | above tolerance
  Maximum change in energy =  2.0144E-03 >  1.0000E-07  | above tolerance
  ========================================================================

>>> Improving NGWFs using line search:
  ========================================================================
   Predicted total energy    =      -1.76266981151091E+04 Eh
   Predicted gain in energy  =      -1.59723752240097E-01 Eh
  ========================================================================

Writing NGWFs to file "Cr2I6_bilayer_LT_FM_AFM_SP.tightbox_ngwfs".... done

>>> Optimising kernel for current NGWFs:
   iter  |      energy (Eh)       | rms gradient |  commutator  |   dE (Eh)
    1        -1.762669758871E+04     1.0508E-05     5.3073E-06
    2        -1.762669775657E+04     1.2120E-05     6.1214E-06    -1.6786E-04
    3        -1.762669796624E+04     1.8589E-05     9.3890E-06    -2.0966E-04
    4        -1.762669809350E+04     1.6664E-05     8.4166E-06    -1.2726E-04
    5        -1.762669835715E+04     1.6305E-05     8.2351E-06    -2.6365E-04
Finished density kernel iterations (   5)

Writing density kernel to file "Cr2I6_bilayer_LT_FM_AFM_SP.dkn" ... done


>>> Density kernel optimised for the current NGWF basis:
     ~~~~~~~~~~~~~~~~~~~~~~~~~~~~~~~~~~~~~~~~~~~~~~~~~~~~~~~~~~~
     Total energy                =  -1.76266983571499E+04  Eh
     Estimated bandgap (UP spin) =   4.5293E-02  Eh
     Estimated bandgap (DN spin) =   4.5412E-02  Eh
     RMS occupancy error         =   8.1717E-11
     [H,K] commutator            =   8.2351E-06
     UP spin occupancy bounds    = [  0.000:  1.000]
     DN spin occupancy bounds    = [  0.000:  1.000]
[...]
*    I     436     -0.00338104  -0.00588994  -0.00969064 *
*    I     437     -0.00340944   0.00589771  -0.00968003 *
*    I     438     -0.00667516  -0.00000836   0.01218943 *
*    I     439      0.00332209   0.00575593   0.01218710 *
*    I     440      0.00333100  -0.00578169   0.01218516 *
*    Cr    441      0.00016695   0.00008205  -0.00019439 *
*    Cr    442      0.00000884   0.00002118   0.00014680 *
*    I     443      0.00667190  -0.00000091  -0.01219240 *
*    I     444     -0.00333079  -0.00575970  -0.01219228 *
*    I     445     -0.00332925   0.00578087  -0.01218901 *
*    I     446     -0.00680809  -0.00002672   0.00970729 *
*    I     447      0.00340922   0.00587006   0.00965984 *
*    I     448      0.00343203  -0.00590114   0.00967023 *
*    Cr    449     -0.00001273  -0.00000263  -0.00012379 *
*    Cr    450     -0.00002220   0.00017138   0.00019007 *
*    I     451      0.00681350   0.00002364  -0.00968265 *
*    I     452     -0.00339434  -0.00586954  -0.00969241 *
*    I     453     -0.00343544   0.00590066  -0.00966784 *
*    I     454     -0.00667139  -0.00000923   0.01218412 *
*    I     455      0.00332763   0.00575673   0.01219263 *
*    I     456      0.00332864  -0.00578458   0.01219003 *
*    Cr    457      0.00017176   0.00009789  -0.00018792 *
*    Cr    458      0.00001949   0.00001013   0.00012602 *
*    I     459      0.00667097  -0.00000187  -0.01218886 *
*    I     460     -0.00333053  -0.00576039  -0.01219287 *
*    I     461     -0.00333120   0.00577938  -0.01218748 *
*    I     462     -0.00681281  -0.00002092   0.00969522 *
*    I     463      0.00338179   0.00588865   0.00967974 *
*    I     464      0.00341648  -0.00589771   0.00969364 *
*    Cr    465     -0.00000209  -0.00000847  -0.00014078 *
*    Cr    466     -0.00002406  -0.00001895   0.00021413 *
*    I     467      0.00681327   0.00003189  -0.00969478 *
*    I     468     -0.00339855  -0.00586034  -0.00968191 *
*    I     469     -0.00345665   0.00590348  -0.00965020 *
*    I     470     -0.00667625  -0.00001163   0.01219022 *
*    I     471      0.00332072   0.00575650   0.01219046 *
*    I     472      0.00332765  -0.00578575   0.01218742 *
*    Cr    473      0.00016862   0.00009320  -0.00018574 *
*    Cr    474      0.00014321  -0.00006368   0.00016511 *
*    I     475      0.00667303  -0.00000194  -0.01218749 *
*    I     476     -0.00332834  -0.00576382  -0.01219584 *
*    I     477     -0.00333042   0.00577912  -0.01218844 *
*    I     478     -0.00681216  -0.00000887   0.00968396 *
*    I     479      0.00336056   0.00591496   0.00967152 *
*    I     480      0.00340200  -0.00589490   0.00970323 *
*    Cr    481      0.00000018  -0.00001030  -0.00014666 *
*    Cr    482     -0.00002055  -0.00001700   0.00019092 *
*    I     483      0.00681721   0.00005242  -0.00968787 *
*    I     484     -0.00339180  -0.00586900  -0.00967805 *
*    I     485     -0.00344542   0.00592790  -0.00961851 *
*    I     486     -0.00667099  -0.00000894   0.01218589 *
*    I     487      0.00332072   0.00575526   0.01218934 *
*    I     488      0.00333024  -0.00577992   0.01218625 *
*    Cr    489      0.00000631  -0.00000313  -0.00021618 *
*    Cr    490      0.00016424  -0.00007886   0.00017902 *
*    I     491      0.00667194   0.00000779  -0.01218828 *
*    I     492     -0.00332493  -0.00576161  -0.01219080 *
*    I     493     -0.00332863   0.00578523  -0.01219255 *
*    I     494     -0.00681240   0.00000221   0.00966269 *
*    I     495      0.00336649   0.00587316   0.00969901 *
*    I     496      0.00340584  -0.00589068   0.00971065 *
*    Cr    497      0.00000123  -0.00001101  -0.00015139 *
*    Cr    498     -0.00002083  -0.00000839   0.00017730 *
*    I     499      0.00682283   0.00003388  -0.00966215 *
*    I     500     -0.00337134  -0.00591975  -0.00964086 *
*    I     501     -0.00337726   0.00590046  -0.00968136 *
*    I     502     -0.00667038  -0.00000836   0.01218566 *
*    I     503      0.00332286   0.00575545   0.01218955 *
*    I     504      0.00333102  -0.00578038   0.01218605 *
*    Cr    505      0.00001427   0.00001162  -0.00026709 *
*    Cr    506      0.00000768   0.00001690   0.00019178 *
*    I     507      0.00667272   0.00000474  -0.01218707 *
*    I     508     -0.00332520  -0.00576240  -0.01219009 *
*    I     509     -0.00333150   0.00578019  -0.01218958 *
*    I     510     -0.00679634  -0.00002990   0.00970272 *
*    I     511      0.00336985   0.00585166   0.00971959 *
*    I     512      0.00339407  -0.00587870   0.00971759 *
*    Cr    513     -0.00000033  -0.00001199  -0.00014986 *
*    Cr    514     -0.00003730   0.00000187   0.00021683 *
*    I     515      0.00682865   0.00004054  -0.00965342 *
*    I     516     -0.00335960  -0.00590125  -0.00969014 *
*    I     517     -0.00339110   0.00589903  -0.00967731 *
*    I     518     -0.00667016  -0.00001041   0.01218670 *
*    I     519      0.00332290   0.00575322   0.01218986 *
*    I     520      0.00333011  -0.00578129   0.01218569 *
*    Cr    521      0.00002918  -0.00001259  -0.00029365 *
*    Cr    522      0.00000429   0.00003286   0.00018507 *
*    I     523      0.00666929   0.00000429  -0.01218639 *
*    I     524     -0.00332598  -0.00576148  -0.01219017 *
*    I     525     -0.00333058   0.00578214  -0.01219060 *
*    I     526     -0.00679606  -0.00002866   0.00971021 *
*    I     527      0.00336280   0.00587057   0.00971135 *
*    I     528      0.00344286  -0.00589139   0.00967955 *
*    Cr    529     -0.00000317  -0.00001251  -0.00014690 *
*    Cr    530     -0.00002906  -0.00001017   0.00020132 *
*    I     531      0.00684126   0.00004371  -0.00964515 *
*    I     532     -0.00337294  -0.00588825  -0.00969454 *
*    I     533     -0.00338559   0.00590530  -0.00967787 *
*    I     534     -0.00667172  -0.00001140   0.01218594 *
*    I     535      0.00332213   0.00575442   0.01218733 *
*    I     536      0.00333249  -0.00578044   0.01218549 *
*    Cr    537      0.00001330  -0.00001665  -0.00022311 *
*    Cr    538      0.00000382   0.00001052   0.00016958 *
*    I     539      0.00666937   0.00000349  -0.01218757 *
*    I     540     -0.00332698  -0.00576191  -0.01219131 *
*    I     541     -0.00333072   0.00578009  -0.01218938 *
*    I     542     -0.00679685  -0.00002096   0.00971171 *
*    I     543      0.00336058   0.00588244   0.00969073 *
*    I     544      0.00343296  -0.00589496   0.00968965 *
*    Cr    545     -0.00013891   0.00006812  -0.00016588 *
*    Cr    546     -0.00002341   0.00017200   0.00019190 *
*    I     547      0.00683382   0.00004972  -0.00966324 *
*    I     548     -0.00338381  -0.00587867  -0.00970837 *
*    I     549     -0.00340943   0.00590572  -0.00967013 *
*    I     550     -0.00667610  -0.00001478   0.01218802 *
*    I     551      0.00332561   0.00575846   0.01219475 *
*    I     552      0.00332606  -0.00578762   0.01218898 *
*    Cr    553      0.00001078  -0.00000338  -0.00020519 *
*    Cr    554      0.00000696   0.00001472   0.00014066 *
*    I     555      0.00666902   0.00000172  -0.01218923 *
*    I     556     -0.00332984  -0.00576066  -0.01219282 *
*    I     557     -0.00333152   0.00578045  -0.01219065 *
*    I     558     -0.00679303  -0.00001115   0.00971895 *
*    I     559      0.00341308   0.00586790   0.00965914 *
*    I     560      0.00345111  -0.00590382   0.00966952 *
*    Cr    561     -0.00001451  -0.00000744  -0.00014211 *
*    Cr    562     -0.00001589  -0.00001579   0.00020761 *
*    I     563      0.00682871   0.00005486  -0.00968064 *
*    I     564     -0.00340245  -0.00584944  -0.00970267 *
*    I     565     -0.00340965   0.00592492  -0.00964492 *
*    I     566     -0.00667397  -0.00000778   0.01218855 *
*    I     567      0.00332113   0.00575516   0.01218870 *
*    I     568      0.00332730  -0.00578705   0.01218811 *
*    Cr    569      0.00000484   0.00000122  -0.00021381 *
*    Cr    570      0.00001244   0.00000710   0.00014124 *
*    I     571      0.00666969   0.00000086  -0.01218962 *
*    I     572     -0.00332851  -0.00576008  -0.01219394 *
*    I     573     -0.00332954   0.00578504  -0.01219106 *
*    I     574     -0.00679806   0.00000231   0.00970078 *
*    I     575      0.00337146   0.00591316   0.00965139 *
*    I     576      0.00342575  -0.00590060   0.00969102 *
*                                                        *
**********************************************************
* TOTAL:           -0.00000000   0.00000000   0.00000000 *
**********************************************************
 
 
***********************************************************
********** Summary of Forces (values in Eh/a) *************
*                                                         *
* ---------------------- Minimum ------------------------ *
* Atom:       337, |F|min =    0.00009993                 *
* Components:     Fx|min       Fy|min       Fz|min        *
*              -0.00000819  -0.00000309  -0.00009954      *
*                                                         *
* ---------------------- Maximum ------------------------ *
* Atom:        72, |F|max =    0.01390019                 *
* Components:     Fx|max       Fy|max       Fz|max        *
*               0.00332637  -0.00578938   0.01219154      *
*                                                         *
* ---------------- Root Mean Square Force --------------- *
*                  |F|rms =    0.01117572                 *
* Components:     Fx|rms       Fy|rms       Fz|rms        *
*               0.00412614   0.00412323   0.00953261      *
***********************************************************
 

------------------------------ TIMING INFORMATION ------------------------------
AVERAGE TIME:   57324.428s on    150 proc(s)                                    
TOTAL TIME:     57324.429s on    150 proc(s)                                    
==================== AVERAGE TIMINGS FROM ALL PROCS (CUMULATIVE) =====================
|| TAG                                         #calls     cpu time   %total  Gflops ||
|| hubbard_species_proj                       :     1        0.00s   0.000%  ------ ||
|| sw_bessel_init_cpu                         :     1        0.01s   0.000%  ------ || (1 procs only)
|| hubbard_projector_character                :     1        0.00s   0.000%  ------ ||
|| hubbard_ngwf_select                        :     1        0.00s   0.000%  ------ ||
|| density_fftbox_interp_mult_imbal           : 32200        0.00s   0.000%  ------ ||
|| hubbard_ngwf_on_grid                       :     1        0.00s   0.000%  ------ ||
|| onetep.F90 main loop imbalance             :     1        0.00s   0.000%  ------ ||
|| hash_table_free                            :    70        0.00s   0.000%  ------ ||
|| ewald_calculate_forces_realspace           :     1        0.02s   0.000%  ------ ||
|| linalg_dgemv                               :    29        0.02s   0.000%  ------ ||
|| ewald_calculate_energy                     :     1        0.04s   0.000%  ------ ||
|| onetep.F90 final imbalance                 :     1        0.04s   0.000%  ------ ||
|| linalg_invert_sym_matrix                   :     4        0.04s   0.000%  ------ || (144 procs only)
|| hubbard_tensorial_correction               :     2        0.04s   0.000%  ------ ||
|| ewald_calculate_forces_recipspace          :     1        0.06s   0.000%  ------ ||
|| sparse_spam3toblacs_real_fast_imbal        :   210        0.08s   0.000%  ------ ||
|| sw_init                                    :  1287        0.10s   0.000%  ------ ||
|| sparse_blacstospam3_real_fast_imbal        :   224        0.13s   0.000%  ------ ||
|| ewald_calculate_forces                     :     1        0.13s   0.000%  ------ ||
|| pseudo_make_structure_factor               :     1        0.15s   0.000%  ------ ||
|| paw_dij_hartree                            :   693        0.20s   0.000%  ------ ||
|| augmentation_density_forces                :     1        0.23s   0.000%  ------ ||
|| sparse_set_to_garbage                      :  1532        0.23s   0.000%  ------ ||
|| paw_tcore_hartree_on_grid                  :     1        0.49s   0.001%  ------ ||
|| sparse_spam3toblacs_real_fast_B2           : 31500        0.52s   0.001%  ------ ||
|| restart_hamiltonian_write                  :     2        0.53s   0.001%  ------ ||
|| basis_extract_function_from_box            :  3360        0.57s   0.001%  ------ ||
|| paw_tcore_hartree_calc_forces              :     1        0.64s   0.001%  ------ ||
|| paw_tcore_density                          :     1        1.20s   0.002%  ------ ||
|| hubbard_projection_mtx                     :    72        1.31s   0.002%  ------ ||
|| paw_nlcc_calculate_forces                  :     1        1.46s   0.003%  ------ ||
|| paw_dataset_init                           :     2        1.52s   0.003%  ------ ||
|| paw_sphere_density_on_grid                 :     1        1.77s   0.003%  ------ ||
|| sparse_init                                :     1        2.20s   0.004%  ------ ||
|| ngwfs_initialise_from_radial               :     4        2.66s   0.005%  ------ ||
|| nonsc_forces_ngwfs_calc                    :     1        3.52s   0.006%  ------ ||
|| paw_species_calc_proj_prec_mat             :     1        5.92s   0.010%  ------ ||
|| hubbard_projector_ham                      :   304        8.89s   0.016%  ------ ||
|| hubbard_ham_matrix                         :   305        8.94s   0.016%  ------ ||
|| restart_kernel_write                       :    37        9.38s   0.016%  ------ ||
|| energy_and_force_init_cell                 :     1       14.49s   0.025%  ------ ||
|| sparse_spam3toblacs_real_fast_B1           : 31500       15.46s   0.027%  ------ ||
|| sparse_spam3toblacs_real_fast              :   210       17.14s   0.030%  ------ ||
|| hubbard_calculate_forces                   :     1       18.48s   0.032%  ------ ||
|| integrals_grad_spam3                       :     4       21.90s   0.038%  ------ ||
|| sparse_embed_array_hotelling_invert        :    70       23.47s   0.041%  ------ ||
|| hubbard_energy_total                       :   656       27.04s   0.047%  ------ ||
|| hubbard_projector_update                   :     1       30.36s   0.053%  ------ ||
|| sparse_blacstospam3_real_fast              :   224       33.20s   0.058%  ------ ||
|| ngwf_gradient_coeffs                       :    35       34.67s   0.060%  ------ ||
|| projectors_func_grad_ovlp_box_spam3        :     6       34.96s   0.061%  ------ ||
|| fourier_filter_cell                        :   680       35.07s   0.061% 343.879 ||
|| aug_nl_calculate_forces                    :     1       35.96s   0.063%  ------ ||
|| hamiltonian_energy_components              :     1       39.64s   0.069%  ------ ||
|| eigenstates_calculate                      :     1       43.64s   0.076%  ------ ||
|| sparse_trace                               : 20574       49.08s   0.086%  ------ ||
|| fourier_apply_box_pair                     :  5137       52.03s   0.091%  5.778k ||
|| hartree_on_grid_single                     :   643       55.33s   0.097%  ------ ||
|| density_init_guess_real                    :     2       57.98s   0.101%  ------ ||
|| basis_copy_function_to_box                 : 51177       59.18s   0.103%  ------ ||
|| dense_eigensolve                           :   102       59.18s   0.103%  ------ ||
|| edft_diag_ngwf_ham                         :   100       74.31s   0.130%  ------ ||
|| fourier_interpolate_cell                   :  1288       76.35s   0.133% 299.187 ||
|| kernel_fix                                 :   287      106.12s   0.185%  ------ ||
|| kernel_purify                              :   910      111.03s   0.194%  ------ ||
|| edft_apply_smearing_operator               :    50      119.92s   0.209%  ------ ||
|| lnv_gradient_norm                          :   287      129.41s   0.226%  ------ ||
|| augmentation_screen_dij_spam3              :   642      132.27s   0.231%  ------ ||
|| forces_calculate                           :     1      134.73s   0.235%  ------ ||
|| paw_dij_xc                                 :   693      142.92s   0.249%  ------ ||
|| aug_nonlocal_mat_spam3_embed_array         :   657      157.82s   0.275%  ------ ||
|| fourier_apply_cell_backward                :  5788      236.28s   0.412% 390.777 ||
|| projectors_init_fftbox_recip               :   713      246.36s   0.430%  ------ ||
|| fourier_apply_cell_forward                 :  5788      279.42s   0.487% 330.433 ||
|| cell_grid_deposit_box_real                 : 40570      295.14s   0.515%  ------ ||
|| aug_density_on_grid_spam3                  :   644      314.32s   0.548%  ------ ||
|| cell_grid_extract_box_real                 : 25368      319.70s   0.558%  ------ ||
|| fourier_filter                             :  9292      367.12s   0.640%  ------ ||
|| restart_ngwfs_tightbox_output              :    34      406.93s   0.710%  ------ ||
|| xc_energy_potential                        :   643      525.78s   0.917%  ------ ||
|| properties_calculate                       :     1      548.78s   0.957%  ------ ||
|| sparse_product                             : 39698      648.96s   1.132%  ------ ||
|| function_ops_brappd_ketppd_spam3           :   284      657.97s   1.148%  ------ ||
|| fourier_interpolate                        :  9292      716.43s   1.250%  ------ ||
|| projectors_func_ovlp_box_spam3             :   286     1005.61s   1.754%  ------ ||
|| integrals_kinetic_spam3                    :   140     1521.91s   2.655%  ------ ||
|| density_fftbox_deposit_to_cell             : 32200     1991.10s   3.473%  ------ ||
|| basis_dot_function_with_box                : 30.95M    2277.09s   3.972%  ------ ||
|| projectors_gradient_batch                  :   280     2429.18s   4.238%  ------ ||
|| edft_calculate                             :     1     2642.70s   4.610%  ------ ||
|| potential_apply_to_ngwf_batch              :  1220     4040.92s   7.049%  ------ ||
|| basis_add_function_to_box                  : 66.39M    5529.91s   9.647%  ------ ||
|| fourier_apply_box                          : 149.1k    5659.40s   9.873%  5.438k ||
|| integrals_locpot_mat_els_batch             :  1220     5931.73s  10.348%  ------ ||
|| fourier_interpolate_product                : 30912     6124.64s  10.684%  ------ ||
|| density_fftbox_interpolate_multiply        : 32200     6377.88s  11.126%  ------ ||
|| projectors_grad_precond_batch              :   140     7077.64s  12.347%  ------ ||
|| integrals_locpot_dbl_grid                  :   610    10005.07s  17.453%  ------ ||
|| ngwf_gradient_build_batch                  :   140    10929.09s  19.065%  ------ ||
|| density_batch_interp_deposit               :  2576    11467.98s  20.005%  ------ ||
|| density_batch_row_sums                     :  2576    12025.65s  20.978%  ------ ||
|| ngwf_gradient_batch                        :   140    15867.04s  27.679%  ------ ||
|| ngwf_gradient_lnv                          :    35    16513.61s  28.807%  ------ ||
|| density_on_dbl_grid                        :  1288    23750.87s  41.432%  ------ ||
|| hamiltonian_lhxc_calculate                 :   640    24945.92s  43.517%  ------ ||
|| lnv_denskernel_optimise_cg                 :    35    31697.61s  55.295%  ------ ||
|| ngwf_cg_optimise                           :     1    53787.24s  93.830%  ------ ||
|| energy_and_forces                          :     1    57308.65s  99.972%  ------ ||
|| total_time                                 :     1    57324.43s 100.000%  ------ ||
======================================================================================
Overhead of generating timer report: 
- 0 ms averaging over threads,
- 11 ms ensuring consistency across MPI ranks,
- 1 ms printing in order.

Job completed: 13-05-2025 08:30 (+0100)

onetep_launcher: ONETEP seems to have finished correctly (zero exit code).
                 Brought to you by PID 27133 on nid001528.
