==================================================================================
It's Mon 28 Apr 2025 12:23:11 PM BST.
*** Starting onetep_launcher (node nid005036, PIDs 53969 53970 53971 53972 53973 53974)...
    - ONETEP arguments: Cr2I6_bilayer_LT_FM_FM_nSP.dat
    - Current directory: /mnt/lustre/a2fs-work3/work/e89/e89/phsmea/CrI3_onetep_U/U_2.97/LT_FM/LT_FM_FM_J/nsp
    - Launcher executable directory: /mnt/lustre/a2fs-work3/work/e89/e89/phsmea/CrI3_onetep_U/U_2.97/LT_FM/LT_FM_FM_J/nsp
    - (-e) ONETEP executable specified through command-line: /work/e89/e89/phsmea/onetep.archer2_2024_cray
      ... trying /work/e89/e89/phsmea/onetep.archer2_2024_cray
          -> looks OK
*** Setting up environment...
    - (-s) Process stack size: unlimited
    - (-t) OMP_NUM_THREADS: 16
    - (-o) OMP_STACKSIZE: 64M
    - (-c) Maximum core file size: 2048000
    - (-d) decfort_dump_flag: n
    - (-m) I_MPI_OFA_TRANSLATION_CACHE: 0
    - (-m) I_MPI_DAPL_TRANSLATION_CACHE: 0
    - (-m) I_MPI_DAPL_UD_TRANSLATION_CACHE: 0
*** Starting ONETEP...
    - /work/e89/e89/phsmea/onetep.archer2_2024_cray Cr2I6_bilayer_LT_FM_FM_nSP.dat
=================================================================================
_________________________________________________________________________________
 +---------------------------------------------------------------+
 |                                                               |
 |        ####### #     # ####### ####### ####### ######         |
 |        #     # ##    # #          #    #       #     #        |
 |        #     # # #   # #          #    #       #     #        |
 |        #     # #  #  # #####      #    #####   ######         |
 |        #     # #   # # #          #    #       #              |
 |        #     # #    ## #          #    #       #              |
 |        ####### #     # #######    #    ####### #              |
 |                                                               |
 |        Linear-Scaling Ab Initio Total Energy Program          |
 |                                                               |
 |          Release for academic collaborators of ODG            |
 |                                             Version 7.3.0     |
 | Remote: git@github.com:Miesaz/onetep_mea.git                  |
 | Local branch: master                                          |
 | Commit ID: 4af45e89288c8df5499704252eec3e032ee3d0c8           |
 | Date: Tue Aug 6 11:28:44 2024 +0100                           |
 | Working tree clean                                            |
 |                                                               |
 +---------------------------------------------------------------+
 |                                                               |
 |  Authors:                                                     |
 |  Jacek Dziedzic, Peter D. Haynes, Nicholas D. M. Hine,        |
 |  Arash A. Mostofi, Mike C. Payne and Chris-Kriton Skylaris    |
 |                                                               |
 |  Contributors:                                                |
 |  J. Aarons, L. Andrinopoulos, P. W. Avraam, R. A. Bell,       |
 |  A. Bhandari, G. A. Bramley, R. J. Charlton, S. J. Clark,     |
 |  R. J. Clements, G. C. Constantinescu, F. Corsetti,           |
 |  N. Corsini, O. Dieguez, S. M. M. Dubois, K. K. B. Duff,      |
 |  J. M. Escartin, M. Escobar Azor, A. Greco,                   |
 |  H. Helal, Q. O. Hill, L. P. Lee, J.-H. Li,                   |
 |  T. Li, E. B. Linscott, G. Moynihan, D. D. O`Regan,           |
 |  O. K. Okan, E. Parkinson, M. J. S. Phipps,                   |
 |  C. J. Pickard, J. C. A. Prentice, M. I. J. Probert,          |
 |  L. E. Ratcliff, M. Robinson, A. Ruiz Serrano,                |
 |  M. dos Santos Dias, J. S. Spencer, E. W. Tait,               |
 |  G. Teobaldi, D. Turban, V. Vitale, K. A. Wilkinson,          |
 |  C. Weber, J. C. Womack, Chengcheng Xiao, N. Yeung,           |
 |  and T. J. Zuehlsdorff.                                       |
 |                                                               |
 |                                   Copyright (c) 2004-2024     |
 |                                                               |
 |  Please cite:                                                 |
 |  "The ONETEP linear-scaling density functional theory program"|
 |   J. Chem. Phys. 152(17) 174111 (2020)                        |
 |                                                               |
 |          in all publications arising from your use of ONETEP. |
 |                                                               |
 +---------------------------------------------------------------+
 |                                                               |
 |   ONETEP is based on developments described in the following  |
 |   publications:                                               |
 |                                                               |
 |  "Nonorthogonal generalized Wannier function pseudopotential  |
 |   plane-wave method".                                         |
 |   C.-K. Skylaris, A. A. Mostofi, P. D. Haynes, O. Dieguez,    |
 |   M. C. Payne.                                                |
 |   Phys. Rev. B 66 035119 (2002).                              |
 |                                                               |
 |  "Preconditioned iterative minimization for linear-scaling    |
 |   electronic structure calculations".                         |
 |   A. A. Mostofi, P. D. Haynes, C.-K. Skylaris, M. C. Payne.   |
 |   J. Chem. Phys. 119(17), pp.8842-8848 (2003).                |
 |                                                               |
 |  "Total-energy calculations on a real space grid with         |
 |   localized functions and a plane-wave basis".                |
 |   A. A. Mostofi, C.-K. Skylaris, P. D. Haynes, M. C. Payne.   |
 |   Comput. Phys. Commun. 147, pp.788-802 (2002).               |
 |                                                               |
 |  "Accurate kinetic energy evaluation in electronic structure  |
 |   calculations with localized functions on real space grids"  |
 |   C.-K. Skylaris, A. A. Mostofi, P. D. Haynes, C. J. Pickard, |
 |   M. C. Payne.                                                |
 |   Comput. Phys. Commun. 140, pp.315-322 (2001).               |
 |                                                               |
 |  "Accurate ionic forces and geometry optimization in linear-  |
 |   scaling density-functional theory with local orbitals"      |
 |   N. D. M. Hine, M. Robinson, P. D. Haynes, C.-K. Skylaris,   |
 |   M. C. Payne, and A. A. Mostofi.                             |
 |   Phys. Rev. B 83 195102 (2011).                              |
 |                                                               |
 +---------------------------------------------------------------+

Job started: 28-04-2025 12:23 (+0100)
 
Reading parameters from file "Cr2I6_bilayer_LT_FM_FM_nSP.dat" ...... done

If your calculation crashes here, before "Checking processes and threads..."
is displayed, then your stack size is insufficient.
If so, use "ulimit -s unlimited" at runtime.
You can disable this check with "check_stack_size F".

Checking processes and threads...
      Default threads: 16
   Running with 150 MPI processes.
   There are 6 MPI processes running on the same node as the root process.
   Each MPI process is using: 
               1 threads for simulation cell FFTs.
               1 threads for threaded FFT box operations.
              16 threads for loops over batched FFT box operations.
              16 threads in other parallel regions.
   MPI Interface: S1 (use mpi_f08) (-DMPI -DUSE_MPI_F08).
   MPI_ASYNC_PROTECTS_NONBLOCKING: Yes. MPI_SUBARRAYS_SUPPORTED: Yes.
   FFTW Interface: OMP-capable and MODERN. (-DUSE_MODERN_FFTW specified).
   GPU Interface: None.
   GPU FFT Backend: None.
... done

Basic input checks...... done

Reading geometry and species blocks from file "Cr2I6_bilayer_LT_FM_FM_nSP.dat" ...... done


--------------------------------------------------------------------------------
---------------------------------- INPUT FILE ----------------------------------
--------------------------------------------------------------------------------

charge : 0                                                                      
cutoff_energy : 1000 eV                                                         
delta_e_conv : F                                                                
do_properties : T                                                               
edft : F                                                                        
edft_init_maxit : 15                                                            
elec_energy_tol : 1e-07 Ha                                                      
fine_grid_scale : 4                                                             
forces_output_detail : VERBOSE                                                  
MAXIT_LNV     : 15                                                              
MINIT_LNV     : 5                                                               
maxit_ngwf_cg : 100                                                             
ngwf_threshold_orig : 1e-06                                                     
ngwfs_spin_polarized : F                                                        
output_detail : NORMAL                                                          
paw : T                                                                         
read_denskern : F                                                               
read_hamiltonian : F                                                            
read_tightbox_ngwfs : F                                                         
spin : 432                                                                      
spin_polarized : T                                                              
task : SinglePoint                                                              
write_denskern : T                                                              
write_forces : T                                                                
write_hamiltonian : T                                                           
write_tightbox_ngwfs : T                                                        
xc_functional : PBE                                                             
%BLOCK LATTICE_CART                                                             
ang                                                                             
41.261892132    0.000000000    0.000000000                                      
-20.630946066   35.733846792    0.000000000                                     
0.000000000    0.000000000   27.507928088                                       
%ENDBLOCK LATTICE_CART                                                          
%BLOCK POSITIONS_ABS                                                            
ang                                                                             
Cr       2.29230603       3.97040895      17.03520929                           
Cr      -1.14615438       5.95565340      17.04368562                           
I        3.29127824       1.97929933      15.50172901                           
I        0.06846335       4.10088269      15.50172980                           
I       -3.35976942       5.83112629      15.50174515                           
I        1.29815293       1.98813153      18.57647573                           
I        1.07268127       5.82255136      18.57647595                           
I       -2.37086124       4.10061929      18.57646027                           
Cr       5.73080703       1.98523473      10.46423698                           
Cr       2.29229229       3.97042256      10.47271549                           
I        6.72497778      -0.00289519       8.93147663                           
I        3.51196949       2.11831465       8.93145308                           
I        0.07849930       3.84024628       8.93144278                           
I        4.73186155       0.00594958      12.00619783                           
I        4.51617900       3.83998833      12.00619302                           
I        1.06740595       2.10972815      12.00620106                           
Cr      -1.14618498       9.92605008      17.03520929                           
Cr      -4.58464539      11.91129453      17.04368562                           
I       -0.14721277       7.93494046      15.50172901                           
I       -3.37002766      10.05652383      15.50172980                           
I       -6.79826043      11.78676742      15.50174515                           
I       -2.14033808       7.94377266      18.57647573                           
I       -2.36580974      11.77819249      18.57647595                           
I       -5.80935225      10.05626043      18.57646027                           
Cr       2.29231601       7.94087586      10.46423698                           
Cr      -1.14619872       9.92606369      10.47271549                           
I        3.28648677       5.95274594       8.93147663                           
I        0.07347848       8.07395578       8.93145308                           
I       -3.35999171       9.79588741       8.93144278                           
I        1.29337054       5.96159071      12.00619783                           
I        1.07768799       9.79562946      12.00619302                           
I       -2.37108506       8.06536928      12.00620106                           
Cr      -4.58467600      15.88169122      17.03520929                           
Cr      -8.02313640      17.86693567      17.04368562                           
I       -3.58570378      13.89058160      15.50172901                           
I       -6.80851867      16.01216496      15.50172980                           
I      -10.23675144      17.74240855      15.50174515                           
I       -5.57882909      13.89941380      18.57647573                           
I       -5.80430075      17.73383362      18.57647595                           
I       -9.24784326      16.01190156      18.57646027                           
Cr      -1.14617500      13.89651700      10.46423698                           
Cr      -4.58468973      15.88170482      10.47271549                           
I       -0.15200424      11.90838708       8.93147663                           
I       -3.36501253      14.02959691       8.93145308                           
I       -6.79848272      15.75152855       8.93144278                           
I       -2.14512047      11.91723184      12.00619783                           
I       -2.36080302      15.75127059      12.00619302                           
I       -5.80957607      14.02101041      12.00620106                           
Cr      -8.02316701      21.83733235      17.03520929                           
Cr     -11.46162741      23.82257680      17.04368562                           
I       -7.02419479      19.84622273      15.50172901                           
I      -10.24700968      21.96780609      15.50172980                           
I      -13.67524245      23.69804968      15.50174515                           
I       -9.01732010      19.85505493      18.57647573                           
I       -9.24279176      23.68947476      18.57647595                           
I      -12.68633427      21.96754269      18.57646027                           
Cr      -4.58466601      19.85215813      10.46423698                           
Cr      -8.02318074      21.83734595      10.47271549                           
I       -3.59049526      17.86402821       8.93147663                           
I       -6.80350354      19.98523804       8.93145308                           
I      -10.23697373      21.70716968       8.93144278                           
I       -5.58361148      17.87287297      12.00619783                           
I       -5.79929403      21.70691172      12.00619302                           
I       -9.24806708      19.97665154      12.00620106                           
Cr     -11.46165802      27.79297348      17.03520929                           
Cr     -14.90011843      29.77821793      17.04368562                           
I      -10.46268580      25.80186386      15.50172901                           
I      -13.68550069      27.92344722      15.50172980                           
I      -17.11373346      29.65369082      15.50174515                           
I      -12.45581112      25.81069606      18.57647573                           
I      -12.68128277      29.64511589      18.57647595                           
I      -16.12482528      27.92318382      18.57646027                           
Cr      -8.02315702      25.80779926      10.46423698                           
Cr     -11.46167176      27.79298708      10.47271549                           
I       -7.02898627      23.81966934       8.93147663                           
I      -10.24199455      25.94087917       8.93145308                           
I      -13.67546474      27.66281081       8.93144278                           
I       -9.02210249      23.82851411      12.00619783                           
I       -9.23778504      27.66255286      12.00619302                           
I      -12.68655809      25.93229268      12.00620106                           
Cr     -14.90014903      33.74861461      17.03520929                           
Cr     -18.33860944      35.73385906      17.04368562                           
I      -13.90117681      31.75750499      15.50172901                           
I      -17.12399170      33.87908835      15.50172980                           
I      -20.55222447      35.60933195      15.50174515                           
I      -15.89430213      31.76633719      18.57647573                           
I      -16.11977378      35.60075702      18.57647595                           
I      -19.56331629      33.87882495      18.57646027                           
Cr     -11.46164803      31.76344039      10.46423698                           
Cr     -14.90016277      33.74862822      10.47271549                           
I      -10.46747728      29.77531047       8.93147663                           
I      -13.68048556      31.89652031       8.93145308                           
I      -17.11395575      33.61845194       8.93144278                           
I      -12.46059350      29.78415524      12.00619783                           
I      -12.67627606      33.61819399      12.00619302                           
I      -16.12504910      31.88793381      12.00620106                           
Cr       9.16928805       3.97040895      17.03520929                           
Cr       5.73082764       5.95565340      17.04368562                           
I       10.16826026       1.97929933      15.50172901                           
I        6.94544538       4.10088269      15.50172980                           
I        3.51721261       5.83112629      15.50174515                           
I        8.17513495       1.98813153      18.57647573                           
I        7.94966330       5.82255136      18.57647595                           
I        4.50612079       4.10061929      18.57646027                           
Cr      12.60778905       1.98523473      10.46423698                           
Cr       9.16927431       3.97042256      10.47271549                           
I       13.60195980      -0.00289519       8.93147663                           
I       10.38895151       2.11831465       8.93145308                           
I        6.95548132       3.84024628       8.93144278                           
I       11.60884358       0.00594958      12.00619783                           
I       11.39316102       3.83998833      12.00619302                           
I        7.94438798       2.10972815      12.00620106                           
Cr       5.73079704       9.92605008      17.03520929                           
Cr       2.29233663      11.91129453      17.04368562                           
I        6.72976925       7.93494046      15.50172901                           
I        3.50695437      10.05652383      15.50172980                           
I        0.07872159      11.78676742      15.50174515                           
I        4.73664394       7.94377266      18.57647573                           
I        4.51117228      11.77819249      18.57647595                           
I        1.06762977      10.05626043      18.57646027                           
Cr       9.16929804       7.94087586      10.46423698                           
Cr       5.73078330       9.92606369      10.47271549                           
I       10.16346879       5.95274594       8.93147663                           
I        6.95046050       8.07395578       8.93145308                           
I        3.51699031       9.79588741       8.93144278                           
I        8.17035256       5.96159071      12.00619783                           
I        7.95467001       9.79562946      12.00619302                           
I        4.50589697       8.06536928      12.00620106                           
Cr       2.29230603      15.88169122      17.03520929                           
Cr      -1.14615438      17.86693567      17.04368562                           
I        3.29127824      13.89058160      15.50172901                           
I        0.06846335      16.01216496      15.50172980                           
I       -3.35976942      17.74240855      15.50174515                           
I        1.29815293      13.89941380      18.57647573                           
I        1.07268127      17.73383362      18.57647595                           
I       -2.37086124      16.01190156      18.57646027                           
Cr       5.73080703      13.89651700      10.46423698                           
Cr       2.29229229      15.88170482      10.47271549                           
I        6.72497778      11.90838708       8.93147663                           
I        3.51196949      14.02959691       8.93145308                           
I        0.07849930      15.75152855       8.93144278                           
I        4.73186155      11.91723184      12.00619783                           
I        4.51617900      15.75127059      12.00619302                           
I        1.06740595      14.02101041      12.00620106                           
Cr      -1.14618498      21.83733235      17.03520929                           
Cr      -4.58464539      23.82257680      17.04368562                           
I       -0.14721277      19.84622273      15.50172901                           
I       -3.37002766      21.96780609      15.50172980                           
I       -6.79826043      23.69804968      15.50174515                           
I       -2.14033808      19.85505493      18.57647573                           
I       -2.36580974      23.68947476      18.57647595                           
I       -5.80935225      21.96754269      18.57646027                           
Cr       2.29231601      19.85215813      10.46423698                           
Cr      -1.14619872      21.83734595      10.47271549                           
I        3.28648677      17.86402821       8.93147663                           
I        0.07347848      19.98523804       8.93145308                           
I       -3.35999171      21.70716968       8.93144278                           
I        1.29337054      17.87287297      12.00619783                           
I        1.07768799      21.70691172      12.00619302                           
I       -2.37108506      19.97665154      12.00620106                           
Cr      -4.58467600      27.79297348      17.03520929                           
Cr      -8.02313640      29.77821793      17.04368562                           
I       -3.58570378      25.80186386      15.50172901                           
I       -6.80851867      27.92344722      15.50172980                           
I      -10.23675144      29.65369082      15.50174515                           
I       -5.57882909      25.81069606      18.57647573                           
I       -5.80430075      29.64511589      18.57647595                           
I       -9.24784326      27.92318382      18.57646027                           
Cr      -1.14617500      25.80779926      10.46423698                           
Cr      -4.58468973      27.79298708      10.47271549                           
I       -0.15200424      23.81966934       8.93147663                           
I       -3.36501253      25.94087917       8.93145308                           
I       -6.79848272      27.66281081       8.93144278                           
I       -2.14512047      23.82851411      12.00619783                           
I       -2.36080302      27.66255286      12.00619302                           
I       -5.80957607      25.93229268      12.00620106                           
Cr      -8.02316701      33.74861461      17.03520929                           
Cr     -11.46162741      35.73385906      17.04368562                           
I       -7.02419479      31.75750499      15.50172901                           
I      -10.24700968      33.87908835      15.50172980                           
I      -13.67524245      35.60933195      15.50174515                           
I       -9.01732010      31.76633719      18.57647573                           
I       -9.24279176      35.60075702      18.57647595                           
I      -12.68633427      33.87882495      18.57646027                           
Cr      -4.58466601      31.76344039      10.46423698                           
Cr      -8.02318074      33.74862822      10.47271549                           
I       -3.59049526      29.77531047       8.93147663                           
I       -6.80350354      31.89652031       8.93145308                           
I      -10.23697373      33.61845194       8.93144278                           
I       -5.58361148      29.78415524      12.00619783                           
I       -5.79929403      33.61819399      12.00619302                           
I       -9.24806708      31.88793381      12.00620106                           
Cr      16.04627007       3.97040895      17.03520929                           
Cr      12.60780966       5.95565340      17.04368562                           
I       17.04524228       1.97929933      15.50172901                           
I       13.82242740       4.10088269      15.50172980                           
I       10.39419463       5.83112629      15.50174515                           
I       15.05211697       1.98813153      18.57647573                           
I       14.82664532       5.82255136      18.57647595                           
I       11.38310281       4.10061929      18.57646027                           
Cr      19.48477107       1.98523473      10.46423698                           
Cr      16.04625633       3.97042256      10.47271549                           
I       20.47894182      -0.00289519       8.93147663                           
I       17.26593353       2.11831465       8.93145308                           
I       13.83246335       3.84024628       8.93144278                           
I       18.48582560       0.00594958      12.00619783                           
I       18.27014304       3.83998833      12.00619302                           
I       14.82137000       2.10972815      12.00620106                           
Cr      12.60777906       9.92605008      17.03520929                           
Cr       9.16931865      11.91129453      17.04368562                           
I       13.60675127       7.93494046      15.50172901                           
I       10.38393639      10.05652383      15.50172980                           
I        6.95570362      11.78676742      15.50174515                           
I       11.61362596       7.94377266      18.57647573                           
I       11.38815431      11.77819249      18.57647595                           
I        7.94461180      10.05626043      18.57646027                           
Cr      16.04628006       7.94087586      10.46423698                           
Cr      12.60776532       9.92606369      10.47271549                           
I       17.04045081       5.95274594       8.93147663                           
I       13.82744252       8.07395578       8.93145308                           
I       10.39397233       9.79588741       8.93144278                           
I       15.04733459       5.96159071      12.00619783                           
I       14.83165203       9.79562946      12.00619302                           
I       11.38287899       8.06536928      12.00620106                           
Cr       9.16928805      15.88169122      17.03520929                           
Cr       5.73082764      17.86693567      17.04368562                           
I       10.16826026      13.89058160      15.50172901                           
I        6.94544538      16.01216496      15.50172980                           
I        3.51721261      17.74240855      15.50174515                           
I        8.17513495      13.89941380      18.57647573                           
I        7.94966330      17.73383362      18.57647595                           
I        4.50612079      16.01190156      18.57646027                           
Cr      12.60778905      13.89651700      10.46423698                           
Cr       9.16927431      15.88170482      10.47271549                           
I       13.60195980      11.90838708       8.93147663                           
I       10.38895151      14.02959691       8.93145308                           
I        6.95548132      15.75152855       8.93144278                           
I       11.60884358      11.91723184      12.00619783                           
I       11.39316102      15.75127059      12.00619302                           
I        7.94438798      14.02101041      12.00620106                           
Cr       5.73079704      21.83733235      17.03520929                           
Cr       2.29233663      23.82257680      17.04368562                           
I        6.72976925      19.84622273      15.50172901                           
I        3.50695437      21.96780609      15.50172980                           
I        0.07872159      23.69804968      15.50174515                           
I        4.73664394      19.85505493      18.57647573                           
I        4.51117228      23.68947476      18.57647595                           
I        1.06762977      21.96754269      18.57646027                           
Cr       9.16929804      19.85215813      10.46423698                           
Cr       5.73078330      21.83734595      10.47271549                           
I       10.16346879      17.86402821       8.93147663                           
I        6.95046050      19.98523804       8.93145308                           
I        3.51699031      21.70716968       8.93144278                           
I        8.17035256      17.87287297      12.00619783                           
I        7.95467001      21.70691172      12.00619302                           
I        4.50589697      19.97665154      12.00620106                           
Cr       2.29230603      27.79297348      17.03520929                           
Cr      -1.14615438      29.77821793      17.04368562                           
I        3.29127824      25.80186386      15.50172901                           
I        0.06846335      27.92344722      15.50172980                           
I       -3.35976942      29.65369082      15.50174515                           
I        1.29815293      25.81069606      18.57647573                           
I        1.07268127      29.64511589      18.57647595                           
I       -2.37086124      27.92318382      18.57646027                           
Cr       5.73080703      25.80779926      10.46423698                           
Cr       2.29229229      27.79298708      10.47271549                           
I        6.72497778      23.81966934       8.93147663                           
I        3.51196949      25.94087917       8.93145308                           
I        0.07849930      27.66281081       8.93144278                           
I        4.73186155      23.82851411      12.00619783                           
I        4.51617900      27.66255286      12.00619302                           
I        1.06740595      25.93229268      12.00620106                           
Cr      -1.14618498      33.74861461      17.03520929                           
Cr      -4.58464539      35.73385906      17.04368562                           
I       -0.14721277      31.75750499      15.50172901                           
I       -3.37002766      33.87908835      15.50172980                           
I       -6.79826043      35.60933195      15.50174515                           
I       -2.14033808      31.76633719      18.57647573                           
I       -2.36580974      35.60075702      18.57647595                           
I       -5.80935225      33.87882495      18.57646027                           
Cr       2.29231601      31.76344039      10.46423698                           
Cr      -1.14619872      33.74862822      10.47271549                           
I        3.28648677      29.77531047       8.93147663                           
I        0.07347848      31.89652031       8.93145308                           
I       -3.35999171      33.61845194       8.93144278                           
I        1.29337054      29.78415524      12.00619783                           
I        1.07768799      33.61819399      12.00619302                           
I       -2.37108506      31.88793381      12.00620106                           
Cr      22.92325209       3.97040895      17.03520929                           
Cr      19.48479168       5.95565340      17.04368562                           
I       23.92222431       1.97929933      15.50172901                           
I       20.69940942       4.10088269      15.50172980                           
I       17.27117665       5.83112629      15.50174515                           
I       21.92909899       1.98813153      18.57647573                           
I       21.70362734       5.82255136      18.57647595                           
I       18.26008483       4.10061929      18.57646027                           
Cr      26.36175309       1.98523473      10.46423698                           
Cr      22.92323835       3.97042256      10.47271549                           
I       27.35592384      -0.00289519       8.93147663                           
I       24.14291556       2.11831465       8.93145308                           
I       20.70944537       3.84024628       8.93144278                           
I       25.36280762       0.00594958      12.00619783                           
I       25.14712507       3.83998833      12.00619302                           
I       21.69835202       2.10972815      12.00620106                           
Cr      19.48476108       9.92605008      17.03520929                           
Cr      16.04630067      11.91129453      17.04368562                           
I       20.48373330       7.93494046      15.50172901                           
I       17.26091841      10.05652383      15.50172980                           
I       13.83268564      11.78676742      15.50174515                           
I       18.49060798       7.94377266      18.57647573                           
I       18.26513633      11.77819249      18.57647595                           
I       14.82159382      10.05626043      18.57646027                           
Cr      22.92326208       7.94087586      10.46423698                           
Cr      19.48474734       9.92606369      10.47271549                           
I       23.91743283       5.95274594       8.93147663                           
I       20.70442455       8.07395578       8.93145308                           
I       17.27095436       9.79588741       8.93144278                           
I       21.92431661       5.96159071      12.00619783                           
I       21.70863405       9.79562946      12.00619302                           
I       18.25986101       8.06536928      12.00620106                           
Cr      16.04627007      15.88169122      17.03520929                           
Cr      12.60780966      17.86693567      17.04368562                           
I       17.04524228      13.89058160      15.50172901                           
I       13.82242740      16.01216496      15.50172980                           
I       10.39419463      17.74240855      15.50174515                           
I       15.05211697      13.89941380      18.57647573                           
I       14.82664532      17.73383362      18.57647595                           
I       11.38310281      16.01190156      18.57646027                           
Cr      19.48477107      13.89651700      10.46423698                           
Cr      16.04625633      15.88170482      10.47271549                           
I       20.47894182      11.90838708       8.93147663                           
I       17.26593353      14.02959691       8.93145308                           
I       13.83246335      15.75152855       8.93144278                           
I       18.48582560      11.91723184      12.00619783                           
I       18.27014304      15.75127059      12.00619302                           
I       14.82137000      14.02101041      12.00620106                           
Cr      12.60777906      21.83733235      17.03520929                           
Cr       9.16931865      23.82257680      17.04368562                           
I       13.60675127      19.84622273      15.50172901                           
I       10.38393639      21.96780609      15.50172980                           
I        6.95570362      23.69804968      15.50174515                           
I       11.61362596      19.85505493      18.57647573                           
I       11.38815431      23.68947476      18.57647595                           
I        7.94461180      21.96754269      18.57646027                           
Cr      16.04628006      19.85215813      10.46423698                           
Cr      12.60776532      21.83734595      10.47271549                           
I       17.04045081      17.86402821       8.93147663                           
I       13.82744252      19.98523804       8.93145308                           
I       10.39397233      21.70716968       8.93144278                           
I       15.04733459      17.87287297      12.00619783                           
I       14.83165203      21.70691172      12.00619302                           
I       11.38287899      19.97665154      12.00620106                           
Cr       9.16928805      27.79297348      17.03520929                           
Cr       5.73082764      29.77821793      17.04368562                           
I       10.16826026      25.80186386      15.50172901                           
I        6.94544538      27.92344722      15.50172980                           
I        3.51721261      29.65369082      15.50174515                           
I        8.17513495      25.81069606      18.57647573                           
I        7.94966330      29.64511589      18.57647595                           
I        4.50612079      27.92318382      18.57646027                           
Cr      12.60778905      25.80779926      10.46423698                           
Cr       9.16927431      27.79298708      10.47271549                           
I       13.60195980      23.81966934       8.93147663                           
I       10.38895151      25.94087917       8.93145308                           
I        6.95548132      27.66281081       8.93144278                           
I       11.60884358      23.82851411      12.00619783                           
I       11.39316102      27.66255286      12.00619302                           
I        7.94438798      25.93229268      12.00620106                           
Cr       5.73079704      33.74861461      17.03520929                           
Cr       2.29233663      35.73385906      17.04368562                           
I        6.72976925      31.75750499      15.50172901                           
I        3.50695437      33.87908835      15.50172980                           
I        0.07872159      35.60933195      15.50174515                           
I        4.73664394      31.76633719      18.57647573                           
I        4.51117228      35.60075702      18.57647595                           
I        1.06762977      33.87882495      18.57646027                           
Cr       9.16929804      31.76344039      10.46423698                           
Cr       5.73078330      33.74862822      10.47271549                           
I       10.16346879      29.77531047       8.93147663                           
I        6.95046050      31.89652031       8.93145308                           
I        3.51699031      33.61845194       8.93144278                           
I        8.17035256      29.78415524      12.00619783                           
I        7.95467001      33.61819399      12.00619302                           
I        4.50589697      31.88793381      12.00620106                           
Cr      29.80023411       3.97040895      17.03520929                           
Cr      26.36177371       5.95565340      17.04368562                           
I       30.79920633       1.97929933      15.50172901                           
I       27.57639144       4.10088269      15.50172980                           
I       24.14815867       5.83112629      15.50174515                           
I       28.80608102       1.98813153      18.57647573                           
I       28.58060936       5.82255136      18.57647595                           
I       25.13706685       4.10061929      18.57646027                           
Cr      33.23873511       1.98523473      10.46423698                           
Cr      29.80022038       3.97042256      10.47271549                           
I       34.23290587      -0.00289519       8.93147663                           
I       31.01989758       2.11831465       8.93145308                           
I       27.58642739       3.84024628       8.93144278                           
I       32.23978964       0.00594958      12.00619783                           
I       32.02410709       3.83998833      12.00619302                           
I       28.57533404       2.10972815      12.00620106                           
Cr      26.36174310       9.92605008      17.03520929                           
Cr      22.92328270      11.91129453      17.04368562                           
I       27.36071532       7.93494046      15.50172901                           
I       24.13790043      10.05652383      15.50172980                           
I       20.70966766      11.78676742      15.50174515                           
I       25.36759001       7.94377266      18.57647573                           
I       25.14211835      11.77819249      18.57647595                           
I       21.69857584      10.05626043      18.57646027                           
Cr      29.80024410       7.94087586      10.46423698                           
Cr      26.36172937       9.92606369      10.47271549                           
I       30.79441485       5.95274594       8.93147663                           
I       27.58140657       8.07395578       8.93145308                           
I       24.14793638       9.79588741       8.93144278                           
I       28.80129863       5.96159071      12.00619783                           
I       28.58561608       9.79562946      12.00619302                           
I       25.13684303       8.06536928      12.00620106                           
Cr      22.92325209      15.88169122      17.03520929                           
Cr      19.48479168      17.86693567      17.04368562                           
I       23.92222431      13.89058160      15.50172901                           
I       20.69940942      16.01216496      15.50172980                           
I       17.27117665      17.74240855      15.50174515                           
I       21.92909899      13.89941380      18.57647573                           
I       21.70362734      17.73383362      18.57647595                           
I       18.26008483      16.01190156      18.57646027                           
Cr      26.36175309      13.89651700      10.46423698                           
Cr      22.92323835      15.88170482      10.47271549                           
I       27.35592384      11.90838708       8.93147663                           
I       24.14291556      14.02959691       8.93145308                           
I       20.70944537      15.75152855       8.93144278                           
I       25.36280762      11.91723184      12.00619783                           
I       25.14712507      15.75127059      12.00619302                           
I       21.69835202      14.02101041      12.00620106                           
Cr      19.48476108      21.83733235      17.03520929                           
Cr      16.04630067      23.82257680      17.04368562                           
I       20.48373330      19.84622273      15.50172901                           
I       17.26091841      21.96780609      15.50172980                           
I       13.83268564      23.69804968      15.50174515                           
I       18.49060798      19.85505493      18.57647573                           
I       18.26513633      23.68947476      18.57647595                           
I       14.82159382      21.96754269      18.57646027                           
Cr      22.92326208      19.85215813      10.46423698                           
Cr      19.48474734      21.83734595      10.47271549                           
I       23.91743283      17.86402821       8.93147663                           
I       20.70442455      19.98523804       8.93145308                           
I       17.27095436      21.70716968       8.93144278                           
I       21.92431661      17.87287297      12.00619783                           
I       21.70863405      21.70691172      12.00619302                           
I       18.25986101      19.97665154      12.00620106                           
Cr      16.04627007      27.79297348      17.03520929                           
Cr      12.60780966      29.77821793      17.04368562                           
I       17.04524228      25.80186386      15.50172901                           
I       13.82242740      27.92344722      15.50172980                           
I       10.39419463      29.65369082      15.50174515                           
I       15.05211697      25.81069606      18.57647573                           
I       14.82664532      29.64511589      18.57647595                           
I       11.38310281      27.92318382      18.57646027                           
Cr      19.48477107      25.80779926      10.46423698                           
Cr      16.04625633      27.79298708      10.47271549                           
I       20.47894182      23.81966934       8.93147663                           
I       17.26593353      25.94087917       8.93145308                           
I       13.83246335      27.66281081       8.93144278                           
I       18.48582560      23.82851411      12.00619783                           
I       18.27014304      27.66255286      12.00619302                           
I       14.82137000      25.93229268      12.00620106                           
Cr      12.60777906      33.74861461      17.03520929                           
Cr       9.16931865      35.73385906      17.04368562                           
I       13.60675127      31.75750499      15.50172901                           
I       10.38393639      33.87908835      15.50172980                           
I        6.95570362      35.60933195      15.50174515                           
I       11.61362596      31.76633719      18.57647573                           
I       11.38815431      35.60075702      18.57647595                           
I        7.94461180      33.87882495      18.57646027                           
Cr      16.04628006      31.76344039      10.46423698                           
Cr      12.60776532      33.74862822      10.47271549                           
I       17.04045081      29.77531047       8.93147663                           
I       13.82744252      31.89652031       8.93145308                           
I       10.39397233      33.61845194       8.93144278                           
I       15.04733459      29.78415524      12.00619783                           
I       14.83165203      33.61819399      12.00619302                           
I       11.38287899      31.88793381      12.00620106                           
Cr      36.67721614       3.97040895      17.03520929                           
Cr      33.23875573       5.95565340      17.04368562                           
I       37.67618835       1.97929933      15.50172901                           
I       34.45337346       4.10088269      15.50172980                           
I       31.02514069       5.83112629      15.50174515                           
I       35.68306304       1.98813153      18.57647573                           
I       35.45759138       5.82255136      18.57647595                           
I       32.01404887       4.10061929      18.57646027                           
Cr      40.11571714       1.98523473      10.46423698                           
Cr      36.67720240       3.97042256      10.47271549                           
I       41.10988789      -0.00289519       8.93147663                           
I       37.89687960       2.11831465       8.93145308                           
I       34.46340941       3.84024628       8.93144278                           
I       39.11677166       0.00594958      12.00619783                           
I       38.90108911       3.83998833      12.00619302                           
I       35.45231606       2.10972815      12.00620106                           
Cr      33.23872513       9.92605008      17.03520929                           
Cr      29.80026472      11.91129453      17.04368562                           
I       34.23769734       7.93494046      15.50172901                           
I       31.01488245      10.05652383      15.50172980                           
I       27.58664968      11.78676742      15.50174515                           
I       32.24457203       7.94377266      18.57647573                           
I       32.01910037      11.77819249      18.57647595                           
I       28.57555786      10.05626043      18.57646027                           
Cr      36.67722612       7.94087586      10.46423698                           
Cr      33.23871139       9.92606369      10.47271549                           
I       37.67139688       5.95274594       8.93147663                           
I       34.45838859       8.07395578       8.93145308                           
I       31.02491840       9.79588741       8.93144278                           
I       35.67828065       5.96159071      12.00619783                           
I       35.46259810       9.79562946      12.00619302                           
I       32.01382505       8.06536928      12.00620106                           
Cr      29.80023411      15.88169122      17.03520929                           
Cr      26.36177371      17.86693567      17.04368562                           
I       30.79920633      13.89058160      15.50172901                           
I       27.57639144      16.01216496      15.50172980                           
I       24.14815867      17.74240855      15.50174515                           
I       28.80608102      13.89941380      18.57647573                           
I       28.58060936      17.73383362      18.57647595                           
I       25.13706685      16.01190156      18.57646027                           
Cr      33.23873511      13.89651700      10.46423698                           
Cr      29.80022038      15.88170482      10.47271549                           
I       34.23290587      11.90838708       8.93147663                           
I       31.01989758      14.02959691       8.93145308                           
I       27.58642739      15.75152855       8.93144278                           
I       32.23978964      11.91723184      12.00619783                           
I       32.02410709      15.75127059      12.00619302                           
I       28.57533404      14.02101041      12.00620106                           
Cr      26.36174310      21.83733235      17.03520929                           
Cr      22.92328270      23.82257680      17.04368562                           
I       27.36071532      19.84622273      15.50172901                           
I       24.13790043      21.96780609      15.50172980                           
I       20.70966766      23.69804968      15.50174515                           
I       25.36759001      19.85505493      18.57647573                           
I       25.14211835      23.68947476      18.57647595                           
I       21.69857584      21.96754269      18.57646027                           
Cr      29.80024410      19.85215813      10.46423698                           
Cr      26.36172937      21.83734595      10.47271549                           
I       30.79441485      17.86402821       8.93147663                           
I       27.58140657      19.98523804       8.93145308                           
I       24.14793638      21.70716968       8.93144278                           
I       28.80129863      17.87287297      12.00619783                           
I       28.58561608      21.70691172      12.00619302                           
I       25.13684303      19.97665154      12.00620106                           
Cr      22.92325209      27.79297348      17.03520929                           
Cr      19.48479168      29.77821793      17.04368562                           
I       23.92222431      25.80186386      15.50172901                           
I       20.69940942      27.92344722      15.50172980                           
I       17.27117665      29.65369082      15.50174515                           
I       21.92909899      25.81069606      18.57647573                           
I       21.70362734      29.64511589      18.57647595                           
I       18.26008483      27.92318382      18.57646027                           
Cr      26.36175309      25.80779926      10.46423698                           
Cr      22.92323835      27.79298708      10.47271549                           
I       27.35592384      23.81966934       8.93147663                           
I       24.14291556      25.94087917       8.93145308                           
I       20.70944537      27.66281081       8.93144278                           
I       25.36280762      23.82851411      12.00619783                           
I       25.14712507      27.66255286      12.00619302                           
I       21.69835202      25.93229268      12.00620106                           
Cr      19.48476108      33.74861461      17.03520929                           
Cr      16.04630067      35.73385906      17.04368562                           
I       20.48373330      31.75750499      15.50172901                           
I       17.26091841      33.87908835      15.50172980                           
I       13.83268564      35.60933195      15.50174515                           
I       18.49060798      31.76633719      18.57647573                           
I       18.26513633      35.60075702      18.57647595                           
I       14.82159382      33.87882495      18.57646027                           
Cr      22.92326208      31.76344039      10.46423698                           
Cr      19.48474734      33.74862822      10.47271549                           
I       23.91743283      29.77531047       8.93147663                           
I       20.70442455      31.89652031       8.93145308                           
I       17.27095436      33.61845194       8.93144278                           
I       21.92431661      29.78415524      12.00619783                           
I       21.70863405      33.61819399      12.00619302                           
I       18.25986101      31.88793381      12.00620106                           
%ENDBLOCK POSITIONS_ABS                                                         
%BLOCK SPECIES                                                                  
Cr Cr 24 -1 15                                                                  
I   I  53 -1 15                                                                 
%ENDBLOCK SPECIES                                                               
%BLOCK SPECIES_ATOMIC_SET                                                       
Cr "SOLVE INIT SPIN=3"                                                          
I   "SOLVE"                                                                     
%ENDBLOCK SPECIES_ATOMIC_SET                                                    
%BLOCK HUBBARD                                                                  
Cr  2 2.97 0.37 -10.0 0.00 0.0                                                  
%ENDBLOCK HUBBARD                                                               
%BLOCK SPECIES_LDOS_GROUPS                                                      
Cr                                                                              
I                                                                               
%ENDBLOCK SPECIES_LDOS_GROUPS                                                   
%BLOCK SPECIES_POT                                                              
Cr  "../../../../Cr.PBE-paw.abinit"                                             
I   "../../../../I.PBE-paw.abinit"                                              
%ENDBLOCK SPECIES_POT                                                           

--------------------------------------------------------------------------------
-------------------------------- END INPUT FILE --------------------------------
--------------------------------------------------------------------------------


 
 ESDF WARNING(1): "charge" (esdf_physical) has no units. Assume "e".
<<<<<<<<<<<<<<<<<<<<<<<<<<<<<<<<< Full system >>>>>>>>>>>>>>>>>>>>>>>>>>>>>>>>>>
<<<<<<<<<<<<<<<<<<<<<<<<<<< PAW Dataset information >>>>>>>>>>>>>>>>>>>>>>>>>>>
File: ../../../../Cr.PBE-paw.abinit; rc = 2.11 bohr; shape type =  2; rshape = 1.80 bohr;
  Atomic number: 24;  ionic charge: 14.000000
    Partial Wave 1: l = 0
    Partial Wave 2: l = 0
    Partial Wave 3: l = 1
    Partial Wave 4: l = 1
    Partial Wave 5: l = 2
    Partial Wave 6: l = 2
  Core charge supplied for Nonlinear Core Corrections
File: ../../../../I.PBE-paw.abinit; rc = 2.30 bohr; shape type =  2; rshape = 2.11 bohr;
  Atomic number: 53;  ionic charge:  7.000000
    Partial Wave 1: l = 0
    Partial Wave 2: l = 0
    Partial Wave 3: l = 1
    Partial Wave 4: l = 1
  Core charge supplied for Nonlinear Core Corrections
<<<<<<<<<<<<<<<<<<<<<<<<<<<<<<<<<<<<<<< >>>>>>>>>>>>>>>>>>>>>>>>>>>>>>>>>>>>>>>

-------------------------- Atom counting information ---------------------------
Symbol    Natoms    Nngwfs    Nprojs
  Cr       144      1872      2592
  I        432      1728      3456
.......   ......    ......    ......
Totals:    576      3600      6048
--------------------------------------------------------------------------------

=============================== PSINC grid sizes ===============================
                      Simulation cell:  175 x 175 x 117
                              FFT-box:  175 x 175 x 117
                                  PPD:    5 x   5 x   1
Grid space d1=  0.445563862424a0 (KE cutoff=  38.26345Eh =1041.20135eV)
Grid space d2=  0.445563862400a0 (KE cutoff=  38.26345Eh =1041.20135eV)
Grid space d3=  0.444294449711a0 (KE cutoff=  38.48241Eh =1047.15957eV)
================================================================================

********************* Fourier parallelisation information **********************
       Coarse grid (whole simulation cell) dimensions:    175   175   117
          Real-space ('12') slabs/proc (min max mean):      0     1     0
         Recip-space ('23') slabs/proc (min max mean):      0     1     0
********************************************************************************

********************* Fourier parallelisation information **********************
       Double grid (whole simulation cell) dimensions:    350   350   234
          Real-space ('12') slabs/proc (min max mean):      1     2     1
         Recip-space ('23') slabs/proc (min max mean):      1     2     1
********************************************************************************

********************* Fourier parallelisation information **********************
         Fine grid (whole simulation cell) dimensions:    700   700   468
          Real-space ('12') slabs/proc (min max mean):      3     4     3
         Recip-space ('23') slabs/proc (min max mean):      2     3     2
********************************************************************************

Atom SCF Calculation for Cr : Z (AE atom) =  24 : Z (PS atom) =  14
Config String: 3s2.0 3p6.0 3d5.0 4s1.0 4p0.0 INIT SPIN=3
Orbitals (num,occ):  5     2.00 6.00 5.00 1.00 0.00
Orbitals   (num,l):  5        0    1    2    0    1
Atom SCF converged after  64 iterations to a total energy of    -87.07044631
Adjusting orbital occupancies:
Orbitals (num,spin,occ):  5  1     1.00 3.00 3.50 1.00 0.00
Orbitals   (num,spin,l):  5  1        0    1    2    0    1
Orbitals (num,spin,occ):  5  2     1.00 3.00 1.00 0.50 0.00
Orbitals   (num,spin,l):  5  2        0    1    2    0    1

Atom SCF Calculation for I  : Z (AE atom) =  53 : Z (PS atom) =   7
Config String: 5s2.0 5p5.0
Orbitals (num,occ):  2     2.00 5.00
Orbitals   (num,l):  2        0    1
Atom SCF converged after  28 iterations to a total energy of    -11.61352964

Atom SCF Calculation for Cr : Z (AE atom) =  24 : Z (PS atom) =  14
Config String: 3s2.0 3p6.0 3d5.0 4s1.0 4p0.0 INIT SPIN=3
Orbitals (num,occ):  5     2.00 6.00 5.00 1.00 0.00
Orbitals   (num,l):  5        0    1    2    0    1
Atom SCF converged after  64 iterations to a total energy of    -87.07044631

Atom SCF Calculation for I  : Z (AE atom) =  53 : Z (PS atom) =   7
Config String: 5s2.0 5p5.0
Orbitals (num,occ):  2     2.00 5.00
Orbitals   (num,l):  2        0    1
Atom SCF converged after  28 iterations to a total energy of    -11.61352964

Determining parallel strategy ...... done
Calculating Ewald energy ...            31583.245177 Hartree
Basis initialisation ...
... done

============================= Charge Augmentation ==============================
                           Aug box size:   49 x  49 x  45
================================================================================
Sparse matrix initialisation ...
 done
NGWF initialisation ... done
 done

================================= Core Density =================================
               Core den box size:  125 x 125 x 105
================================================================================
Density kernel initialisation

--------------------------- Ensemble-DFT optimisation --------------------------
Running ScaLAPACK on  150 processor(s).
With smearing scheme: FERMIDIRAC                                                                      

--------------------------------------------------------------------------------
  Iter                              Commutator    Free_energy(A=E-TS)     DeltaA
#    0                          0.005769432907  -17487.81575175734910  -1.75E+04
#    1                          0.002533655815  -17569.40037390739600  -8.16E+01
#    2                          0.000220309217  -17612.39139505273490  -4.30E+01
#    3                          0.000176896221  -17612.79192447314930  -4.01E-01
#    4                          0.000149977923  -17613.04663051200260  -2.55E-01
#    5                          0.000107181876  -17613.22350641472080  -1.77E-01
#    6                          0.000096462390  -17613.33667536068610  -1.13E-01
#    7                          0.000068775784  -17613.41373424571790  -7.71E-02
#    8                          0.000062480976  -17613.46288101130270  -4.91E-02
#    9                          0.000046688283  -17613.49765375531210  -3.48E-02
#   10                          0.000041359150  -17613.52003317772320  -2.24E-02
#   11                          0.000033325351  -17613.53680251024340  -1.68E-02
#   12                          0.000027994305  -17613.54776265678810  -1.10E-02
#   13                          0.000024768820  -17613.55638654651190  -8.62E-03
#   14                          0.000019082870  -17613.56198585688250  -5.60E-03
#   15                          0.000019619621  -17613.56667431014280  -4.69E-03
Finished EDFT density kernel iterations (  15)


Writing density kernel to file "Cr2I6_bilayer_LT_FM_FM_nSP.dkn" ... done

Writing Hamiltonian to file "Cr2I6_bilayer_LT_FM_FM_nSP.ham" ... done

Writing density kernel to file "Cr2I6_bilayer_LT_FM_FM_nSP.dkn" ... done

>>> Optimising kernel for current NGWFs:
   iter  |      energy (Eh)       | rms gradient |  commutator  |   dE (Eh)
    1        -1.761356586314E+04     3.4576E-05     1.8995E-05
    2        -1.761356821111E+04     3.7989E-05     1.9348E-05    -2.3480E-03
    3        -1.761357062463E+04     5.2879E-05     2.7489E-05    -2.4135E-03
    4        -1.761357419109E+04     6.2797E-05     3.2523E-05    -3.5665E-03
    5        -1.761357619643E+04     3.9843E-05     2.0755E-05    -2.0053E-03
Finished density kernel iterations (   5)

Writing density kernel to file "Cr2I6_bilayer_LT_FM_FM_nSP.dkn" ... done


>>> Density kernel optimised for the current NGWF basis:
     ~~~~~~~~~~~~~~~~~~~~~~~~~~~~~~~~~~~~~~~~~~~~~~~~~~~~~~~~~~~
     Total energy                =  -1.76135761964280E+04  Eh
     Estimated bandgap (UP spin) =   3.6037E-02  Eh
     Estimated bandgap (DN spin) =   1.1045E-01  Eh
     RMS occupancy error         =   2.8153E-09
     [H,K] commutator            =   2.0755E-05
     UP spin occupancy bounds    = [ -0.000:  1.000]
     DN spin occupancy bounds    = [ -0.000:  1.000]
     ~~~~~~~~~~~~~~~~~~~~~~~~~~~~~~~~~~~~~~~~~~~~~~~~~~~~~~~~~~~




################################################################################
########################### NGWF CG iteration  001 #############################
################################################################################

>>> Checking for convergence of NGWFs:   NOT CONVERGED
  ========================================================================
         NGWF RMS gradient =  9.9083E-05 >  1.0000E-06  | above tolerance
  ========================================================================

>>> Improving NGWFs using line search:
  ========================================================================
   Predicted total energy    =      -1.76214431672251E+04 Eh
   Predicted gain in energy  =      -7.86697079706573E+00 Eh
  ========================================================================

Writing NGWFs to file "Cr2I6_bilayer_LT_FM_FM_nSP.tightbox_ngwfs".... done

>>> Optimising kernel for current NGWFs:
   iter  |      energy (Eh)       | rms gradient |  commutator  |   dE (Eh)
    1        -1.762142653221E+04     5.2456E-04     2.6501E-04
    2        -1.762179809124E+04     2.0549E-04     1.0493E-04    -3.7156E-01
    3        -1.762183531191E+04     9.3428E-05     4.7709E-05    -3.7221E-02
    4        -1.762184709678E+04     6.4427E-05     3.2903E-05    -1.1785E-02
    5        -1.762185361247E+04     3.1306E-05     1.5948E-05    -6.5157E-03
Finished density kernel iterations (   5)

Writing density kernel to file "Cr2I6_bilayer_LT_FM_FM_nSP.dkn" ... done


>>> Density kernel optimised for the current NGWF basis:
     ~~~~~~~~~~~~~~~~~~~~~~~~~~~~~~~~~~~~~~~~~~~~~~~~~~~~~~~~~~~
     Total energy                =  -1.76218536124672E+04  Eh
     Estimated bandgap (UP spin) =   4.2046E-02  Eh
     Estimated bandgap (DN spin) =   1.1902E-01  Eh
     RMS occupancy error         =   7.5477E-10
     [H,K] commutator            =   1.5948E-05
     UP spin occupancy bounds    = [ -0.000:  1.000]
     DN spin occupancy bounds    = [ -0.000:  1.000]
     ~~~~~~~~~~~~~~~~~~~~~~~~~~~~~~~~~~~~~~~~~~~~~~~~~~~~~~~~~~~




################################################################################
########################### NGWF CG iteration  002 #############################
################################################################################

>>> Checking for convergence of NGWFs:   NOT CONVERGED
  ========================================================================
         NGWF RMS gradient =  6.7273E-05 >  1.0000E-06  | above tolerance
  Maximum change in energy =  1.4371E-02 >  1.0000E-07  | above tolerance
  ========================================================================

>>> Improving NGWFs using line search:
  ========================================================================
   Predicted total energy    =      -1.76243693322248E+04 Eh
   Predicted gain in energy  =      -2.51571975760453E+00 Eh
  ========================================================================

Writing NGWFs to file "Cr2I6_bilayer_LT_FM_FM_nSP.tightbox_ngwfs".... done

>>> Optimising kernel for current NGWFs:
   iter  |      energy (Eh)       | rms gradient |  commutator  |   dE (Eh)
    1        -1.762436073387E+04     1.7852E-04     9.0585E-05
    2        -1.762441038653E+04     4.6900E-05     2.3830E-05    -4.9653E-02
    3        -1.762441423705E+04     5.0477E-05     2.6289E-05    -3.8505E-03
    4        -1.762441807725E+04     2.4697E-05     1.2425E-05    -3.8402E-03
    5        -1.762441915726E+04     2.0240E-05     9.9512E-06    -1.0800E-03
Finished density kernel iterations (   5)

Writing density kernel to file "Cr2I6_bilayer_LT_FM_FM_nSP.dkn" ... done


>>> Density kernel optimised for the current NGWF basis:
     ~~~~~~~~~~~~~~~~~~~~~~~~~~~~~~~~~~~~~~~~~~~~~~~~~~~~~~~~~~~
     Total energy                =  -1.76244191572601E+04  Eh
     Estimated bandgap (UP spin) =   4.1327E-02  Eh
     Estimated bandgap (DN spin) =   1.1820E-01  Eh
     RMS occupancy error         =   1.0634E-10
     [H,K] commutator            =   9.9512E-06
     UP spin occupancy bounds    = [  0.000:  1.000]
     DN spin occupancy bounds    = [  0.000:  1.000]
     ~~~~~~~~~~~~~~~~~~~~~~~~~~~~~~~~~~~~~~~~~~~~~~~~~~~~~~~~~~~




################################################################################
########################### NGWF CG iteration  003 #############################
################################################################################

>>> Checking for convergence of NGWFs:   NOT CONVERGED
  ========================================================================
         NGWF RMS gradient =  4.1687E-05 >  1.0000E-06  | above tolerance
  Maximum change in energy =  1.4371E-02 >  1.0000E-07  | above tolerance
  ========================================================================

>>> Improving NGWFs using line search:
  ========================================================================
   Predicted total energy    =      -1.76254987538077E+04 Eh
   Predicted gain in energy  =      -1.07959654758815E+00 Eh
  ========================================================================

Writing NGWFs to file "Cr2I6_bilayer_LT_FM_FM_nSP.tightbox_ngwfs".... done

>>> Optimising kernel for current NGWFs:
   iter  |      energy (Eh)       | rms gradient |  commutator  |   dE (Eh)
    1        -1.762548831949E+04     1.8896E-04     9.5601E-05
    2        -1.762552715696E+04     9.1413E-05     4.6703E-05    -3.8837E-02
    3        -1.762553431989E+04     3.3489E-05     1.6877E-05    -7.1629E-03
    4        -1.762553593088E+04     2.4096E-05     1.2075E-05    -1.6110E-03
    5        -1.762553714290E+04     1.2755E-05     6.6545E-06    -1.2120E-03
Finished density kernel iterations (   5)

Writing density kernel to file "Cr2I6_bilayer_LT_FM_FM_nSP.dkn" ... done


>>> Density kernel optimised for the current NGWF basis:
     ~~~~~~~~~~~~~~~~~~~~~~~~~~~~~~~~~~~~~~~~~~~~~~~~~~~~~~~~~~~
     Total energy                =  -1.76255371429017E+04  Eh
     Estimated bandgap (UP spin) =   4.1138E-02  Eh
     Estimated bandgap (DN spin) =   1.1860E-01  Eh
     RMS occupancy error         =   5.7033E-11
     [H,K] commutator            =   6.6545E-06
     UP spin occupancy bounds    = [  0.000:  1.000]
     DN spin occupancy bounds    = [  0.000:  1.000]
     ~~~~~~~~~~~~~~~~~~~~~~~~~~~~~~~~~~~~~~~~~~~~~~~~~~~~~~~~~~~




################################################################################
########################### NGWF CG iteration  004 #############################
################################################################################

>>> Checking for convergence of NGWFs:   NOT CONVERGED
  ========================================================================
         NGWF RMS gradient =  3.0070E-05 >  1.0000E-06  | above tolerance
  Maximum change in energy =  4.4541E-03 >  1.0000E-07  | above tolerance
  ========================================================================

>>> Improving NGWFs using line search:
  ========================================================================
   Predicted total energy    =      -1.76261341700309E+04 Eh
   Predicted gain in energy  =      -5.97027129264461E-01 Eh
  ========================================================================

Writing NGWFs to file "Cr2I6_bilayer_LT_FM_FM_nSP.tightbox_ngwfs".... done

>>> Optimising kernel for current NGWFs:
   iter  |      energy (Eh)       | rms gradient |  commutator  |   dE (Eh)
    1        -1.762612352909E+04     6.4951E-05     3.2947E-05
    2        -1.762613036812E+04     3.5095E-05     1.7551E-05    -6.8390E-03
    3        -1.762613179655E+04     2.5159E-05     1.2399E-05    -1.4284E-03
    4        -1.762613298438E+04     1.7698E-05     9.0739E-06    -1.1878E-03
    5        -1.762613335274E+04     1.0303E-05     5.2341E-06    -3.6836E-04
Finished density kernel iterations (   5)

Writing density kernel to file "Cr2I6_bilayer_LT_FM_FM_nSP.dkn" ... done


>>> Density kernel optimised for the current NGWF basis:
     ~~~~~~~~~~~~~~~~~~~~~~~~~~~~~~~~~~~~~~~~~~~~~~~~~~~~~~~~~~~
     Total energy                =  -1.76261333527398E+04  Eh
     Estimated bandgap (UP spin) =   4.0030E-02  Eh
     Estimated bandgap (DN spin) =   1.1795E-01  Eh
     RMS occupancy error         =   2.3473E-11
     [H,K] commutator            =   5.2341E-06
     UP spin occupancy bounds    = [  0.000:  1.000]
     DN spin occupancy bounds    = [  0.000:  1.000]
     ~~~~~~~~~~~~~~~~~~~~~~~~~~~~~~~~~~~~~~~~~~~~~~~~~~~~~~~~~~~




################################################################################
########################### NGWF CG iteration  005 #############################
################################################################################

>>> Checking for convergence of NGWFs:   NOT CONVERGED
  ========================================================================
         NGWF RMS gradient =  2.1218E-05 >  1.0000E-06  | above tolerance
  Maximum change in energy =  1.9409E-03 >  1.0000E-07  | above tolerance
  ========================================================================

>>> Improving NGWFs using line search:
  ========================================================================
   Predicted total energy    =      -1.76263047904740E+04 Eh
   Predicted gain in energy  =      -1.71437734214123E-01 Eh
  ========================================================================

Writing NGWFs to file "Cr2I6_bilayer_LT_FM_FM_nSP.tightbox_ngwfs".... done

>>> Optimising kernel for current NGWFs:
   iter  |      energy (Eh)       | rms gradient |  commutator  |   dE (Eh)
    1        -1.762630428126E+04     8.8972E-06     4.4449E-06
    2        -1.762630449014E+04     1.8160E-05     9.0041E-06    -2.0888E-04
    3        -1.762630468070E+04     1.5270E-05     7.6803E-06    -1.9056E-04
    4        -1.762630484950E+04     1.1491E-05     5.8337E-06    -1.6880E-04
    5        -1.762630495825E+04     1.8354E-05     9.2891E-06    -1.0875E-04
Finished density kernel iterations (   5)

Writing density kernel to file "Cr2I6_bilayer_LT_FM_FM_nSP.dkn" ... done


>>> Density kernel optimised for the current NGWF basis:
     ~~~~~~~~~~~~~~~~~~~~~~~~~~~~~~~~~~~~~~~~~~~~~~~~~~~~~~~~~~~
     Total energy                =  -1.76263049582548E+04  Eh
     Estimated bandgap (UP spin) =   3.9852E-02  Eh
     Estimated bandgap (DN spin) =   1.1803E-01  Eh
     RMS occupancy error         =   1.1044E-10
     [H,K] commutator            =   9.2891E-06
     UP spin occupancy bounds    = [  0.000:  1.000]
     DN spin occupancy bounds    = [  0.000:  1.000]
     ~~~~~~~~~~~~~~~~~~~~~~~~~~~~~~~~~~~~~~~~~~~~~~~~~~~~~~~~~~~




################################################################################
########################### NGWF CG iteration  006 #############################
################################################################################

>>> Checking for convergence of NGWFs:   NOT CONVERGED
  ========================================================================
         NGWF RMS gradient =  1.4649E-05 >  1.0000E-06  | above tolerance
  Maximum change in energy =  1.0351E-03 >  1.0000E-07  | above tolerance
  ========================================================================

>>> Improving NGWFs using line search:
  ========================================================================
   Predicted total energy    =      -1.76264476239717E+04 Eh
   Predicted gain in energy  =      -1.42665716837655E-01 Eh
  ========================================================================

Writing NGWFs to file "Cr2I6_bilayer_LT_FM_FM_nSP.tightbox_ngwfs".... done

>>> Optimising kernel for current NGWFs:
   iter  |      energy (Eh)       | rms gradient |  commutator  |   dE (Eh)
    1        -1.762644388147E+04     2.7110E-05     1.3493E-05
    2        -1.762644490557E+04     2.2685E-05     1.1116E-05    -1.0241E-03
    3        -1.762644555379E+04     1.3953E-05     7.0702E-06    -6.4822E-04
    4        -1.762644579138E+04     9.2088E-06     4.7550E-06    -2.3759E-04
[...]
*    I     436     -0.00292587  -0.00520408  -0.00889941 *
*    I     437     -0.00304546   0.00515826  -0.00888838 *
*    I     438     -0.00591953   0.00002848   0.01110750 *
*    I     439      0.00298042   0.00509116   0.01110902 *
*    I     440      0.00292901  -0.00514502   0.01110755 *
*    Cr    441      0.00010412   0.00005247  -0.00026394 *
*    Cr    442      0.00000965   0.00001960   0.00021916 *
*    I     443      0.00591814  -0.00003571  -0.01111107 *
*    I     444     -0.00298112  -0.00509483  -0.01111295 *
*    I     445     -0.00292789   0.00514330  -0.01110852 *
*    I     446     -0.00598365  -0.00007229   0.00890667 *
*    I     447      0.00295415   0.00518612   0.00887228 *
*    I     448      0.00305903  -0.00515862   0.00888333 *
*    Cr    449     -0.00000872  -0.00000552  -0.00020959 *
*    Cr    450     -0.00001830   0.00010108   0.00026885 *
*    I     451      0.00598887   0.00007091  -0.00889387 *
*    I     452     -0.00294025  -0.00518665  -0.00889652 *
*    I     453     -0.00306059   0.00515894  -0.00888259 *
*    I     454     -0.00591905   0.00003006   0.01110652 *
*    I     455      0.00297994   0.00509396   0.01111265 *
*    I     456      0.00292859  -0.00514426   0.01110796 *
*    Cr    457      0.00010851   0.00006256  -0.00026840 *
*    Cr    458      0.00001533   0.00000991   0.00021086 *
*    I     459      0.00591803  -0.00003493  -0.01110839 *
*    I     460     -0.00298196  -0.00509530  -0.01111172 *
*    I     461     -0.00292953   0.00514237  -0.01110712 *
*    I     462     -0.00598908  -0.00006577   0.00889760 *
*    I     463      0.00293087   0.00520100   0.00889157 *
*    I     464      0.00305000  -0.00515672   0.00889764 *
*    Cr    465     -0.00000343  -0.00000947  -0.00021793 *
*    Cr    466     -0.00001685  -0.00001874   0.00027362 *
*    I     467      0.00598640   0.00007577  -0.00890099 *
*    I     468     -0.00294384  -0.00518054  -0.00888939 *
*    I     469     -0.00307478   0.00515900  -0.00887295 *
*    I     470     -0.00592179   0.00002480   0.01110788 *
*    I     471      0.00297609   0.00509254   0.01111244 *
*    I     472      0.00292649  -0.00514767   0.01110847 *
*    Cr    473      0.00010862   0.00006063  -0.00025959 *
*    Cr    474      0.00009696  -0.00003391   0.00023167 *
*    I     475      0.00591925  -0.00003493  -0.01110809 *
*    I     476     -0.00298347  -0.00509447  -0.01111116 *
*    I     477     -0.00292443   0.00514177  -0.01110347 *
*    I     478     -0.00598736  -0.00005620   0.00888846 *
*    I     479      0.00290903   0.00521845   0.00888425 *
*    I     480      0.00304143  -0.00515068   0.00890101 *
*    Cr    481      0.00000116  -0.00000766  -0.00021638 *
*    Cr    482     -0.00001802  -0.00002078   0.00026229 *
*    I     483      0.00599044   0.00009554  -0.00890107 *
*    I     484     -0.00293822  -0.00518791  -0.00888786 *
*    I     485     -0.00306332   0.00517925  -0.00885072 *
*    I     486     -0.00591829   0.00002899   0.01110724 *
*    I     487      0.00297697   0.00509201   0.01111213 *
*    I     488      0.00292884  -0.00514268   0.01110775 *
*    Cr    489      0.00000346   0.00000029  -0.00027043 *
*    Cr    490      0.00010556  -0.00004133   0.00024327 *
*    I     491      0.00591941  -0.00003072  -0.01111003 *
*    I     492     -0.00298303  -0.00509394  -0.01111081 *
*    I     493     -0.00292509   0.00514646  -0.01110790 *
*    I     494     -0.00598977  -0.00004989   0.00887452 *
*    I     495      0.00291141   0.00519285   0.00890212 *
*    I     496      0.00304373  -0.00514807   0.00890766 *
*    Cr    497     -0.00000132  -0.00000872  -0.00021809 *
*    Cr    498     -0.00001871  -0.00000912   0.00025169 *
*    I     499      0.00599462   0.00007764  -0.00887718 *
*    I     500     -0.00292203  -0.00521969  -0.00886483 *
*    I     501     -0.00301993   0.00516037  -0.00888960 *
*    I     502     -0.00591709   0.00003225   0.01110537 *
*    I     503      0.00298015   0.00508997   0.01110962 *
*    I     504      0.00292999  -0.00514289   0.01110780 *
*    Cr    505      0.00001098   0.00001425  -0.00030268 *
*    Cr    506      0.00000846   0.00001481   0.00025232 *
*    I     507      0.00591902  -0.00003603  -0.01110777 *
*    I     508     -0.00298157  -0.00509698  -0.01111289 *
*    I     509     -0.00292976   0.00514203  -0.01110787 *
*    I     510     -0.00597484  -0.00008085   0.00890389 *
*    I     511      0.00291584   0.00517760   0.00891965 *
*    I     512      0.00303469  -0.00514093   0.00891338 *
*    Cr    513     -0.00000347  -0.00000926  -0.00021836 *
*    Cr    514     -0.00003151  -0.00000157   0.00027827 *
*    I     515      0.00599907   0.00007892  -0.00887314 *
*    I     516     -0.00290812  -0.00521188  -0.00890435 *
*    I     517     -0.00303053   0.00515951  -0.00888628 *
*    I     518     -0.00591732   0.00002683   0.01110844 *
*    I     519      0.00297970   0.00509005   0.01111229 *
*    I     520      0.00292872  -0.00514454   0.01110754 *
*    Cr    521      0.00002119  -0.00000291  -0.00030988 *
*    Cr    522      0.00000499   0.00002573   0.00024629 *
*    I     523      0.00591712  -0.00003431  -0.01110826 *
*    I     524     -0.00298282  -0.00509378  -0.01111190 *
*    I     525     -0.00292782   0.00514424  -0.01110829 *
*    I     526     -0.00597606  -0.00007821   0.00891229 *
*    I     527      0.00290786   0.00519235   0.00891464 *
*    I     528      0.00306834  -0.00514757   0.00888905 *
*    Cr    529     -0.00000409  -0.00001172  -0.00022189 *
*    Cr    530     -0.00002587  -0.00001539   0.00026993 *
*    I     531      0.00600648   0.00008162  -0.00887016 *
*    I     532     -0.00292034  -0.00520134  -0.00890437 *
*    I     533     -0.00302718   0.00516354  -0.00888399 *
*    I     534     -0.00591845   0.00002690   0.01110771 *
*    I     535      0.00297916   0.00509192   0.01111026 *
*    I     536      0.00292891  -0.00514329   0.01110605 *
*    Cr    537      0.00001108  -0.00000927  -0.00027495 *
*    Cr    538      0.00000583   0.00001064   0.00023333 *
*    I     539      0.00591615  -0.00003519  -0.01110760 *
*    I     540     -0.00298210  -0.00509505  -0.01111467 *
*    I     541     -0.00292834   0.00514187  -0.01110750 *
*    I     542     -0.00597644  -0.00007186   0.00891147 *
*    I     543      0.00291243   0.00519860   0.00889942 *
*    I     544      0.00306208  -0.00515152   0.00889626 *
*    Cr    545     -0.00008919   0.00004049  -0.00023091 *
*    Cr    546     -0.00002187   0.00009969   0.00026358 *
*    I     547      0.00599911   0.00009280  -0.00887880 *
*    I     548     -0.00292694  -0.00519377  -0.00890559 *
*    I     549     -0.00304048   0.00516498  -0.00887859 *
*    I     550     -0.00592133   0.00002922   0.01110655 *
*    I     551      0.00298151   0.00509165   0.01111096 *
*    I     552      0.00292705  -0.00514554   0.01110812 *
*    Cr    553      0.00000742   0.00000606  -0.00026505 *
*    Cr    554      0.00001006   0.00001207   0.00021756 *
*    I     555      0.00591566  -0.00003356  -0.01110712 *
*    I     556     -0.00298228  -0.00509478  -0.01111331 *
*    I     557     -0.00292929   0.00514190  -0.01110839 *
*    I     558     -0.00597373  -0.00006099   0.00891539 *
*    I     559      0.00295505   0.00518502   0.00887164 *
*    I     560      0.00307323  -0.00515780   0.00888413 *
*    Cr    561     -0.00000826  -0.00001187  -0.00022069 *
*    Cr    562     -0.00001959  -0.00001581   0.00027129 *
*    I     563      0.00599696   0.00009152  -0.00889323 *
*    I     564     -0.00294648  -0.00517479  -0.00890699 *
*    I     565     -0.00304159   0.00517896  -0.00886425 *
*    I     566     -0.00591976   0.00002714   0.01110745 *
*    I     567      0.00297688   0.00509216   0.01111069 *
*    I     568      0.00292545  -0.00514872   0.01110938 *
*    Cr    569      0.00000556  -0.00000054  -0.00027729 *
*    Cr    570      0.00001077   0.00000962   0.00021942 *
*    I     571      0.00591645  -0.00003332  -0.01110831 *
*    I     572     -0.00298128  -0.00509454  -0.01111227 *
*    I     573     -0.00292748   0.00514674  -0.01110882 *
*    I     574     -0.00597733  -0.00004948   0.00889979 *
*    I     575      0.00292229   0.00521447   0.00887253 *
*    I     576      0.00305496  -0.00515733   0.00889673 *
*                                                        *
**********************************************************
* TOTAL:            0.00000000   0.00000000  -0.00000000 *
**********************************************************
 
 
***********************************************************
********** Summary of Forces (values in Eh/a) *************
*                                                         *
* ---------------------- Minimum ------------------------ *
* Atom:       337, |F|min =    0.00019254                 *
* Components:     Fx|min       Fy|min       Fz|min        *
*              -0.00000376  -0.00000367  -0.00019247      *
*                                                         *
* ---------------------- Maximum ------------------------ *
* Atom:       216, |F|max =    0.01258948                 *
* Components:     Fx|max       Fy|max       Fz|max        *
*               0.00292670  -0.00514890   0.01110937      *
*                                                         *
* ---------------- Root Mean Square Force --------------- *
*                  |F|rms =    0.01012270                 *
* Components:     Fx|rms       Fy|rms       Fz|rms        *
*               0.00364365   0.00364040   0.00871437      *
***********************************************************
 

------------------------------ TIMING INFORMATION ------------------------------
AVERAGE TIME:   33636.453s on    150 proc(s)                                    
TOTAL TIME:     33636.453s on    150 proc(s)                                    
==================== AVERAGE TIMINGS FROM ALL PROCS (CUMULATIVE) =====================
|| TAG                                         #calls     cpu time   %total  Gflops ||
|| hubbard_species_proj                       :     1        0.00s   0.000%  ------ ||
|| sw_bessel_init_cpu                         :     1        0.01s   0.000%  ------ || (1 procs only)
|| hubbard_projector_character                :     1        0.00s   0.000%  ------ ||
|| hubbard_ngwf_select                        :     1        0.00s   0.000%  ------ ||
|| density_fftbox_interp_mult_imbal           : 17900        0.00s   0.000%  ------ ||
|| hubbard_ngwf_on_grid                       :     1        0.00s   0.000%  ------ ||
|| hash_table_free                            :    48        0.00s   0.000%  ------ ||
|| ewald_calculate_forces_realspace           :     1        0.00s   0.000%  ------ ||
|| onetep.F90 main loop imbalance             :     1        0.01s   0.000%  ------ ||
|| linalg_dgemv                               :    25        0.02s   0.000%  ------ ||
|| onetep.F90 final imbalance                 :     1        0.02s   0.000%  ------ ||
|| linalg_invert_sym_matrix                   :     2        0.03s   0.000%  ------ || (144 procs only)
|| hubbard_tensorial_correction               :     2        0.03s   0.000%  ------ ||
|| ewald_calculate_energy                     :     1        0.04s   0.000%  ------ ||
|| ewald_calculate_forces_recipspace          :     1        0.06s   0.000%  ------ ||
|| sparse_spam3toblacs_real_fast_imbal        :   198        0.08s   0.000%  ------ ||
|| sw_init                                    :   715        0.09s   0.000%  ------ ||
|| sparse_set_to_garbage                      :   712        0.09s   0.000%  ------ ||
|| sparse_blacstospam3_real_fast_imbal        :   212        0.10s   0.000%  ------ ||
|| paw_dij_hartree                            :   396        0.11s   0.000%  ------ ||
|| ewald_calculate_forces                     :     1        0.12s   0.000%  ------ ||
|| pseudo_make_structure_factor               :     1        0.15s   0.000%  ------ ||
|| augmentation_density_forces                :     1        0.23s   0.001%  ------ ||
|| basis_extract_function_from_box            :  2304        0.38s   0.001%  ------ ||
|| sparse_spam3toblacs_real_fast_B2           : 29700        0.49s   0.001%  ------ ||
|| paw_tcore_hartree_on_grid                  :     1        0.53s   0.002%  ------ ||
|| restart_hamiltonian_write                  :     2        0.55s   0.002%  ------ ||
|| paw_tcore_hartree_calc_forces              :     1        0.61s   0.002%  ------ ||
|| hubbard_projection_mtx                     :    50        0.74s   0.002%  ------ ||
|| paw_tcore_density                          :     1        1.21s   0.004%  ------ ||
|| ngwfs_initialise_from_radial               :     2        1.33s   0.004%  ------ ||
|| paw_nlcc_calculate_forces                  :     1        1.35s   0.004%  ------ ||
|| paw_sphere_density_on_grid                 :     1        1.52s   0.005%  ------ ||
|| paw_dataset_init                           :     2        1.52s   0.005%  ------ ||
|| nonsc_forces_ngwfs_calc                    :     1        1.92s   0.006%  ------ ||
|| sparse_init                                :     1        2.20s   0.007%  ------ ||
|| hubbard_ham_matrix                         :   166        4.76s   0.014%  ------ ||
|| hubbard_projector_ham                      :   165        5.22s   0.016%  ------ ||
|| paw_species_calc_proj_prec_mat             :     1        5.94s   0.018%  ------ ||
|| restart_kernel_write                       :    26        7.11s   0.021%  ------ ||
|| sparse_embed_array_hotelling_invert        :    48        7.42s   0.022%  ------ ||
|| hubbard_calculate_forces                   :     1        9.24s   0.027%  ------ ||
|| integrals_grad_spam3                       :     2       11.09s   0.033%  ------ ||
|| sparse_spam3toblacs_real_fast_B1           : 29700       14.12s   0.042%  ------ ||
|| energy_and_force_init_cell                 :     1       14.46s   0.043%  ------ ||
|| hubbard_projector_update                   :     1       15.38s   0.046%  ------ ||
|| hubbard_energy_total                       :   370       15.54s   0.046%  ------ ||
|| sparse_spam3toblacs_real_fast              :   198       15.71s   0.047%  ------ ||
|| projectors_func_grad_ovlp_box_spam3        :     3       17.60s   0.052%  ------ ||
|| aug_nl_calculate_forces                    :     1       18.58s   0.055%  ------ ||
|| fourier_filter_cell                        :   380       18.63s   0.055% 361.674 ||
|| ngwf_gradient_coeffs                       :    24       25.07s   0.075%  ------ ||
|| sparse_trace                               : 11492       26.99s   0.080%  ------ ||
|| hartree_on_grid_single                     :   357       28.15s   0.084%  ------ ||
|| sparse_blacstospam3_real_fast              :   212       30.99s   0.092%  ------ ||
|| fourier_apply_box_pair                     :  2918       31.68s   0.094%  5.390k ||
|| basis_copy_function_to_box                 : 27460       32.46s   0.096%  ------ ||
|| hamiltonian_energy_components              :     1       39.46s   0.117%  ------ ||
|| fourier_interpolate_cell                   :   716       40.37s   0.120% 314.513 ||
|| eigenstates_calculate                      :     1       42.77s   0.127%  ------ ||
|| dense_eigensolve                           :    96       50.78s   0.151%  ------ ||
|| kernel_purify                              :   477       55.55s   0.165%  ------ ||
|| density_init_guess_real                    :     2       57.94s   0.172%  ------ ||
|| kernel_fix                                 :   148       64.40s   0.191%  ------ ||
|| edft_diag_ngwf_ham                         :    94       64.52s   0.192%  ------ ||
|| lnv_gradient_norm                          :   148       65.69s   0.195%  ------ ||
|| augmentation_screen_dij_spam3              :   356       73.29s   0.218%  ------ ||
|| paw_dij_xc                                 :   396       81.01s   0.241%  ------ ||
|| aug_nonlocal_mat_spam3_embed_array         :   371       87.08s   0.259%  ------ ||
|| edft_apply_smearing_operator               :    47      106.67s   0.317%  ------ ||
|| forces_calculate                           :     1      107.57s   0.320%  ------ ||
|| fourier_apply_cell_backward                :  3214      129.57s   0.385% 395.690 ||
|| fourier_apply_cell_forward                 :  3214      134.86s   0.401% 380.180 ||
|| projectors_init_fftbox_recip               :   391      135.99s   0.404%  ------ ||
|| aug_density_on_grid_spam3                  :   358      172.89s   0.514%  ------ ||
|| cell_grid_deposit_box_real                 : 22838      174.65s   0.519%  ------ ||
|| fourier_filter                             :  5295      213.15s   0.634%  ------ ||
|| restart_ngwfs_tightbox_output              :    23      222.06s   0.660%  ------ ||
|| function_ops_brappd_ketppd_spam3           :    98      230.61s   0.686%  ------ ||
|| cell_grid_extract_box_real                 : 14158      269.31s   0.801%  ------ ||
|| xc_energy_potential                        :   357      271.61s   0.807%  ------ ||
|| projectors_func_ovlp_box_spam3             :    99      347.19s   1.032%  ------ ||
|| sparse_product                             : 21761      348.99s   1.038%  ------ ||
|| fourier_interpolate                        :  5295      401.76s   1.194%  ------ ||
|| integrals_kinetic_spam3                    :    48      519.39s   1.544%  ------ ||
|| properties_calculate                       :     1      540.17s   1.606%  ------ ||
|| density_fftbox_deposit_to_cell             : 17900     1139.85s   3.389%  ------ ||
|| basis_dot_function_with_box                : 15.75M    1155.27s   3.435%  ------ ||
|| projectors_gradient_batch                  :   192     1678.41s   4.990%  ------ ||
|| potential_apply_to_ngwf_batch              :   664     2194.38s   6.524%  ------ ||
|| edft_calculate                             :     1     2526.84s   7.512%  ------ ||
|| fourier_apply_box                          : 82133     3128.44s   9.301%  5.494k ||
|| integrals_locpot_mat_els_batch             :   664     3259.17s   9.689%  ------ ||
|| basis_add_function_to_box                  : 38.57M    3291.27s   9.785%  ------ ||
|| fourier_interpolate_product                : 17184     3394.12s  10.091%  ------ ||
|| density_fftbox_interpolate_multiply        : 17900     3530.97s  10.497%  ------ ||
|| projectors_grad_precond_batch              :    96     4891.75s  14.543%  ------ ||
|| integrals_locpot_dbl_grid                  :   332     5469.40s  16.260%  ------ ||
|| density_batch_interp_deposit               :  1432     6400.40s  19.028%  ------ ||
|| density_batch_row_sums                     :  1432     6667.83s  19.823%  ------ ||
|| ngwf_gradient_build_batch                  :    96     7567.37s  22.498%  ------ ||
|| ngwf_gradient_batch                        :    96    10926.80s  32.485%  ------ ||
|| ngwf_gradient_lnv                          :    24    11438.91s  34.007%  ------ ||
|| density_on_dbl_grid                        :   716    13203.50s  39.254%  ------ ||
|| hamiltonian_lhxc_calculate                 :   354    13774.25s  40.950%  ------ ||
|| lnv_denskernel_optimise_cg                 :    24    16153.97s  48.025%  ------ ||
|| ngwf_cg_optimise                           :     1    30288.88s  90.048%  ------ ||
|| energy_and_forces                          :     1    33620.64s  99.953%  ------ ||
|| total_time                                 :     1    33636.45s 100.000%  ------ ||
======================================================================================
Overhead of generating timer report: 
- 0 ms averaging over threads,
- 10 ms ensuring consistency across MPI ranks,
- 1 ms printing in order.

Job completed: 28-04-2025 21:43 (+0100)

onetep_launcher: ONETEP seems to have finished correctly (zero exit code).
                 Brought to you by PID 94201 on nid004980.
