==================================================================================
It's Mon 28 Apr 2025 12:22:17 PM BST.
*** Starting onetep_launcher (node nid005903, PIDs 87432 87433 87434 87435 87436 87437)...
    - ONETEP arguments: Cr2I6_bilayer_LT_FM_FM_SP.dat
    - Current directory: /mnt/lustre/a2fs-work3/work/e89/e89/phsmea/CrI3_onetep_U/U_2.97/LT_FM/LT_FM_FM_J/sp
    - Launcher executable directory: /mnt/lustre/a2fs-work3/work/e89/e89/phsmea/CrI3_onetep_U/U_2.97/LT_FM/LT_FM_FM_J/sp
    - (-e) ONETEP executable specified through command-line: /work/e89/e89/phsmea/onetep.archer2_2024_cray
      ... trying /work/e89/e89/phsmea/onetep.archer2_2024_cray
          -> looks OK
*** Setting up environment...
    - (-s) Process stack size: unlimited
    - (-t) OMP_NUM_THREADS: 16
    - (-o) OMP_STACKSIZE: 64M
    - (-c) Maximum core file size: 2048000
    - (-d) decfort_dump_flag: n
    - (-m) I_MPI_OFA_TRANSLATION_CACHE: 0
    - (-m) I_MPI_DAPL_TRANSLATION_CACHE: 0
    - (-m) I_MPI_DAPL_UD_TRANSLATION_CACHE: 0
*** Starting ONETEP...
    - /work/e89/e89/phsmea/onetep.archer2_2024_cray Cr2I6_bilayer_LT_FM_FM_SP.dat
=================================================================================
_________________________________________________________________________________
 +---------------------------------------------------------------+
 |                                                               |
 |        ####### #     # ####### ####### ####### ######         |
 |        #     # ##    # #          #    #       #     #        |
 |        #     # # #   # #          #    #       #     #        |
 |        #     # #  #  # #####      #    #####   ######         |
 |        #     # #   # # #          #    #       #              |
 |        #     # #    ## #          #    #       #              |
 |        ####### #     # #######    #    ####### #              |
 |                                                               |
 |        Linear-Scaling Ab Initio Total Energy Program          |
 |                                                               |
 |          Release for academic collaborators of ODG            |
 |                                             Version 7.3.0     |
 | Remote: git@github.com:Miesaz/onetep_mea.git                  |
 | Local branch: master                                          |
 | Commit ID: 4af45e89288c8df5499704252eec3e032ee3d0c8           |
 | Date: Tue Aug 6 11:28:44 2024 +0100                           |
 | Working tree clean                                            |
 |                                                               |
 +---------------------------------------------------------------+
 |                                                               |
 |  Authors:                                                     |
 |  Jacek Dziedzic, Peter D. Haynes, Nicholas D. M. Hine,        |
 |  Arash A. Mostofi, Mike C. Payne and Chris-Kriton Skylaris    |
 |                                                               |
 |  Contributors:                                                |
 |  J. Aarons, L. Andrinopoulos, P. W. Avraam, R. A. Bell,       |
 |  A. Bhandari, G. A. Bramley, R. J. Charlton, S. J. Clark,     |
 |  R. J. Clements, G. C. Constantinescu, F. Corsetti,           |
 |  N. Corsini, O. Dieguez, S. M. M. Dubois, K. K. B. Duff,      |
 |  J. M. Escartin, M. Escobar Azor, A. Greco,                   |
 |  H. Helal, Q. O. Hill, L. P. Lee, J.-H. Li,                   |
 |  T. Li, E. B. Linscott, G. Moynihan, D. D. O`Regan,           |
 |  O. K. Okan, E. Parkinson, M. J. S. Phipps,                   |
 |  C. J. Pickard, J. C. A. Prentice, M. I. J. Probert,          |
 |  L. E. Ratcliff, M. Robinson, A. Ruiz Serrano,                |
 |  M. dos Santos Dias, J. S. Spencer, E. W. Tait,               |
 |  G. Teobaldi, D. Turban, V. Vitale, K. A. Wilkinson,          |
 |  C. Weber, J. C. Womack, Chengcheng Xiao, N. Yeung,           |
 |  and T. J. Zuehlsdorff.                                       |
 |                                                               |
 |                                   Copyright (c) 2004-2024     |
 |                                                               |
 |  Please cite:                                                 |
 |  "The ONETEP linear-scaling density functional theory program"|
 |   J. Chem. Phys. 152(17) 174111 (2020)                        |
 |                                                               |
 |          in all publications arising from your use of ONETEP. |
 |                                                               |
 +---------------------------------------------------------------+
 |                                                               |
 |   ONETEP is based on developments described in the following  |
 |   publications:                                               |
 |                                                               |
 |  "Nonorthogonal generalized Wannier function pseudopotential  |
 |   plane-wave method".                                         |
 |   C.-K. Skylaris, A. A. Mostofi, P. D. Haynes, O. Dieguez,    |
 |   M. C. Payne.                                                |
 |   Phys. Rev. B 66 035119 (2002).                              |
 |                                                               |
 |  "Preconditioned iterative minimization for linear-scaling    |
 |   electronic structure calculations".                         |
 |   A. A. Mostofi, P. D. Haynes, C.-K. Skylaris, M. C. Payne.   |
 |   J. Chem. Phys. 119(17), pp.8842-8848 (2003).                |
 |                                                               |
 |  "Total-energy calculations on a real space grid with         |
 |   localized functions and a plane-wave basis".                |
 |   A. A. Mostofi, C.-K. Skylaris, P. D. Haynes, M. C. Payne.   |
 |   Comput. Phys. Commun. 147, pp.788-802 (2002).               |
 |                                                               |
 |  "Accurate kinetic energy evaluation in electronic structure  |
 |   calculations with localized functions on real space grids"  |
 |   C.-K. Skylaris, A. A. Mostofi, P. D. Haynes, C. J. Pickard, |
 |   M. C. Payne.                                                |
 |   Comput. Phys. Commun. 140, pp.315-322 (2001).               |
 |                                                               |
 |  "Accurate ionic forces and geometry optimization in linear-  |
 |   scaling density-functional theory with local orbitals"      |
 |   N. D. M. Hine, M. Robinson, P. D. Haynes, C.-K. Skylaris,   |
 |   M. C. Payne, and A. A. Mostofi.                             |
 |   Phys. Rev. B 83 195102 (2011).                              |
 |                                                               |
 +---------------------------------------------------------------+

Job started: 28-04-2025 12:22 (+0100)
 
Reading parameters from file "Cr2I6_bilayer_LT_FM_FM_SP.dat" ...... done

If your calculation crashes here, before "Checking processes and threads..."
is displayed, then your stack size is insufficient.
If so, use "ulimit -s unlimited" at runtime.
You can disable this check with "check_stack_size F".

Checking processes and threads...
      Default threads: 16
   Running with 150 MPI processes.
   There are 6 MPI processes running on the same node as the root process.
   Each MPI process is using: 
               1 threads for simulation cell FFTs.
               1 threads for threaded FFT box operations.
              16 threads for loops over batched FFT box operations.
              16 threads in other parallel regions.
   MPI Interface: S1 (use mpi_f08) (-DMPI -DUSE_MPI_F08).
   MPI_ASYNC_PROTECTS_NONBLOCKING: Yes. MPI_SUBARRAYS_SUPPORTED: Yes.
   FFTW Interface: OMP-capable and MODERN. (-DUSE_MODERN_FFTW specified).
   GPU Interface: None.
   GPU FFT Backend: None.
... done

Basic input checks...... done

Reading geometry and species blocks from file "Cr2I6_bilayer_LT_FM_FM_SP.dat" ...... done


--------------------------------------------------------------------------------
---------------------------------- INPUT FILE ----------------------------------
--------------------------------------------------------------------------------

charge : 0                                                                      
cutoff_energy : 1000 eV                                                         
do_properties : T                                                               
delta_e_conv : F                                                                
edft : F                                                                        
edft_init_maxit : 15                                                            
elec_energy_tol : 1e-07 Ha                                                      
fine_grid_scale : 4                                                             
forces_output_detail : VERBOSE                                                  
MAXIT_LNV     : 15                                                              
MINIT_LNV     : 5                                                               
maxit_ngwf_cg : 100                                                             
ngwf_threshold_orig : 1e-06                                                     
ngwfs_spin_polarized : T                                                        
output_detail : NORMAL                                                          
paw : T                                                                         
read_denskern : F                                                               
read_hamiltonian : F                                                            
read_tightbox_ngwfs : F                                                         
spin : 432                                                                      
spin_polarized : T                                                              
task : SinglePoint                                                              
write_denskern : T                                                              
write_forces : T                                                                
write_hamiltonian : T                                                           
write_tightbox_ngwfs : T                                                        
xc_functional : PBE                                                             
%BLOCK LATTICE_CART                                                             
ang                                                                             
41.261892132    0.000000000    0.000000000                                      
-20.630946066   35.733846792    0.000000000                                     
0.000000000    0.000000000   27.507928088                                       
%ENDBLOCK LATTICE_CART                                                          
%BLOCK POSITIONS_ABS                                                            
ang                                                                             
Cr       2.29230603       3.97040895      17.03520929                           
Cr      -1.14615438       5.95565340      17.04368562                           
I        3.29127824       1.97929933      15.50172901                           
I        0.06846335       4.10088269      15.50172980                           
I       -3.35976942       5.83112629      15.50174515                           
I        1.29815293       1.98813153      18.57647573                           
I        1.07268127       5.82255136      18.57647595                           
I       -2.37086124       4.10061929      18.57646027                           
Cr       5.73080703       1.98523473      10.46423698                           
Cr       2.29229229       3.97042256      10.47271549                           
I        6.72497778      -0.00289519       8.93147663                           
I        3.51196949       2.11831465       8.93145308                           
I        0.07849930       3.84024628       8.93144278                           
I        4.73186155       0.00594958      12.00619783                           
I        4.51617900       3.83998833      12.00619302                           
I        1.06740595       2.10972815      12.00620106                           
Cr      -1.14618498       9.92605008      17.03520929                           
Cr      -4.58464539      11.91129453      17.04368562                           
I       -0.14721277       7.93494046      15.50172901                           
I       -3.37002766      10.05652383      15.50172980                           
I       -6.79826043      11.78676742      15.50174515                           
I       -2.14033808       7.94377266      18.57647573                           
I       -2.36580974      11.77819249      18.57647595                           
I       -5.80935225      10.05626043      18.57646027                           
Cr       2.29231601       7.94087586      10.46423698                           
Cr      -1.14619872       9.92606369      10.47271549                           
I        3.28648677       5.95274594       8.93147663                           
I        0.07347848       8.07395578       8.93145308                           
I       -3.35999171       9.79588741       8.93144278                           
I        1.29337054       5.96159071      12.00619783                           
I        1.07768799       9.79562946      12.00619302                           
I       -2.37108506       8.06536928      12.00620106                           
Cr      -4.58467600      15.88169122      17.03520929                           
Cr      -8.02313640      17.86693567      17.04368562                           
I       -3.58570378      13.89058160      15.50172901                           
I       -6.80851867      16.01216496      15.50172980                           
I      -10.23675144      17.74240855      15.50174515                           
I       -5.57882909      13.89941380      18.57647573                           
I       -5.80430075      17.73383362      18.57647595                           
I       -9.24784326      16.01190156      18.57646027                           
Cr      -1.14617500      13.89651700      10.46423698                           
Cr      -4.58468973      15.88170482      10.47271549                           
I       -0.15200424      11.90838708       8.93147663                           
I       -3.36501253      14.02959691       8.93145308                           
I       -6.79848272      15.75152855       8.93144278                           
I       -2.14512047      11.91723184      12.00619783                           
I       -2.36080302      15.75127059      12.00619302                           
I       -5.80957607      14.02101041      12.00620106                           
Cr      -8.02316701      21.83733235      17.03520929                           
Cr     -11.46162741      23.82257680      17.04368562                           
I       -7.02419479      19.84622273      15.50172901                           
I      -10.24700968      21.96780609      15.50172980                           
I      -13.67524245      23.69804968      15.50174515                           
I       -9.01732010      19.85505493      18.57647573                           
I       -9.24279176      23.68947476      18.57647595                           
I      -12.68633427      21.96754269      18.57646027                           
Cr      -4.58466601      19.85215813      10.46423698                           
Cr      -8.02318074      21.83734595      10.47271549                           
I       -3.59049526      17.86402821       8.93147663                           
I       -6.80350354      19.98523804       8.93145308                           
I      -10.23697373      21.70716968       8.93144278                           
I       -5.58361148      17.87287297      12.00619783                           
I       -5.79929403      21.70691172      12.00619302                           
I       -9.24806708      19.97665154      12.00620106                           
Cr     -11.46165802      27.79297348      17.03520929                           
Cr     -14.90011843      29.77821793      17.04368562                           
I      -10.46268580      25.80186386      15.50172901                           
I      -13.68550069      27.92344722      15.50172980                           
I      -17.11373346      29.65369082      15.50174515                           
I      -12.45581112      25.81069606      18.57647573                           
I      -12.68128277      29.64511589      18.57647595                           
I      -16.12482528      27.92318382      18.57646027                           
Cr      -8.02315702      25.80779926      10.46423698                           
Cr     -11.46167176      27.79298708      10.47271549                           
I       -7.02898627      23.81966934       8.93147663                           
I      -10.24199455      25.94087917       8.93145308                           
I      -13.67546474      27.66281081       8.93144278                           
I       -9.02210249      23.82851411      12.00619783                           
I       -9.23778504      27.66255286      12.00619302                           
I      -12.68655809      25.93229268      12.00620106                           
Cr     -14.90014903      33.74861461      17.03520929                           
Cr     -18.33860944      35.73385906      17.04368562                           
I      -13.90117681      31.75750499      15.50172901                           
I      -17.12399170      33.87908835      15.50172980                           
I      -20.55222447      35.60933195      15.50174515                           
I      -15.89430213      31.76633719      18.57647573                           
I      -16.11977378      35.60075702      18.57647595                           
I      -19.56331629      33.87882495      18.57646027                           
Cr     -11.46164803      31.76344039      10.46423698                           
Cr     -14.90016277      33.74862822      10.47271549                           
I      -10.46747728      29.77531047       8.93147663                           
I      -13.68048556      31.89652031       8.93145308                           
I      -17.11395575      33.61845194       8.93144278                           
I      -12.46059350      29.78415524      12.00619783                           
I      -12.67627606      33.61819399      12.00619302                           
I      -16.12504910      31.88793381      12.00620106                           
Cr       9.16928805       3.97040895      17.03520929                           
Cr       5.73082764       5.95565340      17.04368562                           
I       10.16826026       1.97929933      15.50172901                           
I        6.94544538       4.10088269      15.50172980                           
I        3.51721261       5.83112629      15.50174515                           
I        8.17513495       1.98813153      18.57647573                           
I        7.94966330       5.82255136      18.57647595                           
I        4.50612079       4.10061929      18.57646027                           
Cr      12.60778905       1.98523473      10.46423698                           
Cr       9.16927431       3.97042256      10.47271549                           
I       13.60195980      -0.00289519       8.93147663                           
I       10.38895151       2.11831465       8.93145308                           
I        6.95548132       3.84024628       8.93144278                           
I       11.60884358       0.00594958      12.00619783                           
I       11.39316102       3.83998833      12.00619302                           
I        7.94438798       2.10972815      12.00620106                           
Cr       5.73079704       9.92605008      17.03520929                           
Cr       2.29233663      11.91129453      17.04368562                           
I        6.72976925       7.93494046      15.50172901                           
I        3.50695437      10.05652383      15.50172980                           
I        0.07872159      11.78676742      15.50174515                           
I        4.73664394       7.94377266      18.57647573                           
I        4.51117228      11.77819249      18.57647595                           
I        1.06762977      10.05626043      18.57646027                           
Cr       9.16929804       7.94087586      10.46423698                           
Cr       5.73078330       9.92606369      10.47271549                           
I       10.16346879       5.95274594       8.93147663                           
I        6.95046050       8.07395578       8.93145308                           
I        3.51699031       9.79588741       8.93144278                           
I        8.17035256       5.96159071      12.00619783                           
I        7.95467001       9.79562946      12.00619302                           
I        4.50589697       8.06536928      12.00620106                           
Cr       2.29230603      15.88169122      17.03520929                           
Cr      -1.14615438      17.86693567      17.04368562                           
I        3.29127824      13.89058160      15.50172901                           
I        0.06846335      16.01216496      15.50172980                           
I       -3.35976942      17.74240855      15.50174515                           
I        1.29815293      13.89941380      18.57647573                           
I        1.07268127      17.73383362      18.57647595                           
I       -2.37086124      16.01190156      18.57646027                           
Cr       5.73080703      13.89651700      10.46423698                           
Cr       2.29229229      15.88170482      10.47271549                           
I        6.72497778      11.90838708       8.93147663                           
I        3.51196949      14.02959691       8.93145308                           
I        0.07849930      15.75152855       8.93144278                           
I        4.73186155      11.91723184      12.00619783                           
I        4.51617900      15.75127059      12.00619302                           
I        1.06740595      14.02101041      12.00620106                           
Cr      -1.14618498      21.83733235      17.03520929                           
Cr      -4.58464539      23.82257680      17.04368562                           
I       -0.14721277      19.84622273      15.50172901                           
I       -3.37002766      21.96780609      15.50172980                           
I       -6.79826043      23.69804968      15.50174515                           
I       -2.14033808      19.85505493      18.57647573                           
I       -2.36580974      23.68947476      18.57647595                           
I       -5.80935225      21.96754269      18.57646027                           
Cr       2.29231601      19.85215813      10.46423698                           
Cr      -1.14619872      21.83734595      10.47271549                           
I        3.28648677      17.86402821       8.93147663                           
I        0.07347848      19.98523804       8.93145308                           
I       -3.35999171      21.70716968       8.93144278                           
I        1.29337054      17.87287297      12.00619783                           
I        1.07768799      21.70691172      12.00619302                           
I       -2.37108506      19.97665154      12.00620106                           
Cr      -4.58467600      27.79297348      17.03520929                           
Cr      -8.02313640      29.77821793      17.04368562                           
I       -3.58570378      25.80186386      15.50172901                           
I       -6.80851867      27.92344722      15.50172980                           
I      -10.23675144      29.65369082      15.50174515                           
I       -5.57882909      25.81069606      18.57647573                           
I       -5.80430075      29.64511589      18.57647595                           
I       -9.24784326      27.92318382      18.57646027                           
Cr      -1.14617500      25.80779926      10.46423698                           
Cr      -4.58468973      27.79298708      10.47271549                           
I       -0.15200424      23.81966934       8.93147663                           
I       -3.36501253      25.94087917       8.93145308                           
I       -6.79848272      27.66281081       8.93144278                           
I       -2.14512047      23.82851411      12.00619783                           
I       -2.36080302      27.66255286      12.00619302                           
I       -5.80957607      25.93229268      12.00620106                           
Cr      -8.02316701      33.74861461      17.03520929                           
Cr     -11.46162741      35.73385906      17.04368562                           
I       -7.02419479      31.75750499      15.50172901                           
I      -10.24700968      33.87908835      15.50172980                           
I      -13.67524245      35.60933195      15.50174515                           
I       -9.01732010      31.76633719      18.57647573                           
I       -9.24279176      35.60075702      18.57647595                           
I      -12.68633427      33.87882495      18.57646027                           
Cr      -4.58466601      31.76344039      10.46423698                           
Cr      -8.02318074      33.74862822      10.47271549                           
I       -3.59049526      29.77531047       8.93147663                           
I       -6.80350354      31.89652031       8.93145308                           
I      -10.23697373      33.61845194       8.93144278                           
I       -5.58361148      29.78415524      12.00619783                           
I       -5.79929403      33.61819399      12.00619302                           
I       -9.24806708      31.88793381      12.00620106                           
Cr      16.04627007       3.97040895      17.03520929                           
Cr      12.60780966       5.95565340      17.04368562                           
I       17.04524228       1.97929933      15.50172901                           
I       13.82242740       4.10088269      15.50172980                           
I       10.39419463       5.83112629      15.50174515                           
I       15.05211697       1.98813153      18.57647573                           
I       14.82664532       5.82255136      18.57647595                           
I       11.38310281       4.10061929      18.57646027                           
Cr      19.48477107       1.98523473      10.46423698                           
Cr      16.04625633       3.97042256      10.47271549                           
I       20.47894182      -0.00289519       8.93147663                           
I       17.26593353       2.11831465       8.93145308                           
I       13.83246335       3.84024628       8.93144278                           
I       18.48582560       0.00594958      12.00619783                           
I       18.27014304       3.83998833      12.00619302                           
I       14.82137000       2.10972815      12.00620106                           
Cr      12.60777906       9.92605008      17.03520929                           
Cr       9.16931865      11.91129453      17.04368562                           
I       13.60675127       7.93494046      15.50172901                           
I       10.38393639      10.05652383      15.50172980                           
I        6.95570362      11.78676742      15.50174515                           
I       11.61362596       7.94377266      18.57647573                           
I       11.38815431      11.77819249      18.57647595                           
I        7.94461180      10.05626043      18.57646027                           
Cr      16.04628006       7.94087586      10.46423698                           
Cr      12.60776532       9.92606369      10.47271549                           
I       17.04045081       5.95274594       8.93147663                           
I       13.82744252       8.07395578       8.93145308                           
I       10.39397233       9.79588741       8.93144278                           
I       15.04733459       5.96159071      12.00619783                           
I       14.83165203       9.79562946      12.00619302                           
I       11.38287899       8.06536928      12.00620106                           
Cr       9.16928805      15.88169122      17.03520929                           
Cr       5.73082764      17.86693567      17.04368562                           
I       10.16826026      13.89058160      15.50172901                           
I        6.94544538      16.01216496      15.50172980                           
I        3.51721261      17.74240855      15.50174515                           
I        8.17513495      13.89941380      18.57647573                           
I        7.94966330      17.73383362      18.57647595                           
I        4.50612079      16.01190156      18.57646027                           
Cr      12.60778905      13.89651700      10.46423698                           
Cr       9.16927431      15.88170482      10.47271549                           
I       13.60195980      11.90838708       8.93147663                           
I       10.38895151      14.02959691       8.93145308                           
I        6.95548132      15.75152855       8.93144278                           
I       11.60884358      11.91723184      12.00619783                           
I       11.39316102      15.75127059      12.00619302                           
I        7.94438798      14.02101041      12.00620106                           
Cr       5.73079704      21.83733235      17.03520929                           
Cr       2.29233663      23.82257680      17.04368562                           
I        6.72976925      19.84622273      15.50172901                           
I        3.50695437      21.96780609      15.50172980                           
I        0.07872159      23.69804968      15.50174515                           
I        4.73664394      19.85505493      18.57647573                           
I        4.51117228      23.68947476      18.57647595                           
I        1.06762977      21.96754269      18.57646027                           
Cr       9.16929804      19.85215813      10.46423698                           
Cr       5.73078330      21.83734595      10.47271549                           
I       10.16346879      17.86402821       8.93147663                           
I        6.95046050      19.98523804       8.93145308                           
I        3.51699031      21.70716968       8.93144278                           
I        8.17035256      17.87287297      12.00619783                           
I        7.95467001      21.70691172      12.00619302                           
I        4.50589697      19.97665154      12.00620106                           
Cr       2.29230603      27.79297348      17.03520929                           
Cr      -1.14615438      29.77821793      17.04368562                           
I        3.29127824      25.80186386      15.50172901                           
I        0.06846335      27.92344722      15.50172980                           
I       -3.35976942      29.65369082      15.50174515                           
I        1.29815293      25.81069606      18.57647573                           
I        1.07268127      29.64511589      18.57647595                           
I       -2.37086124      27.92318382      18.57646027                           
Cr       5.73080703      25.80779926      10.46423698                           
Cr       2.29229229      27.79298708      10.47271549                           
I        6.72497778      23.81966934       8.93147663                           
I        3.51196949      25.94087917       8.93145308                           
I        0.07849930      27.66281081       8.93144278                           
I        4.73186155      23.82851411      12.00619783                           
I        4.51617900      27.66255286      12.00619302                           
I        1.06740595      25.93229268      12.00620106                           
Cr      -1.14618498      33.74861461      17.03520929                           
Cr      -4.58464539      35.73385906      17.04368562                           
I       -0.14721277      31.75750499      15.50172901                           
I       -3.37002766      33.87908835      15.50172980                           
I       -6.79826043      35.60933195      15.50174515                           
I       -2.14033808      31.76633719      18.57647573                           
I       -2.36580974      35.60075702      18.57647595                           
I       -5.80935225      33.87882495      18.57646027                           
Cr       2.29231601      31.76344039      10.46423698                           
Cr      -1.14619872      33.74862822      10.47271549                           
I        3.28648677      29.77531047       8.93147663                           
I        0.07347848      31.89652031       8.93145308                           
I       -3.35999171      33.61845194       8.93144278                           
I        1.29337054      29.78415524      12.00619783                           
I        1.07768799      33.61819399      12.00619302                           
I       -2.37108506      31.88793381      12.00620106                           
Cr      22.92325209       3.97040895      17.03520929                           
Cr      19.48479168       5.95565340      17.04368562                           
I       23.92222431       1.97929933      15.50172901                           
I       20.69940942       4.10088269      15.50172980                           
I       17.27117665       5.83112629      15.50174515                           
I       21.92909899       1.98813153      18.57647573                           
I       21.70362734       5.82255136      18.57647595                           
I       18.26008483       4.10061929      18.57646027                           
Cr      26.36175309       1.98523473      10.46423698                           
Cr      22.92323835       3.97042256      10.47271549                           
I       27.35592384      -0.00289519       8.93147663                           
I       24.14291556       2.11831465       8.93145308                           
I       20.70944537       3.84024628       8.93144278                           
I       25.36280762       0.00594958      12.00619783                           
I       25.14712507       3.83998833      12.00619302                           
I       21.69835202       2.10972815      12.00620106                           
Cr      19.48476108       9.92605008      17.03520929                           
Cr      16.04630067      11.91129453      17.04368562                           
I       20.48373330       7.93494046      15.50172901                           
I       17.26091841      10.05652383      15.50172980                           
I       13.83268564      11.78676742      15.50174515                           
I       18.49060798       7.94377266      18.57647573                           
I       18.26513633      11.77819249      18.57647595                           
I       14.82159382      10.05626043      18.57646027                           
Cr      22.92326208       7.94087586      10.46423698                           
Cr      19.48474734       9.92606369      10.47271549                           
I       23.91743283       5.95274594       8.93147663                           
I       20.70442455       8.07395578       8.93145308                           
I       17.27095436       9.79588741       8.93144278                           
I       21.92431661       5.96159071      12.00619783                           
I       21.70863405       9.79562946      12.00619302                           
I       18.25986101       8.06536928      12.00620106                           
Cr      16.04627007      15.88169122      17.03520929                           
Cr      12.60780966      17.86693567      17.04368562                           
I       17.04524228      13.89058160      15.50172901                           
I       13.82242740      16.01216496      15.50172980                           
I       10.39419463      17.74240855      15.50174515                           
I       15.05211697      13.89941380      18.57647573                           
I       14.82664532      17.73383362      18.57647595                           
I       11.38310281      16.01190156      18.57646027                           
Cr      19.48477107      13.89651700      10.46423698                           
Cr      16.04625633      15.88170482      10.47271549                           
I       20.47894182      11.90838708       8.93147663                           
I       17.26593353      14.02959691       8.93145308                           
I       13.83246335      15.75152855       8.93144278                           
I       18.48582560      11.91723184      12.00619783                           
I       18.27014304      15.75127059      12.00619302                           
I       14.82137000      14.02101041      12.00620106                           
Cr      12.60777906      21.83733235      17.03520929                           
Cr       9.16931865      23.82257680      17.04368562                           
I       13.60675127      19.84622273      15.50172901                           
I       10.38393639      21.96780609      15.50172980                           
I        6.95570362      23.69804968      15.50174515                           
I       11.61362596      19.85505493      18.57647573                           
I       11.38815431      23.68947476      18.57647595                           
I        7.94461180      21.96754269      18.57646027                           
Cr      16.04628006      19.85215813      10.46423698                           
Cr      12.60776532      21.83734595      10.47271549                           
I       17.04045081      17.86402821       8.93147663                           
I       13.82744252      19.98523804       8.93145308                           
I       10.39397233      21.70716968       8.93144278                           
I       15.04733459      17.87287297      12.00619783                           
I       14.83165203      21.70691172      12.00619302                           
I       11.38287899      19.97665154      12.00620106                           
Cr       9.16928805      27.79297348      17.03520929                           
Cr       5.73082764      29.77821793      17.04368562                           
I       10.16826026      25.80186386      15.50172901                           
I        6.94544538      27.92344722      15.50172980                           
I        3.51721261      29.65369082      15.50174515                           
I        8.17513495      25.81069606      18.57647573                           
I        7.94966330      29.64511589      18.57647595                           
I        4.50612079      27.92318382      18.57646027                           
Cr      12.60778905      25.80779926      10.46423698                           
Cr       9.16927431      27.79298708      10.47271549                           
I       13.60195980      23.81966934       8.93147663                           
I       10.38895151      25.94087917       8.93145308                           
I        6.95548132      27.66281081       8.93144278                           
I       11.60884358      23.82851411      12.00619783                           
I       11.39316102      27.66255286      12.00619302                           
I        7.94438798      25.93229268      12.00620106                           
Cr       5.73079704      33.74861461      17.03520929                           
Cr       2.29233663      35.73385906      17.04368562                           
I        6.72976925      31.75750499      15.50172901                           
I        3.50695437      33.87908835      15.50172980                           
I        0.07872159      35.60933195      15.50174515                           
I        4.73664394      31.76633719      18.57647573                           
I        4.51117228      35.60075702      18.57647595                           
I        1.06762977      33.87882495      18.57646027                           
Cr       9.16929804      31.76344039      10.46423698                           
Cr       5.73078330      33.74862822      10.47271549                           
I       10.16346879      29.77531047       8.93147663                           
I        6.95046050      31.89652031       8.93145308                           
I        3.51699031      33.61845194       8.93144278                           
I        8.17035256      29.78415524      12.00619783                           
I        7.95467001      33.61819399      12.00619302                           
I        4.50589697      31.88793381      12.00620106                           
Cr      29.80023411       3.97040895      17.03520929                           
Cr      26.36177371       5.95565340      17.04368562                           
I       30.79920633       1.97929933      15.50172901                           
I       27.57639144       4.10088269      15.50172980                           
I       24.14815867       5.83112629      15.50174515                           
I       28.80608102       1.98813153      18.57647573                           
I       28.58060936       5.82255136      18.57647595                           
I       25.13706685       4.10061929      18.57646027                           
Cr      33.23873511       1.98523473      10.46423698                           
Cr      29.80022038       3.97042256      10.47271549                           
I       34.23290587      -0.00289519       8.93147663                           
I       31.01989758       2.11831465       8.93145308                           
I       27.58642739       3.84024628       8.93144278                           
I       32.23978964       0.00594958      12.00619783                           
I       32.02410709       3.83998833      12.00619302                           
I       28.57533404       2.10972815      12.00620106                           
Cr      26.36174310       9.92605008      17.03520929                           
Cr      22.92328270      11.91129453      17.04368562                           
I       27.36071532       7.93494046      15.50172901                           
I       24.13790043      10.05652383      15.50172980                           
I       20.70966766      11.78676742      15.50174515                           
I       25.36759001       7.94377266      18.57647573                           
I       25.14211835      11.77819249      18.57647595                           
I       21.69857584      10.05626043      18.57646027                           
Cr      29.80024410       7.94087586      10.46423698                           
Cr      26.36172937       9.92606369      10.47271549                           
I       30.79441485       5.95274594       8.93147663                           
I       27.58140657       8.07395578       8.93145308                           
I       24.14793638       9.79588741       8.93144278                           
I       28.80129863       5.96159071      12.00619783                           
I       28.58561608       9.79562946      12.00619302                           
I       25.13684303       8.06536928      12.00620106                           
Cr      22.92325209      15.88169122      17.03520929                           
Cr      19.48479168      17.86693567      17.04368562                           
I       23.92222431      13.89058160      15.50172901                           
I       20.69940942      16.01216496      15.50172980                           
I       17.27117665      17.74240855      15.50174515                           
I       21.92909899      13.89941380      18.57647573                           
I       21.70362734      17.73383362      18.57647595                           
I       18.26008483      16.01190156      18.57646027                           
Cr      26.36175309      13.89651700      10.46423698                           
Cr      22.92323835      15.88170482      10.47271549                           
I       27.35592384      11.90838708       8.93147663                           
I       24.14291556      14.02959691       8.93145308                           
I       20.70944537      15.75152855       8.93144278                           
I       25.36280762      11.91723184      12.00619783                           
I       25.14712507      15.75127059      12.00619302                           
I       21.69835202      14.02101041      12.00620106                           
Cr      19.48476108      21.83733235      17.03520929                           
Cr      16.04630067      23.82257680      17.04368562                           
I       20.48373330      19.84622273      15.50172901                           
I       17.26091841      21.96780609      15.50172980                           
I       13.83268564      23.69804968      15.50174515                           
I       18.49060798      19.85505493      18.57647573                           
I       18.26513633      23.68947476      18.57647595                           
I       14.82159382      21.96754269      18.57646027                           
Cr      22.92326208      19.85215813      10.46423698                           
Cr      19.48474734      21.83734595      10.47271549                           
I       23.91743283      17.86402821       8.93147663                           
I       20.70442455      19.98523804       8.93145308                           
I       17.27095436      21.70716968       8.93144278                           
I       21.92431661      17.87287297      12.00619783                           
I       21.70863405      21.70691172      12.00619302                           
I       18.25986101      19.97665154      12.00620106                           
Cr      16.04627007      27.79297348      17.03520929                           
Cr      12.60780966      29.77821793      17.04368562                           
I       17.04524228      25.80186386      15.50172901                           
I       13.82242740      27.92344722      15.50172980                           
I       10.39419463      29.65369082      15.50174515                           
I       15.05211697      25.81069606      18.57647573                           
I       14.82664532      29.64511589      18.57647595                           
I       11.38310281      27.92318382      18.57646027                           
Cr      19.48477107      25.80779926      10.46423698                           
Cr      16.04625633      27.79298708      10.47271549                           
I       20.47894182      23.81966934       8.93147663                           
I       17.26593353      25.94087917       8.93145308                           
I       13.83246335      27.66281081       8.93144278                           
I       18.48582560      23.82851411      12.00619783                           
I       18.27014304      27.66255286      12.00619302                           
I       14.82137000      25.93229268      12.00620106                           
Cr      12.60777906      33.74861461      17.03520929                           
Cr       9.16931865      35.73385906      17.04368562                           
I       13.60675127      31.75750499      15.50172901                           
I       10.38393639      33.87908835      15.50172980                           
I        6.95570362      35.60933195      15.50174515                           
I       11.61362596      31.76633719      18.57647573                           
I       11.38815431      35.60075702      18.57647595                           
I        7.94461180      33.87882495      18.57646027                           
Cr      16.04628006      31.76344039      10.46423698                           
Cr      12.60776532      33.74862822      10.47271549                           
I       17.04045081      29.77531047       8.93147663                           
I       13.82744252      31.89652031       8.93145308                           
I       10.39397233      33.61845194       8.93144278                           
I       15.04733459      29.78415524      12.00619783                           
I       14.83165203      33.61819399      12.00619302                           
I       11.38287899      31.88793381      12.00620106                           
Cr      36.67721614       3.97040895      17.03520929                           
Cr      33.23875573       5.95565340      17.04368562                           
I       37.67618835       1.97929933      15.50172901                           
I       34.45337346       4.10088269      15.50172980                           
I       31.02514069       5.83112629      15.50174515                           
I       35.68306304       1.98813153      18.57647573                           
I       35.45759138       5.82255136      18.57647595                           
I       32.01404887       4.10061929      18.57646027                           
Cr      40.11571714       1.98523473      10.46423698                           
Cr      36.67720240       3.97042256      10.47271549                           
I       41.10988789      -0.00289519       8.93147663                           
I       37.89687960       2.11831465       8.93145308                           
I       34.46340941       3.84024628       8.93144278                           
I       39.11677166       0.00594958      12.00619783                           
I       38.90108911       3.83998833      12.00619302                           
I       35.45231606       2.10972815      12.00620106                           
Cr      33.23872513       9.92605008      17.03520929                           
Cr      29.80026472      11.91129453      17.04368562                           
I       34.23769734       7.93494046      15.50172901                           
I       31.01488245      10.05652383      15.50172980                           
I       27.58664968      11.78676742      15.50174515                           
I       32.24457203       7.94377266      18.57647573                           
I       32.01910037      11.77819249      18.57647595                           
I       28.57555786      10.05626043      18.57646027                           
Cr      36.67722612       7.94087586      10.46423698                           
Cr      33.23871139       9.92606369      10.47271549                           
I       37.67139688       5.95274594       8.93147663                           
I       34.45838859       8.07395578       8.93145308                           
I       31.02491840       9.79588741       8.93144278                           
I       35.67828065       5.96159071      12.00619783                           
I       35.46259810       9.79562946      12.00619302                           
I       32.01382505       8.06536928      12.00620106                           
Cr      29.80023411      15.88169122      17.03520929                           
Cr      26.36177371      17.86693567      17.04368562                           
I       30.79920633      13.89058160      15.50172901                           
I       27.57639144      16.01216496      15.50172980                           
I       24.14815867      17.74240855      15.50174515                           
I       28.80608102      13.89941380      18.57647573                           
I       28.58060936      17.73383362      18.57647595                           
I       25.13706685      16.01190156      18.57646027                           
Cr      33.23873511      13.89651700      10.46423698                           
Cr      29.80022038      15.88170482      10.47271549                           
I       34.23290587      11.90838708       8.93147663                           
I       31.01989758      14.02959691       8.93145308                           
I       27.58642739      15.75152855       8.93144278                           
I       32.23978964      11.91723184      12.00619783                           
I       32.02410709      15.75127059      12.00619302                           
I       28.57533404      14.02101041      12.00620106                           
Cr      26.36174310      21.83733235      17.03520929                           
Cr      22.92328270      23.82257680      17.04368562                           
I       27.36071532      19.84622273      15.50172901                           
I       24.13790043      21.96780609      15.50172980                           
I       20.70966766      23.69804968      15.50174515                           
I       25.36759001      19.85505493      18.57647573                           
I       25.14211835      23.68947476      18.57647595                           
I       21.69857584      21.96754269      18.57646027                           
Cr      29.80024410      19.85215813      10.46423698                           
Cr      26.36172937      21.83734595      10.47271549                           
I       30.79441485      17.86402821       8.93147663                           
I       27.58140657      19.98523804       8.93145308                           
I       24.14793638      21.70716968       8.93144278                           
I       28.80129863      17.87287297      12.00619783                           
I       28.58561608      21.70691172      12.00619302                           
I       25.13684303      19.97665154      12.00620106                           
Cr      22.92325209      27.79297348      17.03520929                           
Cr      19.48479168      29.77821793      17.04368562                           
I       23.92222431      25.80186386      15.50172901                           
I       20.69940942      27.92344722      15.50172980                           
I       17.27117665      29.65369082      15.50174515                           
I       21.92909899      25.81069606      18.57647573                           
I       21.70362734      29.64511589      18.57647595                           
I       18.26008483      27.92318382      18.57646027                           
Cr      26.36175309      25.80779926      10.46423698                           
Cr      22.92323835      27.79298708      10.47271549                           
I       27.35592384      23.81966934       8.93147663                           
I       24.14291556      25.94087917       8.93145308                           
I       20.70944537      27.66281081       8.93144278                           
I       25.36280762      23.82851411      12.00619783                           
I       25.14712507      27.66255286      12.00619302                           
I       21.69835202      25.93229268      12.00620106                           
Cr      19.48476108      33.74861461      17.03520929                           
Cr      16.04630067      35.73385906      17.04368562                           
I       20.48373330      31.75750499      15.50172901                           
I       17.26091841      33.87908835      15.50172980                           
I       13.83268564      35.60933195      15.50174515                           
I       18.49060798      31.76633719      18.57647573                           
I       18.26513633      35.60075702      18.57647595                           
I       14.82159382      33.87882495      18.57646027                           
Cr      22.92326208      31.76344039      10.46423698                           
Cr      19.48474734      33.74862822      10.47271549                           
I       23.91743283      29.77531047       8.93147663                           
I       20.70442455      31.89652031       8.93145308                           
I       17.27095436      33.61845194       8.93144278                           
I       21.92431661      29.78415524      12.00619783                           
I       21.70863405      33.61819399      12.00619302                           
I       18.25986101      31.88793381      12.00620106                           
%ENDBLOCK POSITIONS_ABS                                                         
%BLOCK SPECIES                                                                  
Cr Cr 24 -1 15                                                                  
I   I  53 -1 15                                                                 
%ENDBLOCK SPECIES                                                               
%BLOCK SPECIES_ATOMIC_SET                                                       
Cr "SOLVE INIT SPIN=3"                                                          
I   "SOLVE"                                                                     
%ENDBLOCK SPECIES_ATOMIC_SET                                                    
%BLOCK HUBBARD                                                                  
Cr  2 2.97 0.37 -10.0 0.00 0.0                                                  
%ENDBLOCK HUBBARD                                                               
%BLOCK SPECIES_LDOS_GROUPS                                                      
Cr                                                                              
I                                                                               
%ENDBLOCK SPECIES_LDOS_GROUPS                                                   
%BLOCK SPECIES_POT                                                              
Cr  "../../../../Cr.PBE-paw.abinit"                                             
I   "../../../../I.PBE-paw.abinit"                                              
%ENDBLOCK SPECIES_POT                                                           

--------------------------------------------------------------------------------
-------------------------------- END INPUT FILE --------------------------------
--------------------------------------------------------------------------------


 
 ESDF WARNING(1): "charge" (esdf_physical) has no units. Assume "e".
<<<<<<<<<<<<<<<<<<<<<<<<<<<<<<<<< Full system >>>>>>>>>>>>>>>>>>>>>>>>>>>>>>>>>>
<<<<<<<<<<<<<<<<<<<<<<<<<<< PAW Dataset information >>>>>>>>>>>>>>>>>>>>>>>>>>>
File: ../../../../Cr.PBE-paw.abinit; rc = 2.11 bohr; shape type =  2; rshape = 1.80 bohr;
  Atomic number: 24;  ionic charge: 14.000000
    Partial Wave 1: l = 0
    Partial Wave 2: l = 0
    Partial Wave 3: l = 1
    Partial Wave 4: l = 1
    Partial Wave 5: l = 2
    Partial Wave 6: l = 2
  Core charge supplied for Nonlinear Core Corrections
File: ../../../../I.PBE-paw.abinit; rc = 2.30 bohr; shape type =  2; rshape = 2.11 bohr;
  Atomic number: 53;  ionic charge:  7.000000
    Partial Wave 1: l = 0
    Partial Wave 2: l = 0
    Partial Wave 3: l = 1
    Partial Wave 4: l = 1
  Core charge supplied for Nonlinear Core Corrections
<<<<<<<<<<<<<<<<<<<<<<<<<<<<<<<<<<<<<<< >>>>>>>>>>>>>>>>>>>>>>>>>>>>>>>>>>>>>>>

-------------------------- Atom counting information ---------------------------
Symbol    Natoms    Nngwfs    Nprojs
  Cr       144      1872      2592
  I        432      1728      3456
.......   ......    ......    ......
Totals:    576      3600      6048
--------------------------------------------------------------------------------

=============================== PSINC grid sizes ===============================
                      Simulation cell:  175 x 175 x 117
                              FFT-box:  175 x 175 x 117
                                  PPD:    5 x   5 x   1
Grid space d1=  0.445563862424a0 (KE cutoff=  38.26345Eh =1041.20135eV)
Grid space d2=  0.445563862400a0 (KE cutoff=  38.26345Eh =1041.20135eV)
Grid space d3=  0.444294449711a0 (KE cutoff=  38.48241Eh =1047.15957eV)
================================================================================

********************* Fourier parallelisation information **********************
       Coarse grid (whole simulation cell) dimensions:    175   175   117
          Real-space ('12') slabs/proc (min max mean):      0     1     0
         Recip-space ('23') slabs/proc (min max mean):      0     1     0
********************************************************************************

********************* Fourier parallelisation information **********************
       Double grid (whole simulation cell) dimensions:    350   350   234
          Real-space ('12') slabs/proc (min max mean):      1     2     1
         Recip-space ('23') slabs/proc (min max mean):      1     2     1
********************************************************************************

********************* Fourier parallelisation information **********************
         Fine grid (whole simulation cell) dimensions:    700   700   468
          Real-space ('12') slabs/proc (min max mean):      3     4     3
         Recip-space ('23') slabs/proc (min max mean):      2     3     2
********************************************************************************

Atom SCF Calculation for Cr : Z (AE atom) =  24 : Z (PS atom) =  14
Config String: 3s2.0 3p6.0 3d5.0 4s1.0 4p0.0 INIT SPIN=3
Orbitals (num,occ):  5     2.00 6.00 5.00 1.00 0.00
Orbitals   (num,l):  5        0    1    2    0    1
Atom SCF converged after  64 iterations to a total energy of    -87.07044631
Adjusting orbital occupancies:
Orbitals (num,spin,occ):  5  1     1.00 3.00 3.50 1.00 0.00
Orbitals   (num,spin,l):  5  1        0    1    2    0    1
Orbitals (num,spin,occ):  5  2     1.00 3.00 1.00 0.50 0.00
Orbitals   (num,spin,l):  5  2        0    1    2    0    1

Atom SCF Calculation for I  : Z (AE atom) =  53 : Z (PS atom) =   7
Config String: 5s2.0 5p5.0
Orbitals (num,occ):  2     2.00 5.00
Orbitals   (num,l):  2        0    1
Atom SCF converged after  28 iterations to a total energy of    -11.61352964

Atom SCF Calculation for Cr : Z (AE atom) =  24 : Z (PS atom) =  14
Config String: 3s2.0 3p6.0 3d5.0 4s1.0 4p0.0 INIT SPIN=3
Orbitals (num,occ):  5     2.00 6.00 5.00 1.00 0.00
Orbitals   (num,l):  5        0    1    2    0    1
Atom SCF converged after  64 iterations to a total energy of    -87.07044631

Atom SCF Calculation for I  : Z (AE atom) =  53 : Z (PS atom) =   7
Config String: 5s2.0 5p5.0
Orbitals (num,occ):  2     2.00 5.00
Orbitals   (num,l):  2        0    1
Atom SCF converged after  28 iterations to a total energy of    -11.61352964

Determining parallel strategy ...... done
Calculating Ewald energy ...            31583.245177 Hartree
Basis initialisation ...
... done

============================= Charge Augmentation ==============================
                           Aug box size:   49 x  49 x  45
================================================================================
Sparse matrix initialisation ...
 done
NGWF initialisation ... done
 done

================================= Core Density =================================
               Core den box size:  125 x 125 x 105
================================================================================
Density kernel initialisation

--------------------------- Ensemble-DFT optimisation --------------------------
Running ScaLAPACK on  150 processor(s).
With smearing scheme: FERMIDIRAC                                                                      

--------------------------------------------------------------------------------
  Iter                              Commutator    Free_energy(A=E-TS)     DeltaA
#    0                          0.005769432907  -17487.81575175712710  -1.75E+04
#    1                          0.002533655815  -17569.40037390729780  -8.16E+01
#    2                          0.000220309217  -17612.39139505294590  -4.30E+01
#    3                          0.000176896221  -17612.79192447350210  -4.01E-01
#    4                          0.000149977922  -17613.04663051182800  -2.55E-01
#    5                          0.000107181876  -17613.22350641445520  -1.77E-01
#    6                          0.000096462390  -17613.33667536055510  -1.13E-01
#    7                          0.000068775784  -17613.41373424560150  -7.71E-02
#    8                          0.000062480976  -17613.46288101133910  -4.91E-02
#    9                          0.000046688283  -17613.49765375531930  -3.48E-02
#   10                          0.000041359150  -17613.52003317765780  -2.24E-02
#   11                          0.000033325351  -17613.53680251021430  -1.68E-02
#   12                          0.000027994304  -17613.54776265675170  -1.10E-02
#   13                          0.000024768820  -17613.55638654643550  -8.62E-03
#   14                          0.000019082870  -17613.56198585679520  -5.60E-03
#   15                          0.000019619621  -17613.56667431002640  -4.69E-03
Finished EDFT density kernel iterations (  15)


Writing density kernel to file "Cr2I6_bilayer_LT_FM_FM_SP.dkn" ... done

Writing Hamiltonian to file "Cr2I6_bilayer_LT_FM_FM_SP.ham" ... done

Writing density kernel to file "Cr2I6_bilayer_LT_FM_FM_SP.dkn" ... done

>>> Optimising kernel for current NGWFs:
   iter  |      energy (Eh)       | rms gradient |  commutator  |   dE (Eh)
    1        -1.761356586314E+04     3.4576E-05     1.8995E-05
    2        -1.761356821111E+04     3.7989E-05     1.9348E-05    -2.3480E-03
    3        -1.761357062463E+04     5.2879E-05     2.7489E-05    -2.4135E-03
    4        -1.761357419109E+04     6.2797E-05     3.2523E-05    -3.5665E-03
    5        -1.761357619643E+04     3.9843E-05     2.0755E-05    -2.0053E-03
Finished density kernel iterations (   5)

Writing density kernel to file "Cr2I6_bilayer_LT_FM_FM_SP.dkn" ... done


>>> Density kernel optimised for the current NGWF basis:
     ~~~~~~~~~~~~~~~~~~~~~~~~~~~~~~~~~~~~~~~~~~~~~~~~~~~~~~~~~~~
     Total energy                =  -1.76135761964284E+04  Eh
     Estimated bandgap (UP spin) =   3.6037E-02  Eh
     Estimated bandgap (DN spin) =   1.1045E-01  Eh
     RMS occupancy error         =   2.8153E-09
     [H,K] commutator            =   2.0755E-05
     UP spin occupancy bounds    = [ -0.000:  1.000]
     DN spin occupancy bounds    = [ -0.000:  1.000]
     ~~~~~~~~~~~~~~~~~~~~~~~~~~~~~~~~~~~~~~~~~~~~~~~~~~~~~~~~~~~




################################################################################
########################### NGWF CG iteration  001 #############################
################################################################################

>>> Checking for convergence of NGWFs:   NOT CONVERGED
  ========================================================================
         NGWF RMS gradient =  1.0291E-04 >  1.0000E-06  | above tolerance
  ========================================================================

>>> Improving NGWFs using line search:
  ========================================================================
   Predicted total energy    =      -1.76215879514335E+04 Eh
   Predicted gain in energy  =      -8.01175500508907E+00 Eh
  ========================================================================

Writing NGWFs to file "Cr2I6_bilayer_LT_FM_FM_SP.tightbox_ngwfs".... done

>>> Optimising kernel for current NGWFs:
   iter  |      energy (Eh)       | rms gradient |  commutator  |   dE (Eh)
    1        -1.762157386713E+04     5.6230E-04     2.8411E-04
    2        -1.762198473381E+04     2.2860E-04     1.1577E-04    -4.1087E-01
    3        -1.762203001726E+04     9.7771E-05     4.9634E-05    -4.5283E-02
    4        -1.762204263643E+04     6.6929E-05     3.3986E-05    -1.2619E-02
    5        -1.762204989151E+04     2.9212E-05     1.4857E-05    -7.2551E-03
Finished density kernel iterations (   5)

Writing density kernel to file "Cr2I6_bilayer_LT_FM_FM_SP.dkn" ... done


>>> Density kernel optimised for the current NGWF basis:
     ~~~~~~~~~~~~~~~~~~~~~~~~~~~~~~~~~~~~~~~~~~~~~~~~~~~~~~~~~~~
     Total energy                =  -1.76220498915149E+04  Eh
     Estimated bandgap (UP spin) =   4.2758E-02  Eh
     Estimated bandgap (DN spin) =   1.2177E-01  Eh
     RMS occupancy error         =   8.1177E-10
     [H,K] commutator            =   1.4857E-05
     UP spin occupancy bounds    = [ -0.000:  1.000]
     DN spin occupancy bounds    = [ -0.000:  1.000]
     ~~~~~~~~~~~~~~~~~~~~~~~~~~~~~~~~~~~~~~~~~~~~~~~~~~~~~~~~~~~




################################################################################
########################### NGWF CG iteration  002 #############################
################################################################################

>>> Checking for convergence of NGWFs:   NOT CONVERGED
  ========================================================================
         NGWF RMS gradient =  6.9610E-05 >  1.0000E-06  | above tolerance
  Maximum change in energy =  1.4711E-02 >  1.0000E-07  | above tolerance
  ========================================================================

>>> Improving NGWFs using line search:
  ========================================================================
   Predicted total energy    =      -1.76247416654390E+04 Eh
   Predicted gain in energy  =      -2.69177392409256E+00 Eh
  ========================================================================

Writing NGWFs to file "Cr2I6_bilayer_LT_FM_FM_SP.tightbox_ngwfs".... done

>>> Optimising kernel for current NGWFs:
   iter  |      energy (Eh)       | rms gradient |  commutator  |   dE (Eh)
    1        -1.762473347255E+04     2.0706E-04     1.0535E-04
    2        -1.762479992074E+04     4.7202E-05     2.3485E-05    -6.6448E-02
    3        -1.762480493018E+04     5.5923E-05     2.9212E-05    -5.0094E-03
    4        -1.762480845903E+04     2.6840E-05     1.3619E-05    -3.5288E-03
    5        -1.762480977187E+04     2.5671E-05     1.3199E-05    -1.3128E-03
Finished density kernel iterations (   5)

Writing density kernel to file "Cr2I6_bilayer_LT_FM_FM_SP.dkn" ... done


>>> Density kernel optimised for the current NGWF basis:
     ~~~~~~~~~~~~~~~~~~~~~~~~~~~~~~~~~~~~~~~~~~~~~~~~~~~~~~~~~~~
     Total energy                =  -1.76248097718719E+04  Eh
     Estimated bandgap (UP spin) =   4.2132E-02  Eh
     Estimated bandgap (DN spin) =   1.2174E-01  Eh
     RMS occupancy error         =   8.2551E-11
     [H,K] commutator            =   1.3199E-05
     UP spin occupancy bounds    = [ -0.000:  1.000]
     DN spin occupancy bounds    = [ -0.000:  1.000]
     ~~~~~~~~~~~~~~~~~~~~~~~~~~~~~~~~~~~~~~~~~~~~~~~~~~~~~~~~~~~




################################################################################
########################### NGWF CG iteration  003 #############################
################################################################################

>>> Checking for convergence of NGWFs:   NOT CONVERGED
  ========================================================================
         NGWF RMS gradient =  4.2953E-05 >  1.0000E-06  | above tolerance
  Maximum change in energy =  1.4711E-02 >  1.0000E-07  | above tolerance
  ========================================================================

>>> Improving NGWFs using line search:
  ========================================================================
   Predicted total energy    =      -1.76259179125768E+04 Eh
   Predicted gain in energy  =      -1.10814070496781E+00 Eh
  ========================================================================

Writing NGWFs to file "Cr2I6_bilayer_LT_FM_FM_SP.tightbox_ngwfs".... done

>>> Optimising kernel for current NGWFs:
   iter  |      energy (Eh)       | rms gradient |  commutator  |   dE (Eh)
    1        -1.762590804373E+04     2.1093E-04     1.0704E-04
    2        -1.762595824055E+04     1.0020E-04     5.1467E-05    -5.0197E-02
    3        -1.762596663008E+04     3.5183E-05     1.7837E-05    -8.3895E-03
    4        -1.762596849059E+04     2.6730E-05     1.3369E-05    -1.8605E-03
    5        -1.762597003405E+04     1.6486E-05     8.4138E-06    -1.5435E-03
Finished density kernel iterations (   5)

Writing density kernel to file "Cr2I6_bilayer_LT_FM_FM_SP.dkn" ... done


>>> Density kernel optimised for the current NGWF basis:
     ~~~~~~~~~~~~~~~~~~~~~~~~~~~~~~~~~~~~~~~~~~~~~~~~~~~~~~~~~~~
     Total energy                =  -1.76259700340455E+04  Eh
     Estimated bandgap (UP spin) =   4.2398E-02  Eh
     Estimated bandgap (DN spin) =   1.2281E-01  Eh
     RMS occupancy error         =   1.3393E-10
     [H,K] commutator            =   8.4138E-06
     UP spin occupancy bounds    = [  0.000:  1.000]
     DN spin occupancy bounds    = [  0.000:  1.000]
     ~~~~~~~~~~~~~~~~~~~~~~~~~~~~~~~~~~~~~~~~~~~~~~~~~~~~~~~~~~~




################################################################################
########################### NGWF CG iteration  004 #############################
################################################################################

>>> Checking for convergence of NGWFs:   NOT CONVERGED
  ========================================================================
         NGWF RMS gradient =  2.9552E-05 >  1.0000E-06  | above tolerance
  Maximum change in energy =  4.7915E-03 >  1.0000E-07  | above tolerance
  ========================================================================

>>> Improving NGWFs using line search:
  ========================================================================
   Predicted total energy    =      -1.76265564671406E+04 Eh
   Predicted gain in energy  =      -5.86433095097163E-01 Eh
  ========================================================================

Writing NGWFs to file "Cr2I6_bilayer_LT_FM_FM_SP.tightbox_ngwfs".... done

>>> Optimising kernel for current NGWFs:
   iter  |      energy (Eh)       | rms gradient |  commutator  |   dE (Eh)
    1        -1.762654597028E+04     9.2129E-05     4.7018E-05
    2        -1.762655650906E+04     4.6438E-05     2.4433E-05    -1.0539E-02
    3        -1.762655857103E+04     2.4633E-05     1.2692E-05    -2.0620E-03
    4        -1.762655964532E+04     2.2023E-05     1.1327E-05    -1.0743E-03
    5        -1.762656045635E+04     1.1470E-05     5.7679E-06    -8.1103E-04
Finished density kernel iterations (   5)

Writing density kernel to file "Cr2I6_bilayer_LT_FM_FM_SP.dkn" ... done


>>> Density kernel optimised for the current NGWF basis:
     ~~~~~~~~~~~~~~~~~~~~~~~~~~~~~~~~~~~~~~~~~~~~~~~~~~~~~~~~~~~
     Total energy                =  -1.76265604563486E+04  Eh
     Estimated bandgap (UP spin) =   4.1767E-02  Eh
     Estimated bandgap (DN spin) =   1.2243E-01  Eh
     RMS occupancy error         =   8.5576E-11
     [H,K] commutator            =   5.7679E-06
     UP spin occupancy bounds    = [  0.000:  1.000]
     DN spin occupancy bounds    = [  0.000:  1.000]
     ~~~~~~~~~~~~~~~~~~~~~~~~~~~~~~~~~~~~~~~~~~~~~~~~~~~~~~~~~~~




################################################################################
########################### NGWF CG iteration  005 #############################
################################################################################

>>> Checking for convergence of NGWFs:   NOT CONVERGED
  ========================================================================
         NGWF RMS gradient =  2.0792E-05 >  1.0000E-06  | above tolerance
  Maximum change in energy =  2.0143E-03 >  1.0000E-07  | above tolerance
  ========================================================================

>>> Improving NGWFs using line search:
  ========================================================================
   Predicted total energy    =      -1.76267199153078E+04 Eh
   Predicted gain in energy  =      -1.59458959227777E-01 Eh
  ========================================================================

Writing NGWFs to file "Cr2I6_bilayer_LT_FM_FM_SP.tightbox_ngwfs".... done

>>> Optimising kernel for current NGWFs:
   iter  |      energy (Eh)       | rms gradient |  commutator  |   dE (Eh)
    1        -1.762671942135E+04     1.0413E-05     5.2678E-06
    2        -1.762671959311E+04     1.1501E-05     5.7184E-06    -1.7176E-04
    3        -1.762671982395E+04     1.7891E-05     8.8718E-06    -2.3083E-04
    4        -1.762671992742E+04     1.6052E-05     8.0222E-06    -1.0348E-04
    5        -1.762672017410E+04     1.6418E-05     8.1509E-06    -2.4668E-04
Finished density kernel iterations (   5)

Writing density kernel to file "Cr2I6_bilayer_LT_FM_FM_SP.dkn" ... done


>>> Density kernel optimised for the current NGWF basis:
     ~~~~~~~~~~~~~~~~~~~~~~~~~~~~~~~~~~~~~~~~~~~~~~~~~~~~~~~~~~~
     Total energy                =  -1.76267201741013E+04  Eh
     Estimated bandgap (UP spin) =   4.1364E-02  Eh
     Estimated bandgap (DN spin) =   1.2213E-01  Eh
     RMS occupancy error         =   1.0077E-10
     [H,K] commutator            =   8.1509E-06
     UP spin occupancy bounds    = [  0.000:  1.000]
     DN spin occupancy bounds    = [  0.000:  1.000]
     ~~~~~~~~~~~~~~~~~~~~~~~~~~~~~~~~~~~~~~~~~~~~~~~~~~~~~~~~~~~




################################################################################
########################### NGWF CG iteration  006 #############################
################################################################################

>>> Checking for convergence of NGWFs:   NOT CONVERGED
  ========================================================================
         NGWF RMS gradient =  1.3861E-05 >  1.0000E-06  | above tolerance
  Maximum change in energy =  1.0250E-03 >  1.0000E-07  | above tolerance
  ========================================================================

>>> Improving NGWFs using line search:
  ========================================================================
   Predicted total energy    =      -1.76268450630231E+04 Eh
   Predicted gain in energy  =      -1.24888921855018E-01 Eh
  ========================================================================

Writing NGWFs to file "Cr2I6_bilayer_LT_FM_FM_SP.tightbox_ngwfs".... done

>>> Optimising kernel for current NGWFs:
   iter  |      energy (Eh)       | rms gradient |  commutator  |   dE (Eh)
    1        -1.762684184195E+04     1.9141E-05     9.6488E-06
    2        -1.762684261395E+04     1.9945E-05     9.9866E-06    -7.7201E-04
    3        -1.762684295306E+04     8.5065E-06     4.2839E-06    -3.3911E-04
    4        -1.762684304496E+04     6.7148E-06     3.3677E-06    -9.1894E-05
[...]
*    I     436     -0.00330019  -0.00585568  -0.00995197 *
*    I     437     -0.00342456   0.00580455  -0.00993646 *
*    I     438     -0.00670196   0.00001799   0.01225713 *
*    I     439      0.00336200   0.00576822   0.01225788 *
*    I     440      0.00331655  -0.00582029   0.01225106 *
*    Cr    441      0.00014903   0.00007809  -0.00027350 *
*    Cr    442      0.00001120   0.00002116   0.00023572 *
*    I     443      0.00669921  -0.00002697  -0.01225921 *
*    I     444     -0.00336550  -0.00577221  -0.01226191 *
*    I     445     -0.00332186   0.00581689  -0.01225725 *
*    I     446     -0.00673559  -0.00007640   0.00996270 *
*    I     447      0.00333054   0.00583354   0.00992028 *
*    I     448      0.00343819  -0.00581154   0.00993223 *
*    Cr    449     -0.00001270   0.00000222  -0.00021161 *
*    Cr    450     -0.00001955   0.00015949   0.00027813 *
*    I     451      0.00674184   0.00007491  -0.00994570 *
*    I     452     -0.00331541  -0.00583449  -0.00995066 *
*    I     453     -0.00344048   0.00581189  -0.00993041 *
*    I     454     -0.00670030   0.00001987   0.01225558 *
*    I     455      0.00336234   0.00577023   0.01226017 *
*    I     456      0.00332230  -0.00581937   0.01225757 *
*    Cr    457      0.00015882   0.00008898  -0.00027719 *
*    Cr    458      0.00002355   0.00000963   0.00021380 *
*    I     459      0.00669848  -0.00002624  -0.01225574 *
*    I     460     -0.00336599  -0.00577206  -0.01225991 *
*    I     461     -0.00332365   0.00581580  -0.01225538 *
*    I     462     -0.00674105  -0.00007000   0.00995268 *
*    I     463      0.00330312   0.00585180   0.00994039 *
*    I     464      0.00342556  -0.00580889   0.00995128 *
*    Cr    465     -0.00000155  -0.00000456  -0.00023114 *
*    Cr    466     -0.00001674  -0.00001705   0.00029684 *
*    I     467      0.00673898   0.00008057  -0.00995317 *
*    I     468     -0.00331842  -0.00582705  -0.00994139 *
*    I     469     -0.00346136   0.00581301  -0.00991690 *
*    I     470     -0.00670295   0.00001479   0.01225669 *
*    I     471      0.00335909   0.00576792   0.01226097 *
*    I     472      0.00331930  -0.00582358   0.01225712 *
*    Cr    473      0.00015768   0.00008095  -0.00026754 *
*    Cr    474      0.00013275  -0.00005525   0.00025924 *
*    I     475      0.00670008  -0.00002684  -0.01225604 *
*    I     476     -0.00336635  -0.00577265  -0.01226063 *
*    I     477     -0.00331915   0.00581620  -0.01225318 *
*    I     478     -0.00673930  -0.00005809   0.00994192 *
*    I     479      0.00327950   0.00587461   0.00993051 *
*    I     480      0.00341460  -0.00580334   0.00995727 *
*    Cr    481      0.00000025  -0.00000548  -0.00023402 *
*    Cr    482     -0.00001885  -0.00001972   0.00027286 *
*    I     483      0.00674428   0.00010247  -0.00995083 *
*    I     484     -0.00331173  -0.00583530  -0.00993979 *
*    I     485     -0.00344871   0.00583598  -0.00988930 *
*    I     486     -0.00669907   0.00001996   0.01225574 *
*    I     487      0.00336040   0.00576758   0.01226032 *
*    I     488      0.00332127  -0.00581775   0.01225661 *
*    Cr    489      0.00000944  -0.00000668  -0.00029658 *
*    Cr    490      0.00015091  -0.00006854   0.00027544 *
*    I     491      0.00669883  -0.00002437  -0.01225770 *
*    I     492     -0.00336668  -0.00577130  -0.01225962 *
*    I     493     -0.00331909   0.00582081  -0.01225766 *
*    I     494     -0.00674038  -0.00005325   0.00992243 *
*    I     495      0.00328291   0.00584133   0.00995665 *
*    I     496      0.00341656  -0.00580029   0.00996359 *
*    Cr    497      0.00000073  -0.00000961  -0.00023847 *
*    Cr    498     -0.00001953  -0.00000827   0.00025710 *
*    I     499      0.00674939   0.00008369  -0.00992654 *
*    I     500     -0.00329305  -0.00587845  -0.00990880 *
*    I     501     -0.00339026   0.00581188  -0.00994257 *
*    I     502     -0.00669877   0.00002191   0.01225575 *
*    I     503      0.00336255   0.00576689   0.01225953 *
*    I     504      0.00332277  -0.00581788   0.01225660 *
*    Cr    505      0.00001373   0.00001318  -0.00035269 *
*    Cr    506      0.00000751   0.00001574   0.00028975 *
*    I     507      0.00670016  -0.00002741  -0.01225688 *
*    I     508     -0.00336540  -0.00577458  -0.01226168 *
*    I     509     -0.00332415   0.00581583  -0.01225710 *
*    I     510     -0.00672548  -0.00008448   0.00996017 *
*    I     511      0.00328869   0.00582214   0.00997683 *
*    I     512      0.00340524  -0.00579154   0.00997131 *
*    Cr    513     -0.00000013  -0.00001200  -0.00023587 *
*    Cr    514     -0.00003807   0.00000207   0.00030319 *
*    I     515      0.00675426   0.00008767  -0.00991906 *
*    I     516     -0.00327926  -0.00586556  -0.00995423 *
*    I     517     -0.00340360   0.00581044  -0.00993853 *
*    I     518     -0.00669850   0.00001798   0.01225711 *
*    I     519      0.00336299   0.00576534   0.01226051 *
*    I     520      0.00332129  -0.00581924   0.01225614 *
*    Cr    521      0.00002658  -0.00001144  -0.00038010 *
*    Cr    522      0.00000408   0.00002852   0.00028130 *
*    I     523      0.00669798  -0.00002505  -0.01225713 *
*    I     524     -0.00336558  -0.00577297  -0.01226163 *
*    I     525     -0.00332343   0.00581813  -0.01225800 *
*    I     526     -0.00672665  -0.00008146   0.00996820 *
*    I     527      0.00328258   0.00583880   0.00997041 *
*    I     528      0.00344777  -0.00580196   0.00993917 *
*    Cr    529     -0.00000062  -0.00001718  -0.00023618 *
*    Cr    530     -0.00002916  -0.00001587   0.00028405 *
*    I     531      0.00676459   0.00009277  -0.00991322 *
*    I     532     -0.00329167  -0.00585345  -0.00995564 *
*    I     533     -0.00339852   0.00581640  -0.00993825 *
*    I     534     -0.00669942   0.00001855   0.01225564 *
*    I     535      0.00336307   0.00576619   0.01225744 *
*    I     536      0.00332356  -0.00581817   0.01225680 *
*    Cr    537      0.00001005  -0.00001095  -0.00030351 *
*    Cr    538      0.00000607   0.00001033   0.00026147 *
*    I     539      0.00669754  -0.00002542  -0.01225729 *
*    I     540     -0.00336764  -0.00577079  -0.01226074 *
*    I     541     -0.00331990   0.00581576  -0.01225459 *
*    I     542     -0.00672713  -0.00007349   0.00996862 *
*    I     543      0.00327940   0.00584784   0.00995004 *
*    I     544      0.00344144  -0.00580251   0.00994553 *
*    Cr    545     -0.00012451   0.00006264  -0.00025929 *
*    Cr    546     -0.00002713   0.00015611   0.00027249 *
*    I     547      0.00675894   0.00009955  -0.00992822 *
*    I     548     -0.00330434  -0.00584285  -0.00996437 *
*    I     549     -0.00341565   0.00581824  -0.00992981 *
*    I     550     -0.00670471   0.00001595   0.01225808 *
*    I     551      0.00336192   0.00577112   0.01226168 *
*    I     552      0.00332063  -0.00582163   0.01225815 *
*    Cr    553      0.00000914   0.00000448  -0.00028867 *
*    Cr    554      0.00001189   0.00001427   0.00023040 *
*    I     555      0.00669485  -0.00002786  -0.01225396 *
*    I     556     -0.00336767  -0.00576995  -0.01225980 *
*    I     557     -0.00332125   0.00581562  -0.01225544 *
*    I     558     -0.00672154  -0.00006571   0.00997146 *
*    I     559      0.00332976   0.00583222   0.00991813 *
*    I     560      0.00345667  -0.00581006   0.00992960 *
*    Cr    561     -0.00001426  -0.00000459  -0.00023183 *
*    Cr    562     -0.00002047  -0.00001372   0.00029579 *
*    I     563      0.00675326   0.00010054  -0.00994122 *
*    I     564     -0.00332122  -0.00581970  -0.00996200 *
*    I     565     -0.00341899   0.00583327  -0.00991043 *
*    I     566     -0.00670107   0.00001778   0.01225632 *
*    I     567      0.00336008   0.00576762   0.01225855 *
*    I     568      0.00331823  -0.00582460   0.01225841 *
*    Cr    569      0.00000810  -0.00000350  -0.00030115 *
*    Cr    570      0.00001878   0.00000556   0.00023069 *
*    I     571      0.00669535  -0.00002715  -0.01225550 *
*    I     572     -0.00336647  -0.00576932  -0.01225840 *
*    I     573     -0.00331910   0.00582098  -0.01225595 *
*    I     574     -0.00672561  -0.00005167   0.00995456 *
*    I     575      0.00329002   0.00587274   0.00991392 *
*    I     576      0.00343399  -0.00580873   0.00994704 *
*                                                        *
**********************************************************
* TOTAL:           -0.00000000  -0.00000000  -0.00000000 *
**********************************************************
 
 
***********************************************************
********** Summary of Forces (values in Eh/a) *************
*                                                         *
* ---------------------- Minimum ------------------------ *
* Atom:       337, |F|min =    0.00018303                 *
* Components:     Fx|min       Fy|min       Fz|min        *
*              -0.00000901  -0.00000366  -0.00018277      *
*                                                         *
* ---------------------- Maximum ------------------------ *
* Atom:        72, |F|max =    0.01397285                 *
* Components:     Fx|max       Fy|max       Fz|max        *
*               0.00331913  -0.00582376   0.01226000      *
*                                                         *
* ---------------- Root Mean Square Force --------------- *
*                  |F|rms =    0.01127905                 *
* Components:     Fx|rms       Fy|rms       Fz|rms        *
*               0.00411232   0.00410931   0.00966536      *
***********************************************************
 

------------------------------ TIMING INFORMATION ------------------------------
AVERAGE TIME:   66927.637s on    150 proc(s)                                    
TOTAL TIME:     66927.639s on    150 proc(s)                                    
==================== AVERAGE TIMINGS FROM ALL PROCS (CUMULATIVE) =====================
|| TAG                                         #calls     cpu time   %total  Gflops ||
|| hubbard_species_proj                       :     1        0.00s   0.000%  ------ ||
|| sw_bessel_init_cpu                         :     1        0.01s   0.000%  ------ || (1 procs only)
|| hubbard_projector_character                :     1        0.00s   0.000%  ------ ||
|| hubbard_ngwf_select                        :     1        0.00s   0.000%  ------ ||
|| density_fftbox_interp_mult_imbal           : 36900        0.00s   0.000%  ------ ||
|| hubbard_ngwf_on_grid                       :     1        0.00s   0.000%  ------ ||
|| onetep.F90 final imbalance                 :     1        0.00s   0.000%  ------ ||
|| hash_table_free                            :    72        0.00s   0.000%  ------ ||
|| linalg_invert_sym_matrix                   :     4        0.02s   0.000%  ------ || (144 procs only)
|| hubbard_tensorial_correction               :     2        0.02s   0.000%  ------ ||
|| linalg_dgemv                               :    25        0.02s   0.000%  ------ ||
|| ewald_calculate_forces_realspace           :     1        0.03s   0.000%  ------ ||
|| ewald_calculate_energy                     :     1        0.04s   0.000%  ------ ||
|| onetep.F90 main loop imbalance             :     1        0.05s   0.000%  ------ ||
|| ewald_calculate_forces_recipspace          :     1        0.06s   0.000%  ------ ||
|| sparse_set_to_garbage                      :  1576        0.08s   0.000%  ------ ||
|| sparse_spam3toblacs_real_fast_imbal        :   198        0.08s   0.000%  ------ ||
|| sw_init                                    :  1475        0.10s   0.000%  ------ ||
|| sparse_blacstospam3_real_fast_imbal        :   212        0.11s   0.000%  ------ ||
|| ewald_calculate_forces                     :     1        0.12s   0.000%  ------ ||
|| pseudo_make_structure_factor               :     1        0.20s   0.000%  ------ ||
|| paw_dij_hartree                            :   788        0.21s   0.000%  ------ ||
|| augmentation_density_forces                :     1        0.23s   0.000%  ------ ||
|| sparse_spam3toblacs_real_fast_B2           : 29700        0.50s   0.001%  ------ ||
|| paw_tcore_hartree_on_grid                  :     1        0.50s   0.001%  ------ ||
|| basis_extract_function_from_box            :  3456        0.60s   0.001%  ------ ||
|| restart_hamiltonian_write                  :     2        0.76s   0.001%  ------ ||
|| paw_tcore_hartree_calc_forces              :     1        0.86s   0.001%  ------ ||
|| hubbard_projection_mtx                     :    74        1.17s   0.002%  ------ ||
|| paw_dataset_init                           :     2        1.55s   0.002%  ------ ||
|| paw_tcore_density                          :     1        1.55s   0.002%  ------ ||
|| paw_nlcc_calculate_forces                  :     1        1.77s   0.003%  ------ ||
|| paw_sphere_density_on_grid                 :     1        1.90s   0.003%  ------ ||
|| sparse_init                                :     1        2.41s   0.004%  ------ ||
|| ngwfs_initialise_from_radial               :     4        2.72s   0.004%  ------ ||
|| nonsc_forces_ngwfs_calc                    :     1        3.78s   0.006%  ------ ||
|| paw_species_calc_proj_prec_mat             :     1        6.09s   0.009%  ------ ||
|| hubbard_projector_ham                      :   350       12.36s   0.018%  ------ ||
|| hubbard_ham_matrix                         :   351       12.94s   0.019%  ------ ||
|| restart_kernel_write                       :    38       13.58s   0.020%  ------ ||
|| sparse_spam3toblacs_real_fast_B1           : 29700       16.55s   0.025%  ------ ||
|| sparse_spam3toblacs_real_fast              :   198       18.17s   0.027%  ------ ||
|| energy_and_force_init_cell                 :     1       21.45s   0.032%  ------ ||
|| sparse_embed_array_hotelling_invert        :    72       21.55s   0.032%  ------ ||
|| hubbard_calculate_forces                   :     1       22.68s   0.034%  ------ ||
|| integrals_grad_spam3                       :     4       26.35s   0.039%  ------ ||
|| sparse_blacstospam3_real_fast              :   212       33.83s   0.051%  ------ ||
|| hubbard_projector_update                   :     1       34.19s   0.051%  ------ ||
|| hubbard_energy_total                       :   750       35.64s   0.053%  ------ ||
|| projectors_func_grad_ovlp_box_spam3        :     6       37.28s   0.056%  ------ ||
|| aug_nl_calculate_forces                    :     1       38.46s   0.057%  ------ ||
|| ngwf_gradient_coeffs                       :    36       42.06s   0.063%  ------ ||
|| fourier_filter_cell                        :   774       42.16s   0.063% 325.553 ||
|| hamiltonian_energy_components              :     1       42.46s   0.063%  ------ ||
|| fourier_apply_box_pair                     :  5283       53.79s   0.080%  5.748k ||
|| dense_eigensolve                           :    96       55.80s   0.083%  ------ ||
|| eigenstates_calculate                      :     1       57.30s   0.086%  ------ ||
|| hartree_on_grid_single                     :   737       66.43s   0.099%  ------ ||
|| basis_copy_function_to_box                 : 58041       68.29s   0.102%  ------ ||
|| sparse_trace                               : 23368       68.47s   0.102%  ------ ||
|| edft_diag_ngwf_ham                         :    94       71.83s   0.107%  ------ ||
|| density_init_guess_real                    :     2       76.76s   0.115%  ------ ||
|| fourier_interpolate_cell                   :  1476       95.20s   0.142% 274.960 ||
|| edft_apply_smearing_operator               :    47      117.63s   0.176%  ------ ||
|| kernel_fix                                 :   333      118.50s   0.177%  ------ ||
|| kernel_purify                              :  1054      123.53s   0.185%  ------ ||
|| forces_calculate                           :     1      146.49s   0.219%  ------ ||
|| lnv_gradient_norm                          :   333      147.74s   0.221%  ------ ||
|| augmentation_screen_dij_spam3              :   736      153.39s   0.229%  ------ ||
|| paw_dij_xc                                 :   788      249.99s   0.374%  ------ ||
|| projectors_init_fftbox_recip               :   733      260.30s   0.389%  ------ ||
|| aug_nonlocal_mat_spam3_embed_array         :   751      269.11s   0.402%  ------ ||
|| fourier_apply_cell_backward                :  6634      306.92s   0.459% 344.797 ||
|| cell_grid_deposit_box_real                 : 46398      378.50s   0.566%  ------ ||
|| fourier_filter                             : 10488      419.38s   0.627%  ------ ||
|| fourier_apply_cell_forward                 :  6634      420.63s   0.628% 251.589 ||
|| cell_grid_extract_box_real                 : 28938      425.52s   0.636%  ------ ||
|| aug_density_on_grid_spam3                  :   738      523.21s   0.782%  ------ ||
|| restart_ngwfs_tightbox_output              :    35      547.44s   0.818%  ------ ||
|| function_ops_brappd_ketppd_spam3           :   292      673.26s   1.006%  ------ ||
|| properties_calculate                       :     1      693.09s   1.036%  ------ ||
|| sparse_product                             : 45048      726.63s   1.086%  ------ ||
|| xc_energy_potential                        :   737      737.62s   1.102%  ------ ||
|| fourier_interpolate                        : 10488      780.92s   1.167%  ------ ||
|| projectors_func_ovlp_box_spam3             :   294     1124.32s   1.680%  ------ ||
|| integrals_kinetic_spam3                    :   144     1602.05s   2.394%  ------ ||
|| projectors_gradient_batch                  :   288     2523.11s   3.770%  ------ ||
|| basis_dot_function_with_box                : 34.93M    2615.50s   3.908%  ------ ||
|| density_fftbox_deposit_to_cell             : 36900     2615.95s   3.909%  ------ ||
|| edft_calculate                             :     1     2689.45s   4.018%  ------ ||
|| potential_apply_to_ngwf_batch              :  1404     4649.99s   6.948%  ------ ||
|| basis_add_function_to_box                  : 74.57M    6228.26s   9.306%  ------ ||
|| fourier_apply_box                          : 167.2k    6436.02s   9.616%  5.423k ||
|| fourier_interpolate_product                : 35424     7005.85s  10.468%  ------ ||
|| density_fftbox_interpolate_multiply        : 36900     7280.27s  10.878%  ------ ||
|| projectors_grad_precond_batch              :   144     7285.14s  10.885%  ------ ||
|| integrals_locpot_mat_els_batch             :  1404     7578.89s  11.324%  ------ ||
|| ngwf_gradient_build_batch                  :   144    11413.12s  17.053%  ------ ||
|| integrals_locpot_dbl_grid                  :   702    12272.65s  18.337%  ------ ||
|| density_batch_interp_deposit               :  2952    13500.14s  20.171%  ------ ||
|| density_batch_row_sums                     :  2952    14935.51s  22.316%  ------ ||
|| ngwf_gradient_batch                        :   144    16737.06s  25.008%  ------ ||
|| ngwf_gradient_lnv                          :    36    17462.92s  26.092%  ------ ||
|| density_on_dbl_grid                        :  1476    28803.49s  43.037%  ------ ||
|| hamiltonian_lhxc_calculate                 :   734    30517.19s  45.597%  ------ ||
|| lnv_denskernel_optimise_cg                 :    36    39571.11s  59.125%  ------ ||
|| ngwf_cg_optimise                           :     1    63146.24s  94.350%  ------ ||
|| energy_and_forces                          :     1    66904.27s  99.965%  ------ ||
|| total_time                                 :     1    66927.64s 100.000%  ------ ||
======================================================================================
Overhead of generating timer report: 
- 0 ms averaging over threads,
- 15 ms ensuring consistency across MPI ranks,
- 2 ms printing in order.

Job completed: 29-04-2025 06:57 (+0100)

onetep_launcher: ONETEP seems to have finished correctly (zero exit code).
                 Brought to you by PID 159101 on nid001935.
