
     Program PWSCF v.7.3 starts on 11Sep2025 at 11: 3:33 

     This program is part of the open-source Quantum ESPRESSO suite
     for quantum simulation of materials; please cite
         "P. Giannozzi et al., J. Phys.:Condens. Matter 21 395502 (2009);
         "P. Giannozzi et al., J. Phys.:Condens. Matter 29 465901 (2017);
         "P. Giannozzi et al., J. Chem. Phys. 152 154105 (2020);
          URL http://www.quantum-espresso.org", 
     in publications or presentations arising from this work. More details at
     http://www.quantum-espresso.org/quote

     Parallel version (MPI & OpenMP), running on     256 processor cores
     Number of MPI processes:               128
     Threads/MPI process:                     2

     MPI processes distributed on     2 nodes
     436123 MiB available memory on the printing compute node when the environment starts

     Reading input from Cr_0_-0.1.in
Warning: card &CELL ignored
Warning: card / ignored
Warning: card &FCP ignored
Warning: card / ignored
Warning: card &RISM ignored
Warning: card / ignored

     Current dimensions of program PWSCF are:
     Max number of different atomic species (ntypx) = 10
     Max number of k-points (npk) =  40000
     Max angular momentum in pseudopotentials (lmaxx) =  4
read_pp_mesh; mismatch in mesh size, discarding the one in header
read_pp_mesh; mismatch in mesh size, discarding the one in header
read_pp_mesh; mismatch in mesh size, discarding the one in header
     file Cr.GGA-PBE-paw.UPF: wavefunction(s)  3S 4S 3P 4P 3D 4D renormalized
     file I.GGA-PBE-paw.UPF: wavefunction(s)  6S 6P renormalized
     file Cr.GGA-PBE-paw.UPF: wavefunction(s)  3S 4S 3P 4P 3D 4D renormalized

     IMPORTANT: XC functional enforced from input :
     Exchange-correlation= PBE
                           (   1   4   3   4   0   0   0)
     Any further DFT definition will be discarded
     Please, verify this is what you really want


     R & G space division:  proc/nbgrp/npool/nimage =     128
     Subspace diagonalization in iterative solution of the eigenvalue problem:
     one sub-group per band group will be used
     ELPA distributed-memory algorithm (size of sub-group:  3*  3 procs)


     Parallelization info
     --------------------
     sticks:   dense  smooth     PW     G-vecs:    dense   smooth      PW
     Min         509     305     78               140391    65241    8388
     Max         510     306     79               140404    65254    8400
     Sum       65263   39121   9985             17971031  8351671 1074593

     Using Slab Decomposition



     bravais-lattice index     =            0
     lattice parameter (alat)  =      39.7293  a.u.
     unit-cell volume          =   72410.5124 (a.u.)^3
     number of atoms/cell      =           72
     number of atomic types    =            3
     number of electrons       =       630.00 (up: 342.00, down: 288.00)
     number of Kohn-Sham states=          342
     kinetic-energy cutoff     =      90.0000  Ry
     charge density cutoff     =     600.0000  Ry
     scf convergence threshold =      1.0E-10
     mixing beta               =       0.3000
     number of iterations used =            8  plain     mixing
     Exchange-correlation= PBE
                           (   1   4   3   4   0   0   0)
     Hubbard projectors: atomic
     Hubbard parameters of DFT+U (Dudarev formulation) in eV:
     U(Cr1-3d) =  0.0000
     J0(Cr1-3d) =  0.0000
     beta(Cr1-3d) = -0.1000

     Internal variables: lda_plus_u =T, lda_plus_u_kind = 0

     celldm(1)=  39.729285  celldm(2)=   0.000000  celldm(3)=   0.000000
     celldm(4)=   0.000000  celldm(5)=   0.000000  celldm(6)=   0.000000

     crystal axes: (cart. coord. in units of alat)
               a(1) = (   1.000000   0.000000   0.000000 )  
               a(2) = (  -0.500000   0.866025   0.000000 )  
               a(3) = (   0.000000   0.000000   1.333333 )  

     reciprocal axes: (cart. coord. in units 2 pi/alat)
               b(1) = (  1.000000  0.577350 -0.000000 )  
               b(2) = (  0.000000  1.154701  0.000000 )  
               b(3) = (  0.000000 -0.000000  0.750000 )  


     PseudoPot. # 1 for Cr read from file:
     ./Cr.GGA-PBE-paw.UPF
     MD5 check sum: 389087661106aa6caf57455f2e439c97
     Pseudo is Projector augmented-wave + core cor, Zval = 14.0
     Generated using ATOMPAW code
     Shape of augmentation charge: SINC**2
     Using radial grid of 2342 points,  6 beta functions with: 
                l(1) =   0
                l(2) =   0
                l(3) =   1
                l(4) =   1
                l(5) =   2
                l(6) =   2
     Q(r) pseudized with 0 coefficients 


     PseudoPot. # 2 for I  read from file:
     ./I.GGA-PBE-paw.UPF
     MD5 check sum: 736bb4145856fa7ed29d0984862794a4
     Pseudo is Projector augmented-wave + core cor, Zval =  7.0
     Generated using ATOMPAW code
     Shape of augmentation charge: SINC**2
     Using radial grid of 2342 points,  4 beta functions with: 
                l(1) =   0
                l(2) =   0
                l(3) =   1
                l(4) =   1
     Q(r) pseudized with 0 coefficients 


     PseudoPot. # 3 for Cr read from file:
     ./Cr.GGA-PBE-paw.UPF
     MD5 check sum: 389087661106aa6caf57455f2e439c97
     Pseudo is Projector augmented-wave + core cor, Zval = 14.0
     Generated using ATOMPAW code
     Shape of augmentation charge: SINC**2
     Using radial grid of 2342 points,  6 beta functions with: 
                l(1) =   0
                l(2) =   0
                l(3) =   1
                l(4) =   1
                l(5) =   2
                l(6) =   2
     Q(r) pseudized with 0 coefficients 


     atomic species   valence    mass     pseudopotential
     Cr1              14.00    51.99610     Cr( 1.00)
     I                 7.00   126.90447     I ( 1.00)
     Cr               14.00    51.99610     Cr( 1.00)

     Starting magnetic structure 
     atomic species   magnetization
     Cr1             0.214
     I               0.000
     Cr              0.214

     No symmetry found



   Cartesian axes

     site n.     atom                  positions (alat units)
         1        Cr1    tau(   1) = (   0.3271041   0.3777073   0.4295967  )
         2        Cr     tau(   2) = (   0.1635521   0.0944268   0.4295967  )
         3        Cr     tau(   3) = (   0.0000000   0.1888536   0.4295967  )
         4        I      tau(   4) = (   0.2103614  -0.0000006   0.3558127  )
         5        I      tau(   5) = (   0.0583708   0.1011024   0.3558127  )
         6        I      tau(   6) = (  -0.1051802   0.1821787   0.3558127  )
         7        I      tau(   7) = (   0.1167427  -0.0000005   0.5033806  )
         8        I      tau(   8) = (   0.1051802   0.1821786   0.5033806  )
         9        I      tau(   9) = (  -0.0583709   0.1011024   0.5033806  )
        10        Cr     tau(  10) = (  -0.0000000   0.3777073   0.4295967  )
        11        Cr     tau(  11) = (  -0.1635521   0.4721341   0.4295967  )
        12        I      tau(  12) = (   0.0468094   0.2832798   0.3558127  )
        13        I      tau(  13) = (  -0.1051813   0.3843829   0.3558127  )
        14        I      tau(  14) = (  -0.2687322   0.4654591   0.3558127  )
        15        I      tau(  15) = (  -0.0468094   0.2832799   0.5033806  )
        16        I      tau(  16) = (  -0.0583718   0.4654591   0.5033806  )
        17        I      tau(  17) = (  -0.2219229   0.3843829   0.5033806  )
        18        Cr     tau(  18) = (  -0.1635521   0.6609878   0.4295967  )
        19        Cr     tau(  19) = (  -0.3271041   0.7554146   0.4295967  )
        20        I      tau(  20) = (  -0.1167427   0.5665603   0.3558127  )
        21        I      tau(  21) = (  -0.2687333   0.6676634   0.3558127  )
        22        I      tau(  22) = (  -0.4322843   0.7487396   0.3558127  )
        23        I      tau(  23) = (  -0.2103614   0.5665604   0.5033806  )
        24        I      tau(  24) = (  -0.2219239   0.7487396   0.5033806  )
        25        I      tau(  25) = (  -0.3854750   0.6676633   0.5033806  )
        26        Cr     tau(  26) = (   0.4906562   0.0944268   0.4295967  )
        27        Cr     tau(  27) = (   0.3271041   0.1888536   0.4295967  )
        28        I      tau(  28) = (   0.5374655  -0.0000006   0.3558127  )
        29        I      tau(  29) = (   0.3854749   0.1011024   0.3558127  )
        30        I      tau(  30) = (   0.2219239   0.1821787   0.3558127  )
        31        I      tau(  31) = (   0.4438468  -0.0000005   0.5033806  )
        32        I      tau(  32) = (   0.4322844   0.1821786   0.5033806  )
        33        I      tau(  33) = (   0.2687332   0.1011024   0.5033806  )
        34        Cr     tau(  34) = (   0.1635521   0.4721341   0.4295967  )
        35        I      tau(  35) = (   0.3739135   0.2832798   0.3558127  )
        36        I      tau(  36) = (   0.2219229   0.3843829   0.3558127  )
        37        I      tau(  37) = (   0.0583719   0.4654591   0.3558127  )
        38        I      tau(  38) = (   0.2802947   0.2832799   0.5033806  )
        39        I      tau(  39) = (   0.2687323   0.4654591   0.5033806  )
        40        I      tau(  40) = (   0.1051812   0.3843829   0.5033806  )
        41        Cr     tau(  41) = (   0.1635521   0.6609878   0.4295967  )
        42        Cr     tau(  42) = (   0.0000000   0.7554146   0.4295967  )
        43        I      tau(  43) = (   0.2103614   0.5665603   0.3558127  )
        44        I      tau(  44) = (   0.0583708   0.6676634   0.3558127  )
        45        I      tau(  45) = (  -0.1051802   0.7487396   0.3558127  )
        46        I      tau(  46) = (   0.1167427   0.5665604   0.5033806  )
        47        I      tau(  47) = (   0.1051802   0.7487396   0.5033806  )
        48        I      tau(  48) = (  -0.0583709   0.6676633   0.5033806  )
        49        Cr     tau(  49) = (   0.8177603   0.0944268   0.4295967  )
        50        Cr     tau(  50) = (   0.6542082   0.1888536   0.4295967  )
        51        I      tau(  51) = (   0.8645697  -0.0000006   0.3558127  )
        52        I      tau(  52) = (   0.7125790   0.1011024   0.3558127  )
        53        I      tau(  53) = (   0.5490281   0.1821787   0.3558127  )
        54        I      tau(  54) = (   0.7709509  -0.0000005   0.5033806  )
        55        I      tau(  55) = (   0.7593885   0.1821786   0.5033806  )
        56        I      tau(  56) = (   0.5958374   0.1011024   0.5033806  )
        57        Cr     tau(  57) = (   0.6542082   0.3777073   0.4295967  )
        58        Cr     tau(  58) = (   0.4906562   0.4721341   0.4295967  )
        59        I      tau(  59) = (   0.7010176   0.2832798   0.3558127  )
        60        I      tau(  60) = (   0.5490270   0.3843829   0.3558127  )
        61        I      tau(  61) = (   0.3854760   0.4654591   0.3558127  )
        62        I      tau(  62) = (   0.6073989   0.2832799   0.5033806  )
        63        I      tau(  63) = (   0.5958364   0.4654591   0.5033806  )
        64        I      tau(  64) = (   0.4322853   0.3843829   0.5033806  )
        65        Cr     tau(  65) = (   0.4906562   0.6609878   0.4295967  )
        66        Cr     tau(  66) = (   0.3271041   0.7554146   0.4295967  )
        67        I      tau(  67) = (   0.5374655   0.5665603   0.3558127  )
        68        I      tau(  68) = (   0.3854749   0.6676634   0.3558127  )
        69        I      tau(  69) = (   0.2219239   0.7487396   0.3558127  )
        70        I      tau(  70) = (   0.4438468   0.5665604   0.5033806  )
        71        I      tau(  71) = (   0.4322844   0.7487396   0.5033806  )
        72        I      tau(  72) = (   0.2687332   0.6676633   0.5033806  )

     number of k points=     4
                       cart. coord. in units 2pi/alat
        k(    1) = (   0.0000000   0.0000000   0.0000000), wk =   0.2500000
        k(    2) = (   0.0000000  -0.5773503   0.0000000), wk =   0.2500000
        k(    3) = (   0.5000000  -0.2886751   0.0000000), wk =   0.2500000
        k(    4) = (  -0.5000000  -0.2886751   0.0000000), wk =   0.2500000

     Dense  grid: 17971031 G-vectors     FFT dimensions: ( 320, 320, 432)

     Smooth grid:  8351671 G-vectors     FFT dimensions: ( 240, 240, 320)

     Estimated max dynamical RAM per process >       1.67 GB

     Estimated total dynamical RAM >     213.14 GB
     Generating pointlists ...
     new r_m :   0.0531 (alat units)  2.1084 (a.u.) for type    1
     new r_m :   0.0531 (alat units)  2.1084 (a.u.) for type    2
     new r_m :   0.0531 (alat units)  2.1084 (a.u.) for type    3

     The initial density is read from file :
     ./Cr_0_-0.1/Cr_0_0.save/charge-density


     negative rho (up, down):  1.304E-01 1.474E-01

     STARTING HUBBARD OCCUPATIONS:

     =================== HUBBARD OCCUPATIONS ===================
     ------------------------ ATOM    1 ------------------------
     Tr[ns(  1)] (up, down, total) =   4.25332  1.37309  5.62641
     Atomic magnetic moment for atom   1 =   2.88023
     SPIN  1
     eigenvalues:
       0.638  0.640  0.991  0.992  0.992
     eigenvectors (columns):
      -0.000  0.000 -0.955  0.236 -0.180
      -0.801  0.198  0.165  0.485 -0.238
      -0.198 -0.802 -0.031  0.257  0.501
       0.549 -0.135  0.240  0.709 -0.348
      -0.135 -0.547  0.046 -0.375 -0.734
     occupation matrix ns (before diag.):
       0.991  0.000 -0.000  0.000  0.000
       0.000  0.751 -0.000  0.165 -0.000
      -0.000 -0.000  0.752  0.000 -0.164
       0.000  0.165  0.000  0.879  0.000
       0.000 -0.000 -0.164  0.000  0.880
     SPIN  2
     eigenvalues:
       0.158  0.167  0.169  0.439  0.440
     eigenvectors (columns):
      -0.999  0.031 -0.025  0.000 -0.000
      -0.020 -0.549  0.128  0.794 -0.226
       0.010 -0.129 -0.547  0.226  0.795
      -0.030 -0.804  0.188 -0.543  0.154
      -0.014  0.188  0.805  0.154  0.541
     occupation matrix ns (before diag.):
       0.158 -0.000  0.000 -0.000 -0.000
      -0.000  0.353 -0.000 -0.127 -0.000
       0.000 -0.000  0.354 -0.000  0.126
      -0.000 -0.127 -0.000  0.254  0.000
      -0.000 -0.000  0.126  0.000  0.255

     Number of occupied Hubbard levels =    5.6264

     Atomic wfc used for Hubbard projectors are NOT orthogonalized

     Starting wfcs are  756 atomic wfcs
     Checking if some PAW data can be deallocated... 

     total cpu time spent up to now is      100.9 secs

     Self-consistent Calculation

     iteration #  1     ecut=    90.00 Ry     beta= 0.30
     Davidson diagonalization with overlap
     ethr =  1.00E-05,  avg # of iterations =  8.6

     =================== HUBBARD OCCUPATIONS ===================
     ------------------------ ATOM    1 ------------------------
     Tr[ns(  1)] (up, down, total) =   4.27514  1.33772  5.61287
     Atomic magnetic moment for atom   1 =   2.93742
     SPIN  1
     eigenvalues:
       0.649  0.651  0.992  0.992  0.992
     eigenvectors (columns):
      -0.000  0.000 -0.962  0.215 -0.170
      -0.801  0.198  0.151  0.491 -0.236
      -0.198 -0.802 -0.032  0.252  0.503
       0.549 -0.135  0.221  0.716 -0.344
      -0.135 -0.547  0.048 -0.369 -0.738
     occupation matrix ns (before diag.):
       0.992  0.000 -0.000  0.000  0.000
       0.000  0.758 -0.000  0.160 -0.000
      -0.000 -0.000  0.759  0.000 -0.159
       0.000  0.160  0.000  0.882  0.000
       0.000 -0.000 -0.159  0.000  0.884
     SPIN  2
     eigenvalues:
       0.152  0.161  0.163  0.430  0.431
     eigenvectors (columns):
      -0.999  0.029 -0.024  0.000 -0.000
      -0.019 -0.550  0.127  0.794 -0.226
       0.009 -0.128 -0.548  0.226  0.795
      -0.028 -0.804  0.186 -0.543  0.154
      -0.014  0.186  0.805  0.154  0.541
     occupation matrix ns (before diag.):
       0.152 -0.000  0.000 -0.000 -0.000
      -0.000  0.345 -0.000 -0.125 -0.000
       0.000 -0.000  0.346 -0.000  0.125
      -0.000 -0.125 -0.000  0.247  0.000
      -0.000 -0.000  0.125  0.000  0.248

     Number of occupied Hubbard levels =    5.6129

     Threshold (ethr) on eigenvalues was too large:
     Diagonalizing with lowered threshold

     Davidson diagonalization with overlap
     ethr =  6.74E-09,  avg # of iterations =  5.0

     negative rho (up, down):  1.304E-01 1.475E-01

     total cpu time spent up to now is      658.4 secs

     total energy              =  -24931.20003273 Ry
     estimated scf accuracy    <       0.00004201 Ry

     total magnetization       =    54.00 Bohr mag/cell
     absolute magnetization    =    65.46 Bohr mag/cell

     iteration #  2     ecut=    90.00 Ry     beta= 0.30
     Davidson diagonalization with overlap
     ethr =  6.67E-09,  avg # of iterations =  2.6

     negative rho (up, down):  1.304E-01 1.475E-01

     total cpu time spent up to now is      756.7 secs

     total energy              =  -24931.20005083 Ry
     estimated scf accuracy    <       0.00002758 Ry

     total magnetization       =    54.00 Bohr mag/cell
     absolute magnetization    =    65.47 Bohr mag/cell

     iteration #  3     ecut=    90.00 Ry     beta= 0.30
     Davidson diagonalization with overlap
     ethr =  4.38E-09,  avg # of iterations =  3.8

     negative rho (up, down):  1.304E-01 1.475E-01

     total cpu time spent up to now is      857.1 secs

     total energy              =  -24931.20007518 Ry
     estimated scf accuracy    <       0.00002132 Ry

     total magnetization       =    54.00 Bohr mag/cell
     absolute magnetization    =    65.48 Bohr mag/cell

     iteration #  4     ecut=    90.00 Ry     beta= 0.30
     Davidson diagonalization with overlap
     ethr =  3.38E-09,  avg # of iterations =  5.4

     negative rho (up, down):  1.303E-01 1.476E-01

     total cpu time spent up to now is      981.5 secs

     total energy              =  -24931.20008646 Ry
     estimated scf accuracy    <       0.00000319 Ry

     total magnetization       =    54.00 Bohr mag/cell
     absolute magnetization    =    65.49 Bohr mag/cell

     iteration #  5     ecut=    90.00 Ry     beta= 0.30
     Davidson diagonalization with overlap
     ethr =  5.07E-10,  avg # of iterations =  6.0

     negative rho (up, down):  1.303E-01 1.476E-01

     total cpu time spent up to now is     1128.1 secs

     total energy              =  -24931.20008815 Ry
     estimated scf accuracy    <       0.00000195 Ry

     total magnetization       =    54.00 Bohr mag/cell
     absolute magnetization    =    65.50 Bohr mag/cell

     iteration #  6     ecut=    90.00 Ry     beta= 0.30
     Davidson diagonalization with overlap
     ethr =  3.10E-10,  avg # of iterations =  5.4

     negative rho (up, down):  1.303E-01 1.476E-01

     total cpu time spent up to now is     1249.9 secs

     total energy              =  -24931.20008875 Ry
     estimated scf accuracy    <       0.00000014 Ry

     total magnetization       =    54.00 Bohr mag/cell
     absolute magnetization    =    65.50 Bohr mag/cell

     iteration #  7     ecut=    90.00 Ry     beta= 0.30
     Davidson diagonalization with overlap
     ethr =  2.30E-11,  avg # of iterations =  5.2

     negative rho (up, down):  1.303E-01 1.476E-01

     total cpu time spent up to now is     1391.5 secs

     total energy              =  -24931.20008883 Ry
     estimated scf accuracy    <       0.00000008 Ry

     total magnetization       =    54.00 Bohr mag/cell
     absolute magnetization    =    65.50 Bohr mag/cell

     iteration #  8     ecut=    90.00 Ry     beta= 0.30
     Davidson diagonalization with overlap
     ethr =  1.30E-11,  avg # of iterations =  3.8

     negative rho (up, down):  1.303E-01 1.476E-01

     total cpu time spent up to now is     1507.1 secs

     total energy              =  -24931.20008886 Ry
     estimated scf accuracy    <       0.00000003 Ry

     total magnetization       =    54.00 Bohr mag/cell
     absolute magnetization    =    65.51 Bohr mag/cell

     iteration #  9     ecut=    90.00 Ry     beta= 0.30
     Davidson diagonalization with overlap
     ethr =  4.32E-12,  avg # of iterations =  4.9

     negative rho (up, down):  1.303E-01 1.476E-01

     total cpu time spent up to now is     1636.5 secs

     total energy              =  -24931.20008887 Ry
     estimated scf accuracy    <          6.2E-09 Ry

     total magnetization       =    54.00 Bohr mag/cell
     absolute magnetization    =    65.51 Bohr mag/cell

     iteration # 10     ecut=    90.00 Ry     beta= 0.30
     Davidson diagonalization with overlap
     ethr =  9.89E-13,  avg # of iterations =  4.9

     negative rho (up, down):  1.303E-01 1.476E-01

     total cpu time spent up to now is     1766.6 secs

     total energy              =  -24931.20008887 Ry
     estimated scf accuracy    <          4.0E-09 Ry

     total magnetization       =    54.00 Bohr mag/cell
     absolute magnetization    =    65.51 Bohr mag/cell

     iteration # 11     ecut=    90.00 Ry     beta= 0.30
     Davidson diagonalization with overlap
     ethr =  6.32E-13,  avg # of iterations =  2.9

     negative rho (up, down):  1.303E-01 1.476E-01

     total cpu time spent up to now is     1872.7 secs

     total energy              =  -24931.20008887 Ry
     estimated scf accuracy    <          8.0E-10 Ry

     total magnetization       =    54.00 Bohr mag/cell
     absolute magnetization    =    65.51 Bohr mag/cell

     iteration # 12     ecut=    90.00 Ry     beta= 0.30
     Davidson diagonalization with overlap
     ethr =  1.26E-13,  avg # of iterations =  5.0

     negative rho (up, down):  1.303E-01 1.476E-01

     total cpu time spent up to now is     2023.6 secs

     total energy              =  -24931.20008887 Ry
     estimated scf accuracy    <          3.6E-10 Ry

     total magnetization       =    54.00 Bohr mag/cell
     absolute magnetization    =    65.51 Bohr mag/cell

     iteration # 13     ecut=    90.00 Ry     beta= 0.30
     Davidson diagonalization with overlap
     ethr =  1.00E-13,  avg # of iterations =  3.0

     negative rho (up, down):  1.303E-01 1.476E-01

     total cpu time spent up to now is     2126.4 secs

     total energy              =  -24931.20008887 Ry
     estimated scf accuracy    <          1.2E-10 Ry

     total magnetization       =    54.00 Bohr mag/cell
     absolute magnetization    =    65.51 Bohr mag/cell

     iteration # 14     ecut=    90.00 Ry     beta= 0.30
     Davidson diagonalization with overlap
     ethr =  1.00E-13,  avg # of iterations =  2.0

     negative rho (up, down):  1.303E-01 1.476E-01

     Magnetic moment per site  (integrated on atomic sphere of radius R)
     atom   1 (R=0.053)  charge= 12.4135  magn=  2.9885
     atom   2 (R=0.053)  charge= 12.4086  magn=  2.9135
     atom   3 (R=0.053)  charge= 12.4086  magn=  2.9136
     atom   4 (R=0.053)  charge=  4.0328  magn= -0.0666
     atom   5 (R=0.053)  charge=  4.0497  magn= -0.0522
     atom   6 (R=0.053)  charge=  4.0328  magn= -0.0666
     atom   7 (R=0.053)  charge=  4.0248  magn= -0.0724
     atom   8 (R=0.053)  charge=  4.0502  magn= -0.0559
     atom   9 (R=0.053)  charge=  4.0248  magn= -0.0724
     atom  10 (R=0.053)  charge= 12.4124  magn=  2.9202
     atom  11 (R=0.053)  charge= 12.4091  magn=  2.9162
     atom  12 (R=0.053)  charge=  4.0513  magn= -0.0516
     atom  13 (R=0.053)  charge=  4.0498  magn= -0.0517
     atom  14 (R=0.053)  charge=  4.0336  magn= -0.0638
     atom  15 (R=0.053)  charge=  4.0499  magn= -0.0523
     atom  16 (R=0.053)  charge=  4.0513  magn= -0.0523
     atom  17 (R=0.053)  charge=  4.0253  magn= -0.0709
     atom  18 (R=0.053)  charge= 12.4122  magn=  2.9227
     atom  19 (R=0.053)  charge= 12.3252  magn=  3.0168
     atom  20 (R=0.053)  charge=  4.0507  magn= -0.0525
     atom  21 (R=0.053)  charge=  4.0444  magn= -0.0604
     atom  22 (R=0.053)  charge=  4.0302  magn= -0.0695
     atom  23 (R=0.053)  charge=  4.0499  magn= -0.0520
     atom  24 (R=0.053)  charge=  4.0486  magn= -0.0515
     atom  25 (R=0.053)  charge=  4.0214  magn= -0.0769
     atom  26 (R=0.053)  charge= 12.4090  magn=  2.9161
     atom  27 (R=0.053)  charge= 12.4124  magn=  2.9201
     atom  28 (R=0.053)  charge=  4.0336  magn= -0.0638
     atom  29 (R=0.053)  charge=  4.0497  magn= -0.0522
     atom  30 (R=0.053)  charge=  4.0513  magn= -0.0517
     atom  31 (R=0.053)  charge=  4.0253  magn= -0.0710
     atom  32 (R=0.053)  charge=  4.0513  magn= -0.0524
     atom  33 (R=0.053)  charge=  4.0499  magn= -0.0528
     atom  34 (R=0.053)  charge= 12.4127  magn=  2.9231
     atom  35 (R=0.053)  charge=  4.0523  magn= -0.0563
     atom  36 (R=0.053)  charge=  4.0503  magn= -0.0579
     atom  37 (R=0.053)  charge=  4.0520  magn= -0.0499
     atom  38 (R=0.053)  charge=  4.0509  magn= -0.0577
     atom  39 (R=0.053)  charge=  4.0527  magn= -0.0552
     atom  40 (R=0.053)  charge=  4.0506  magn= -0.0508
     atom  41 (R=0.053)  charge= 12.4124  magn=  2.9257
     atom  42 (R=0.053)  charge= 12.3292  magn=  3.0258
     atom  43 (R=0.053)  charge=  4.0514  magn= -0.0505
     atom  44 (R=0.053)  charge=  4.0448  magn= -0.0597
     atom  45 (R=0.053)  charge=  4.0486  magn= -0.0544
     atom  46 (R=0.053)  charge=  4.0507  magn= -0.0508
     atom  47 (R=0.053)  charge=  4.0495  magn= -0.0482
     atom  48 (R=0.053)  charge=  4.0467  magn= -0.0568
     atom  49 (R=0.053)  charge= 12.3252  magn=  3.0168
     atom  50 (R=0.053)  charge= 12.4122  magn=  2.9227
     atom  51 (R=0.053)  charge=  4.0302  magn= -0.0695
     atom  52 (R=0.053)  charge=  4.0444  magn= -0.0604
     atom  53 (R=0.053)  charge=  4.0507  magn= -0.0526
     atom  54 (R=0.053)  charge=  4.0214  magn= -0.0769
     atom  55 (R=0.053)  charge=  4.0486  magn= -0.0515
     atom  56 (R=0.053)  charge=  4.0499  magn= -0.0520
     atom  57 (R=0.053)  charge= 12.3291  magn=  3.0257
     atom  58 (R=0.053)  charge= 12.4124  magn=  2.9256
     atom  59 (R=0.053)  charge=  4.0486  magn= -0.0544
     atom  60 (R=0.053)  charge=  4.0448  magn= -0.0598
     atom  61 (R=0.053)  charge=  4.0517  magn= -0.0568
     atom  62 (R=0.053)  charge=  4.0467  magn= -0.0569
     atom  63 (R=0.053)  charge=  4.0495  magn= -0.0486
     atom  64 (R=0.053)  charge=  4.0510  magn= -0.0569
     atom  65 (R=0.053)  charge= 12.3290  magn=  3.0297
     atom  66 (R=0.053)  charge= 12.3290  magn=  3.0298
     atom  67 (R=0.053)  charge=  4.0479  magn= -0.0559
     atom  68 (R=0.053)  charge=  4.0397  magn= -0.0676
     atom  69 (R=0.053)  charge=  4.0479  magn= -0.0555
     atom  70 (R=0.053)  charge=  4.0471  magn= -0.0560
     atom  71 (R=0.053)  charge=  4.0465  magn= -0.0471
     atom  72 (R=0.053)  charge=  4.0471  magn= -0.0560

     total cpu time spent up to now is     2216.9 secs

     End of self-consistent calculation

     =================== HUBBARD OCCUPATIONS ===================
     ------------------------ ATOM    1 ------------------------
     Tr[ns(  1)] (up, down, total) =   4.28479  1.32587  5.61067
     Atomic magnetic moment for atom   1 =   2.95892
     SPIN  1
     eigenvalues:
       0.654  0.655  0.992  0.992  0.992
     eigenvectors (columns):
      -0.000  0.000 -0.964  0.212 -0.163
      -0.802  0.196  0.148  0.493 -0.233
      -0.195 -0.802 -0.031  0.248  0.505
       0.549 -0.133  0.215  0.720 -0.340
      -0.133 -0.548  0.045 -0.363 -0.741
     occupation matrix ns (before diag.):
       0.992  0.000 -0.000  0.000  0.000
       0.000  0.762 -0.000  0.158 -0.000
      -0.000 -0.000  0.762  0.000 -0.157
       0.000  0.158  0.000  0.884  0.000
       0.000 -0.000 -0.157  0.000  0.885
     SPIN  2
     eigenvalues:
       0.151  0.160  0.162  0.426  0.427
     eigenvectors (columns):
      -0.999  0.029 -0.023  0.000 -0.000
      -0.018 -0.550  0.127  0.793 -0.228
       0.009 -0.127 -0.549  0.228  0.794
      -0.028 -0.804  0.185 -0.543  0.155
      -0.013  0.186  0.805  0.156  0.541
     occupation matrix ns (before diag.):
       0.151 -0.000  0.000 -0.000 -0.000
      -0.000  0.341 -0.000 -0.124 -0.000
       0.000 -0.000  0.343 -0.000  0.123
      -0.000 -0.124 -0.000  0.245  0.000
      -0.000 -0.000  0.123  0.000  0.246

     Number of occupied Hubbard levels =    5.6107

 ------ SPIN UP ------------


          k = 0.0000 0.0000 0.0000 (****** PWs)   bands (ev):

   -76.1371 -76.1371 -76.0610 -76.0609 -76.0133 -76.0126 -75.9809 -75.9808
   -75.9534 -75.9332 -75.9302 -75.9301 -75.8512 -75.8509 -75.8508 -75.8505
   -75.7726 -75.7725 -47.4877 -47.4867 -47.4633 -47.4622 -47.4579 -47.4575
   -47.4085 -47.4085 -47.3882 -47.3881 -47.3824 -47.3823 -47.3526 -47.3520
   -47.3461 -47.3456 -47.3399 -47.3394 -47.3274 -47.3273 -47.3060 -47.3060
   -47.3015 -47.3014 -47.2928 -47.2861 -47.2835 -47.2716 -47.2698 -47.2697
   -47.2650 -47.2633 -47.2632 -47.2623 -47.2561 -47.2560 -47.1893 -47.1889
   -47.1889 -47.1885 -47.1838 -47.1836 -47.1821 -47.1816 -47.1801 -47.1797
   -47.1764 -47.1764 -47.1104 -47.1101 -47.1065 -47.1045 -47.0974 -47.0972
   -16.2038 -16.0674 -16.0164 -15.9899 -15.9549 -15.8949 -15.8618 -15.7100
   -15.6636 -15.6334 -15.6069 -15.4951 -15.4790 -15.4542 -15.4242 -15.4086
   -15.3804 -15.3552 -15.3456 -15.3331 -15.3312 -15.3099 -15.2943 -15.2748
   -15.2697 -15.2473 -15.2383 -15.2361 -15.2035 -15.1900 -15.1764 -15.1715
   -15.1651 -15.1539 -15.1268 -15.1216 -15.1144 -15.1074 -15.0994 -15.0830
   -15.0767 -15.0658 -15.0314 -15.0226 -15.0070 -14.9960 -14.9861 -14.9102
   -14.8808 -14.8794 -14.8184 -14.8159 -14.7421 -14.7136  -7.9504  -7.8767
    -7.8385  -7.7915  -7.7829  -7.7429  -7.6958  -7.4081  -7.3820  -7.3764
    -7.3665  -7.3324  -7.2921  -7.2650  -7.2349  -7.2202  -7.1431  -7.1363
    -6.9830  -6.9476  -6.9446  -6.9010  -6.8828  -6.8624  -6.8530  -6.8455
    -6.8161  -6.8121  -6.7748  -6.7500  -6.7300  -6.7266  -6.7086  -6.6930
    -6.6856  -6.6748  -6.6508  -6.6430  -6.6312  -6.6051  -6.5897  -6.5890
    -6.5667  -6.5405  -6.5066  -6.4957  -6.4754  -6.4717  -6.4378  -6.4056
    -6.3980  -6.3797  -6.3461  -6.3421  -6.3371  -6.3047  -6.2841  -6.2746
    -6.2556  -6.2382  -6.1946  -6.1698  -6.1534  -6.1235  -6.1184  -6.0937
    -6.0562  -6.0324  -6.0285  -5.9961  -5.9902  -5.9889  -5.9778  -5.9402
    -5.9306  -5.9213  -5.8899  -5.8864  -5.8605  -5.8443  -5.8066  -5.7747
    -5.6865  -5.6532  -5.6301  -5.6269  -5.5861  -5.5187  -5.5011  -5.4740
    -5.4636  -5.4318  -5.3896  -5.3676  -5.3494  -5.3233  -5.2919  -5.2691
    -5.2540  -5.2395  -5.2138  -5.2002  -5.1768  -5.1751  -5.1520  -5.1422
    -5.1281  -5.1224  -5.0659  -5.0485  -5.0293  -5.0215  -5.0206  -5.0086
    -4.9930  -4.9811  -4.9542  -4.9491  -4.9311  -4.9152  -4.8770  -4.8675
    -4.8561  -4.8413  -4.8193  -4.7876  -4.7821  -4.7666  -4.7390  -4.7228
    -4.7081  -4.6939  -4.6858  -4.6796  -4.6785  -4.6260  -4.6111  -4.5556
    -4.5403  -4.5168  -4.4928  -4.4522  -4.4472  -4.4338  -4.4041  -4.3960
    -4.3759  -4.3709  -4.3557  -4.3519  -4.3476  -4.3273  -4.3172  -4.2890
    -4.2878  -4.2458  -4.2213  -4.2184  -4.1992  -4.1848  -4.1552  -4.1325
    -4.1115  -4.0856  -4.0840  -4.0525  -4.0165  -4.0137  -4.0024  -3.9853
    -3.9552  -3.9520  -3.9334  -3.9267  -3.9231  -3.9164  -3.9016  -3.8971
    -3.8907  -3.8865  -3.8820  -3.8548  -3.8420  -3.8387  -3.8313  -3.8296
    -3.8199  -3.8188  -3.7956  -3.7878  -3.7691  -3.7663  -3.7498  -3.7312
    -3.7259  -3.7044  -3.6981  -3.6854  -3.6368  -3.6314  -3.6169  -3.6023
    -3.5974  -3.5801  -3.5064  -3.4978  -3.4895  -3.4724  -3.4426  -3.4360
    -3.4186  -3.3974  -3.3522  -3.3494  -3.3407  -3.3277

          k = 0.0000-0.5774 0.0000 (****** PWs)   bands (ev):

   -76.1371 -76.1371 -76.0610 -76.0609 -76.0133 -76.0126 -75.9809 -75.9808
   -75.9534 -75.9332 -75.9302 -75.9301 -75.8512 -75.8509 -75.8508 -75.8505
   -75.7726 -75.7725 -47.4877 -47.4867 -47.4633 -47.4622 -47.4579 -47.4575
   -47.4085 -47.4085 -47.3882 -47.3881 -47.3824 -47.3823 -47.3526 -47.3520
   -47.3461 -47.3456 -47.3399 -47.3394 -47.3274 -47.3273 -47.3060 -47.3060
   -47.3015 -47.3014 -47.2928 -47.2861 -47.2835 -47.2716 -47.2698 -47.2697
   -47.2650 -47.2633 -47.2632 -47.2623 -47.2561 -47.2560 -47.1893 -47.1889
   -47.1889 -47.1885 -47.1838 -47.1836 -47.1821 -47.1816 -47.1801 -47.1797
   -47.1764 -47.1764 -47.1104 -47.1101 -47.1065 -47.1045 -47.0974 -47.0972
   -16.1925 -16.0983 -16.0243 -15.9976 -15.9270 -15.8636 -15.8450 -15.7596
   -15.6898 -15.5927 -15.5685 -15.5201 -15.5159 -15.4631 -15.4505 -15.3949
   -15.3751 -15.3603 -15.3507 -15.3226 -15.3119 -15.3093 -15.2928 -15.2750
   -15.2502 -15.2408 -15.2305 -15.2176 -15.2061 -15.1966 -15.1820 -15.1726
   -15.1606 -15.1496 -15.1424 -15.1264 -15.1227 -15.1048 -15.1029 -15.0847
   -15.0760 -15.0642 -15.0338 -15.0285 -15.0045 -14.9961 -14.9872 -14.9088
   -14.8801 -14.8791 -14.8171 -14.8168 -14.7421 -14.7135  -7.9358  -7.8821
    -7.8202  -7.7828  -7.7677  -7.7064  -7.6421  -7.5977  -7.5259  -7.3774
    -7.3413  -7.2867  -7.2741  -7.2606  -7.2144  -7.1997  -7.1364  -7.1306
    -6.9749  -6.9476  -6.9372  -6.9011  -6.8754  -6.8713  -6.8450  -6.8392
    -6.8240  -6.8119  -6.7846  -6.7677  -6.7375  -6.7310  -6.7262  -6.7070
    -6.7003  -6.6775  -6.6538  -6.6462  -6.6303  -6.5983  -6.5649  -6.5513
    -6.5283  -6.5145  -6.4908  -6.4896  -6.4631  -6.4465  -6.4288  -6.4150
    -6.4033  -6.3906  -6.3839  -6.3353  -6.3235  -6.2946  -6.2831  -6.2723
    -6.2502  -6.2250  -6.1911  -6.1863  -6.1601  -6.1202  -6.0880  -6.0770
    -6.0669  -6.0455  -6.0232  -6.0091  -5.9868  -5.9843  -5.9617  -5.9197
    -5.9095  -5.8986  -5.8646  -5.8469  -5.8261  -5.8032  -5.7793  -5.7206
    -5.6504  -5.6252  -5.6042  -5.5960  -5.5805  -5.5561  -5.5360  -5.5266
    -5.5092  -5.4959  -5.4719  -5.4494  -5.4393  -5.4117  -5.3900  -5.3675
    -5.3471  -5.3256  -5.3045  -5.2685  -5.2458  -5.2280  -5.2011  -5.1498
    -5.1378  -5.1209  -5.0946  -5.0749  -5.0529  -5.0252  -5.0073  -4.9732
    -4.9524  -4.9179  -4.9071  -4.8951  -4.8768  -4.8542  -4.8140  -4.8053
    -4.7845  -4.7699  -4.7469  -4.7344  -4.7090  -4.6925  -4.6902  -4.6811
    -4.6690  -4.6451  -4.6196  -4.6062  -4.5975  -4.5682  -4.5549  -4.5486
    -4.5356  -4.5251  -4.5131  -4.4908  -4.4709  -4.4529  -4.4433  -4.4359
    -4.4154  -4.4065  -4.3836  -4.3793  -4.3475  -4.3066  -4.2918  -4.2811
    -4.2611  -4.2556  -4.2270  -4.2060  -4.1938  -4.1819  -4.1743  -4.1691
    -4.1637  -4.1513  -4.1206  -4.1163  -4.0859  -4.0635  -4.0436  -4.0083
    -3.9803  -3.9696  -3.9545  -3.9369  -3.9239  -3.9105  -3.9013  -3.8849
    -3.8833  -3.8703  -3.8570  -3.8543  -3.8467  -3.8439  -3.8349  -3.8249
    -3.8123  -3.7914  -3.7869  -3.7791  -3.7718  -3.7538  -3.7291  -3.7145
    -3.6899  -3.6833  -3.6626  -3.6480  -3.6376  -3.6320  -3.6169  -3.6064
    -3.5997  -3.5803  -3.5717  -3.5348  -3.4792  -3.4670  -3.4253  -3.4228
    -3.4121  -3.3963  -3.3716  -3.3522  -3.3452  -3.3307

          k = 0.5000-0.2887 0.0000 (****** PWs)   bands (ev):

   -76.1371 -76.1371 -76.0610 -76.0609 -76.0133 -76.0126 -75.9809 -75.9808
   -75.9534 -75.9332 -75.9302 -75.9301 -75.8512 -75.8509 -75.8508 -75.8505
   -75.7726 -75.7725 -47.4877 -47.4867 -47.4633 -47.4622 -47.4579 -47.4575
   -47.4085 -47.4085 -47.3882 -47.3881 -47.3824 -47.3823 -47.3526 -47.3520
   -47.3461 -47.3456 -47.3399 -47.3394 -47.3274 -47.3273 -47.3060 -47.3060
   -47.3015 -47.3014 -47.2928 -47.2861 -47.2835 -47.2716 -47.2698 -47.2697
   -47.2650 -47.2633 -47.2632 -47.2623 -47.2561 -47.2560 -47.1893 -47.1889
   -47.1889 -47.1885 -47.1838 -47.1836 -47.1821 -47.1816 -47.1801 -47.1797
   -47.1764 -47.1764 -47.1104 -47.1101 -47.1065 -47.1045 -47.0974 -47.0972
   -16.1861 -16.1183 -16.0217 -15.9704 -15.9336 -15.8678 -15.8511 -15.7683
   -15.6569 -15.6289 -15.5553 -15.5245 -15.5192 -15.4706 -15.4486 -15.3966
   -15.3638 -15.3546 -15.3489 -15.3121 -15.3078 -15.2997 -15.2965 -15.2773
   -15.2506 -15.2480 -15.2277 -15.2206 -15.2175 -15.2031 -15.1953 -15.1644
   -15.1627 -15.1449 -15.1391 -15.1271 -15.1224 -15.1064 -15.1034 -15.0784
   -15.0748 -15.0695 -15.0312 -15.0299 -15.0029 -14.9984 -14.9849 -14.9074
   -14.8804 -14.8797 -14.8184 -14.8155 -14.7422 -14.7134  -7.9296  -7.8949
    -7.7969  -7.7929  -7.7452  -7.7081  -7.6988  -7.5591  -7.5437  -7.3786
    -7.3335  -7.2934  -7.2490  -7.2443  -7.2259  -7.2203  -7.1427  -7.1252
    -6.9722  -6.9460  -6.9421  -6.8984  -6.8815  -6.8740  -6.8519  -6.8367
    -6.8276  -6.8154  -6.8065  -6.7698  -6.7663  -6.7546  -6.7123  -6.7005
    -6.6714  -6.6694  -6.6240  -6.6215  -6.6044  -6.5910  -6.5639  -6.5239
    -6.5216  -6.5127  -6.5058  -6.5037  -6.4744  -6.4556  -6.4356  -6.4091
    -6.3939  -6.3785  -6.3735  -6.3612  -6.3128  -6.3089  -6.2902  -6.2829
    -6.2680  -6.2488  -6.1975  -6.1949  -6.1304  -6.1178  -6.0877  -6.0691
    -6.0495  -6.0378  -6.0238  -6.0064  -5.9964  -5.9702  -5.9488  -5.9176
    -5.9158  -5.8999  -5.8994  -5.8743  -5.8631  -5.8443  -5.7947  -5.6758
    -5.6497  -5.6153  -5.5810  -5.5602  -5.5527  -5.5308  -5.5277  -5.5118
    -5.5103  -5.4920  -5.4819  -5.4663  -5.4507  -5.4360  -5.3958  -5.3814
    -5.3655  -5.3487  -5.3334  -5.2662  -5.2308  -5.2032  -5.1841  -5.1608
    -5.1278  -5.0862  -5.0825  -5.0672  -5.0489  -5.0253  -5.0038  -4.9991
    -4.9455  -4.9395  -4.9150  -4.8772  -4.8760  -4.8401  -4.8139  -4.8014
    -4.7906  -4.7808  -4.7403  -4.7361  -4.7196  -4.7103  -4.6875  -4.6702
    -4.6646  -4.6326  -4.6299  -4.6071  -4.5969  -4.5824  -4.5688  -4.5640
    -4.5493  -4.5110  -4.4759  -4.4719  -4.4605  -4.4591  -4.4457  -4.4325
    -4.4259  -4.4079  -4.4055  -4.3930  -4.3669  -4.2933  -4.2859  -4.2764
    -4.2669  -4.2360  -4.2212  -4.2170  -4.2015  -4.1877  -4.1745  -4.1647
    -4.1541  -4.1404  -4.1288  -4.0958  -4.0819  -4.0789  -4.0302  -4.0104
    -3.9969  -3.9718  -3.9428  -3.9321  -3.9164  -3.9139  -3.9074  -3.8941
    -3.8854  -3.8816  -3.8731  -3.8643  -3.8534  -3.8395  -3.8291  -3.8276
    -3.8068  -3.7991  -3.7907  -3.7742  -3.7661  -3.7399  -3.7278  -3.7121
    -3.6941  -3.6916  -3.6666  -3.6530  -3.6308  -3.6274  -3.6235  -3.6132
    -3.5775  -3.5751  -3.5560  -3.5314  -3.5005  -3.4523  -3.4507  -3.4251
    -3.4216  -3.3874  -3.3605  -3.3586  -3.3370  -3.3260

          k =-0.5000-0.2887 0.0000 (****** PWs)   bands (ev):

   -76.1371 -76.1371 -76.0610 -76.0609 -76.0133 -76.0126 -75.9809 -75.9808
   -75.9534 -75.9332 -75.9302 -75.9301 -75.8512 -75.8509 -75.8508 -75.8505
   -75.7726 -75.7725 -47.4877 -47.4867 -47.4633 -47.4622 -47.4579 -47.4575
   -47.4085 -47.4085 -47.3882 -47.3881 -47.3824 -47.3823 -47.3526 -47.3520
   -47.3461 -47.3456 -47.3399 -47.3394 -47.3274 -47.3273 -47.3060 -47.3060
   -47.3015 -47.3014 -47.2928 -47.2861 -47.2835 -47.2716 -47.2698 -47.2697
   -47.2650 -47.2633 -47.2632 -47.2623 -47.2561 -47.2560 -47.1893 -47.1889
   -47.1889 -47.1885 -47.1838 -47.1836 -47.1821 -47.1816 -47.1801 -47.1797
   -47.1764 -47.1764 -47.1104 -47.1101 -47.1065 -47.1045 -47.0974 -47.0972
   -16.1925 -16.0984 -16.0241 -15.9975 -15.9272 -15.8637 -15.8449 -15.7595
   -15.6898 -15.5926 -15.5686 -15.5198 -15.5160 -15.4634 -15.4505 -15.3949
   -15.3755 -15.3600 -15.3504 -15.3224 -15.3116 -15.3094 -15.2930 -15.2749
   -15.2510 -15.2406 -15.2302 -15.2174 -15.2063 -15.1970 -15.1818 -15.1726
   -15.1609 -15.1484 -15.1425 -15.1264 -15.1237 -15.1044 -15.1036 -15.0838
   -15.0757 -15.0647 -15.0343 -15.0283 -15.0041 -14.9963 -14.9872 -14.9088
   -14.8801 -14.8791 -14.8171 -14.8168 -14.7421 -14.7135  -7.9357  -7.8828
    -7.8194  -7.7830  -7.7677  -7.7057  -7.6435  -7.5971  -7.5259  -7.3776
    -7.3415  -7.2855  -7.2742  -7.2607  -7.2149  -7.1999  -7.1367  -7.1303
    -6.9751  -6.9484  -6.9367  -6.8997  -6.8775  -6.8687  -6.8486  -6.8384
    -6.8235  -6.8097  -6.7859  -6.7667  -6.7379  -6.7300  -6.7271  -6.7070
    -6.6997  -6.6773  -6.6536  -6.6468  -6.6299  -6.5993  -6.5645  -6.5521
    -6.5316  -6.5137  -6.4950  -6.4868  -6.4604  -6.4446  -6.4275  -6.4183
    -6.4025  -6.3915  -6.3819  -6.3346  -6.3236  -6.2950  -6.2811  -6.2711
    -6.2526  -6.2248  -6.1905  -6.1882  -6.1587  -6.1131  -6.0875  -6.0867
    -6.0756  -6.0453  -6.0240  -6.0066  -5.9832  -5.9810  -5.9602  -5.9209
    -5.9094  -5.8995  -5.8646  -5.8458  -5.8268  -5.8018  -5.7777  -5.7225
    -5.6520  -5.6236  -5.6004  -5.5995  -5.5773  -5.5544  -5.5414  -5.5272
    -5.5089  -5.4967  -5.4723  -5.4493  -5.4381  -5.4116  -5.3917  -5.3671
    -5.3474  -5.3238  -5.3046  -5.2662  -5.2458  -5.2308  -5.2008  -5.1504
    -5.1343  -5.1202  -5.0944  -5.0763  -5.0533  -5.0285  -5.0065  -4.9738
    -4.9513  -4.9186  -4.9062  -4.8942  -4.8782  -4.8573  -4.8136  -4.8043
    -4.7887  -4.7672  -4.7461  -4.7355  -4.7100  -4.6946  -4.6903  -4.6745
    -4.6675  -4.6435  -4.6211  -4.6045  -4.5970  -4.5675  -4.5541  -4.5512
    -4.5345  -4.5248  -4.5101  -4.4928  -4.4708  -4.4487  -4.4437  -4.4388
    -4.4214  -4.4094  -4.3856  -4.3767  -4.3485  -4.3070  -4.2926  -4.2746
    -4.2618  -4.2545  -4.2287  -4.2065  -4.1936  -4.1831  -4.1740  -4.1699
    -4.1620  -4.1470  -4.1203  -4.1181  -4.0898  -4.0638  -4.0426  -4.0084
    -3.9818  -3.9730  -3.9516  -3.9316  -3.9267  -3.9123  -3.8965  -3.8881
    -3.8814  -3.8702  -3.8604  -3.8565  -3.8482  -3.8412  -3.8349  -3.8180
    -3.8130  -3.7926  -3.7869  -3.7821  -3.7726  -3.7524  -3.7272  -3.7135
    -3.6924  -3.6843  -3.6628  -3.6457  -3.6395  -3.6325  -3.6174  -3.6055
    -3.5992  -3.5821  -3.5709  -3.5333  -3.4772  -3.4685  -3.4259  -3.4251
    -3.4105  -3.3963  -3.3724  -3.3519  -3.3431  -3.3320

 ------ SPIN DOWN ----------


          k = 0.0000 0.0000 0.0000 (****** PWs)   bands (ev):

   -72.9792 -72.9791 -72.9730 -72.9725 -72.9070 -72.9069 -72.8954 -72.8930
   -72.8929 -72.8482 -72.8344 -72.8344 -72.8187 -72.8186 -72.8164 -72.8158
   -72.7431 -72.7429 -44.3885 -44.3872 -44.3789 -44.3783 -44.3623 -44.3606
   -44.3482 -44.3477 -44.3354 -44.3348 -44.3320 -44.3317 -44.3124 -44.3122
   -44.3006 -44.2983 -44.2983 -44.2842 -44.2841 -44.2694 -44.2693 -44.2674
   -44.2673 -44.2662 -44.2629 -44.2544 -44.2544 -44.2543 -44.2349 -44.2349
   -44.2209 -44.2205 -44.2203 -44.2190 -44.2189 -44.2173 -44.2123 -44.2123
   -44.1955 -44.1955 -44.1932 -44.1931 -44.1875 -44.1868 -44.1840 -44.1838
   -44.1833 -44.1829 -44.1430 -44.1425 -44.1182 -44.1162 -44.1085 -44.1078
   -16.2134 -16.0799 -16.0320 -16.0043 -15.9703 -15.9099 -15.8818 -15.7348
   -15.6903 -15.6630 -15.6391 -15.5372 -15.5157 -15.5040 -15.4628 -15.4509
   -15.4287 -15.4039 -15.3940 -15.3757 -15.3736 -15.3595 -15.3432 -15.3218
   -15.3179 -15.2960 -15.2873 -15.2852 -15.2520 -15.2361 -15.2265 -15.2211
   -15.2135 -15.2024 -15.1749 -15.1744 -15.1632 -15.1483 -15.1443 -15.1332
   -15.1279 -15.1079 -15.0895 -15.0742 -15.0627 -15.0438 -15.0354 -14.9692
   -14.9510 -14.9448 -14.8863 -14.8833 -14.8112 -14.7844  -7.6644  -7.6168
    -7.5761  -7.5329  -7.5252  -7.4865  -7.4403  -7.1619  -7.1318  -7.1307
    -7.1174  -7.0831  -7.0437  -7.0189  -6.9954  -6.9767  -6.9054  -6.9027
    -6.8576  -6.8513  -6.8133  -6.7783  -6.7584  -6.7253  -6.6697  -6.6424
    -6.6291  -6.6078  -6.6002  -6.5550  -6.5456  -6.5442  -6.5271  -6.5243
    -6.4734  -6.4650  -6.4501  -6.4197  -6.4154  -6.4027  -6.3767  -6.3504
    -6.3430  -6.2986  -6.2960  -6.2931  -6.2533  -6.1850  -6.1474  -6.1344
    -6.1299  -6.0557  -6.0438  -6.0234  -5.9997  -5.9936  -5.9450  -5.9363
    -5.9323  -5.9270  -5.8849  -5.8782  -5.8535  -5.8097  -5.7945  -5.6175
    -5.6046  -5.5933  -5.5767  -5.5673  -5.5478  -5.5419  -5.5293  -5.5032
    -5.4950  -5.4896  -5.4839  -5.4534  -5.3992  -5.3974  -5.3847  -5.3624
    -5.3051  -5.2755  -5.2247  -5.2078  -5.1868  -5.1424  -5.1060  -5.1037
    -5.0952  -5.0607  -5.0251  -5.0170  -4.9818  -4.9781  -4.9659  -4.9578
    -4.9444  -4.9222  -4.9095  -4.8768  -4.8599  -4.8471  -4.8202  -4.8185
    -4.8009  -4.7847  -4.7718  -4.7709  -4.7482  -4.7458  -4.7215  -4.7143
    -4.6933  -4.6767  -4.6753  -4.6327  -4.6304  -4.5713  -4.5612  -4.5540
    -4.5500  -4.5450  -4.4744  -4.4568  -4.4478  -4.4462  -4.4075  -4.3773
    -4.3666  -4.3481  -4.3218  -4.3156  -4.3016  -4.2893  -4.2568  -4.2448
    -4.2330  -4.2194  -4.2092  -4.1715  -4.1103  -4.0734  -4.0691  -4.0563
    -4.0549  -3.9980  -3.9967  -3.9813  -3.9805  -3.9678  -3.9190  -3.8958
    -3.8677  -3.8327  -3.8156  -3.7654  -3.7242  -3.6880  -3.6153  -3.5915
    -1.5488  -1.5378  -1.5060  -1.5005  -1.4791  -1.4669  -1.4576  -1.4511
    -1.4139  -1.4054  -1.4011  -1.3885  -1.3768  -1.3656  -1.3440  -1.3303
    -1.3279  -1.3186  -1.3077  -1.2890  -1.2726  -1.2643  -1.2551  -1.2425
    -1.2356  -1.2219  -1.2043  -1.1995  -1.1845  -1.1586  -1.1349  -1.1215
    -1.1141  -1.1012  -1.0939  -1.0893  -1.0674  -1.0649  -1.0545  -1.0505
    -1.0428  -1.0339  -1.0280  -1.0228  -1.0198  -1.0057  -0.9984  -0.9894
    -0.9870  -0.9794  -0.9687  -0.9567  -0.9486  -0.9283

          k = 0.0000-0.5774 0.0000 (****** PWs)   bands (ev):

   -72.9792 -72.9791 -72.9730 -72.9725 -72.9070 -72.9069 -72.8954 -72.8930
   -72.8929 -72.8482 -72.8344 -72.8344 -72.8187 -72.8186 -72.8164 -72.8158
   -72.7431 -72.7429 -44.3885 -44.3872 -44.3789 -44.3783 -44.3623 -44.3606
   -44.3482 -44.3477 -44.3354 -44.3348 -44.3320 -44.3317 -44.3124 -44.3122
   -44.3006 -44.2983 -44.2983 -44.2842 -44.2841 -44.2694 -44.2693 -44.2674
   -44.2673 -44.2662 -44.2629 -44.2544 -44.2544 -44.2543 -44.2349 -44.2349
   -44.2209 -44.2205 -44.2203 -44.2190 -44.2189 -44.2173 -44.2123 -44.2123
   -44.1955 -44.1955 -44.1932 -44.1931 -44.1875 -44.1868 -44.1840 -44.1838
   -44.1833 -44.1829 -44.1430 -44.1425 -44.1182 -44.1162 -44.1085 -44.1078
   -16.2026 -16.1101 -16.0390 -16.0118 -15.9433 -15.8797 -15.8645 -15.7820
   -15.7187 -15.6254 -15.6030 -15.5560 -15.5502 -15.5029 -15.4984 -15.4449
   -15.4208 -15.4049 -15.3999 -15.3672 -15.3588 -15.3575 -15.3418 -15.3231
   -15.2971 -15.2869 -15.2766 -15.2669 -15.2561 -15.2426 -15.2333 -15.2223
   -15.2104 -15.1962 -15.1948 -15.1761 -15.1703 -15.1500 -15.1458 -15.1331
   -15.1257 -15.1065 -15.0918 -15.0838 -15.0588 -15.0452 -15.0342 -14.9683
   -14.9503 -14.9437 -14.8847 -14.8843 -14.8112 -14.7843  -7.6559  -7.6138
    -7.5564  -7.5206  -7.5122  -7.4525  -7.3900  -7.3479  -7.2762  -7.1237
    -7.0923  -7.0400  -7.0267  -7.0177  -6.9709  -6.9649  -6.9043  -6.8958
    -6.8589  -6.8345  -6.8133  -6.7645  -6.7298  -6.7154  -6.6844  -6.6604
    -6.6536  -6.6311  -6.6164  -6.5932  -6.5582  -6.5500  -6.5218  -6.4909
    -6.4882  -6.4665  -6.4554  -6.4285  -6.4251  -6.3857  -6.3345  -6.3204
    -6.3127  -6.2694  -6.2504  -6.2265  -6.1964  -6.1915  -6.1650  -6.1509
    -6.1293  -6.1094  -6.0955  -6.0772  -6.0433  -6.0268  -5.9744  -5.9618
    -5.9408  -5.8973  -5.8521  -5.8012  -5.8005  -5.6628  -5.6521  -5.6293
    -5.6231  -5.6037  -5.5795  -5.5717  -5.5475  -5.5330  -5.5100  -5.4980
    -5.4766  -5.4670  -5.4503  -5.4241  -5.4151  -5.3754  -5.3512  -5.3211
    -5.2992  -5.2828  -5.2450  -5.2378  -5.2188  -5.2118  -5.1883  -5.1682
    -5.1511  -5.1266  -5.1188  -5.0942  -5.0817  -5.0788  -5.0569  -5.0299
    -5.0053  -4.9544  -4.9367  -4.9308  -4.9218  -4.8891  -4.8735  -4.8597
    -4.8414  -4.8238  -4.8148  -4.7914  -4.7025  -4.6868  -4.6725  -4.6704
    -4.6429  -4.6244  -4.5892  -4.5748  -4.5628  -4.5412  -4.4962  -4.4939
    -4.4861  -4.4680  -4.4452  -4.4435  -4.4244  -4.4092  -4.3945  -4.3432
    -4.3239  -4.3055  -4.2966  -4.2837  -4.2643  -4.2504  -4.2345  -4.2131
    -4.1742  -4.1588  -4.1530  -4.1262  -4.1057  -4.0883  -4.0836  -4.0608
    -4.0590  -4.0332  -4.0070  -3.9838  -3.9609  -3.9524  -3.9475  -3.9090
    -3.9016  -3.8663  -3.8337  -3.8101  -3.7742  -3.7677  -3.7063  -3.6395
    -1.5533  -1.5508  -1.5189  -1.5108  -1.4882  -1.4687  -1.4548  -1.4482
    -1.4336  -1.4180  -1.4014  -1.3821  -1.3726  -1.3610  -1.3497  -1.3265
    -1.3170  -1.3056  -1.2842  -1.2752  -1.2627  -1.2511  -1.2338  -1.2284
    -1.2199  -1.2019  -1.1883  -1.1741  -1.1674  -1.1597  -1.1397  -1.1352
    -1.1292  -1.1215  -1.1113  -1.0999  -1.0882  -1.0794  -1.0743  -1.0675
    -1.0526  -1.0433  -1.0338  -1.0268  -1.0164  -1.0162  -1.0006  -0.9987
    -0.9901  -0.9789  -0.9661  -0.9461  -0.9320  -0.9256

          k = 0.5000-0.2887 0.0000 (****** PWs)   bands (ev):

   -72.9792 -72.9791 -72.9730 -72.9725 -72.9070 -72.9069 -72.8954 -72.8930
   -72.8929 -72.8482 -72.8344 -72.8344 -72.8187 -72.8186 -72.8164 -72.8158
   -72.7431 -72.7429 -44.3885 -44.3872 -44.3789 -44.3783 -44.3623 -44.3606
   -44.3482 -44.3477 -44.3354 -44.3348 -44.3320 -44.3317 -44.3124 -44.3122
   -44.3006 -44.2983 -44.2983 -44.2842 -44.2841 -44.2694 -44.2693 -44.2674
   -44.2673 -44.2662 -44.2629 -44.2544 -44.2544 -44.2543 -44.2349 -44.2349
   -44.2209 -44.2205 -44.2203 -44.2190 -44.2189 -44.2173 -44.2123 -44.2123
   -44.1955 -44.1955 -44.1932 -44.1931 -44.1875 -44.1868 -44.1840 -44.1838
   -44.1833 -44.1829 -44.1430 -44.1425 -44.1182 -44.1162 -44.1085 -44.1078
   -16.1965 -16.1295 -16.0366 -15.9855 -15.9492 -15.8868 -15.8662 -15.7921
   -15.6906 -15.6598 -15.5867 -15.5614 -15.5512 -15.5069 -15.4989 -15.4465
   -15.4131 -15.3993 -15.3980 -15.3572 -15.3551 -15.3474 -15.3441 -15.3249
   -15.2996 -15.2940 -15.2743 -15.2692 -15.2680 -15.2495 -15.2456 -15.2159
   -15.2141 -15.1904 -15.1856 -15.1763 -15.1712 -15.1514 -15.1492 -15.1257
   -15.1222 -15.1137 -15.0890 -15.0847 -15.0592 -15.0464 -15.0318 -14.9676
   -14.9510 -14.9437 -14.8864 -14.8828 -14.8113 -14.7842  -7.6514  -7.6213
    -7.5385  -7.5351  -7.4843  -7.4542  -7.4444  -7.3112  -7.2942  -7.1250
    -7.0831  -7.0475  -7.0065  -7.0048  -6.9818  -6.9720  -6.9073  -6.8931
    -6.8492  -6.8382  -6.8226  -6.7547  -6.7262  -6.7099  -6.7027  -6.6849
    -6.6560  -6.6469  -6.6342  -6.5752  -6.5731  -6.5615  -6.5352  -6.4929
    -6.4613  -6.4427  -6.4164  -6.4090  -6.3863  -6.3692  -6.3542  -6.3254
    -6.2968  -6.2923  -6.2735  -6.2283  -6.2240  -6.1899  -6.1589  -6.1490
    -6.1411  -6.1170  -6.0827  -6.0582  -5.9950  -5.9889  -5.9862  -5.9716
    -5.9492  -5.9331  -5.9198  -5.8059  -5.7687  -5.6940  -5.6675  -5.6538
    -5.6256  -5.5900  -5.5609  -5.5589  -5.5489  -5.5248  -5.5029  -5.4854
    -5.4806  -5.4707  -5.4654  -5.4370  -5.4084  -5.4049  -5.3690  -5.2971
    -5.2886  -5.2629  -5.2473  -5.2226  -5.2182  -5.1981  -5.1816  -5.1767
    -5.1554  -5.1419  -5.1275  -5.0988  -5.0724  -5.0694  -5.0347  -5.0231
    -5.0054  -4.9652  -4.9560  -4.9345  -4.9162  -4.9098  -4.8597  -4.8465
    -4.8338  -4.8191  -4.8185  -4.7015  -4.7007  -4.6964  -4.6757  -4.6606
    -4.6516  -4.6380  -4.6214  -4.6065  -4.5626  -4.5382  -4.5183  -4.5181
    -4.4984  -4.4527  -4.4302  -4.4252  -4.4030  -4.3895  -4.3739  -4.3471
    -4.3331  -4.3194  -4.2882  -4.2833  -4.2716  -4.2418  -4.2396  -4.2336
    -4.2115  -4.1885  -4.1568  -4.1192  -4.0962  -4.0835  -4.0734  -4.0451
    -4.0361  -4.0345  -4.0235  -3.9888  -3.9599  -3.9532  -3.9478  -3.9259
    -3.9076  -3.8397  -3.8394  -3.8281  -3.8160  -3.6946  -3.6883  -3.6639
    -1.5645  -1.5516  -1.5144  -1.5086  -1.4927  -1.4733  -1.4703  -1.4365
    -1.4222  -1.4170  -1.3995  -1.3924  -1.3705  -1.3543  -1.3472  -1.3305
    -1.2994  -1.2925  -1.2804  -1.2706  -1.2582  -1.2450  -1.2439  -1.2298
    -1.2243  -1.2077  -1.1918  -1.1801  -1.1660  -1.1570  -1.1520  -1.1325
    -1.1286  -1.1121  -1.1102  -1.1022  -1.0952  -1.0850  -1.0838  -1.0720
    -1.0659  -1.0441  -1.0324  -1.0249  -1.0186  -1.0139  -1.0090  -0.9921
    -0.9852  -0.9737  -0.9627  -0.9594  -0.9295  -0.9168

          k =-0.5000-0.2887 0.0000 (****** PWs)   bands (ev):

   -72.9792 -72.9791 -72.9730 -72.9725 -72.9070 -72.9069 -72.8954 -72.8930
   -72.8929 -72.8482 -72.8344 -72.8344 -72.8187 -72.8186 -72.8164 -72.8158
   -72.7431 -72.7429 -44.3885 -44.3872 -44.3789 -44.3783 -44.3623 -44.3606
   -44.3482 -44.3477 -44.3354 -44.3348 -44.3320 -44.3317 -44.3124 -44.3122
   -44.3006 -44.2983 -44.2983 -44.2842 -44.2841 -44.2694 -44.2693 -44.2674
   -44.2673 -44.2662 -44.2629 -44.2544 -44.2544 -44.2543 -44.2349 -44.2349
   -44.2209 -44.2205 -44.2203 -44.2190 -44.2189 -44.2173 -44.2123 -44.2123
   -44.1955 -44.1955 -44.1932 -44.1931 -44.1875 -44.1868 -44.1840 -44.1838
   -44.1833 -44.1829 -44.1430 -44.1425 -44.1182 -44.1162 -44.1085 -44.1078
   -16.2026 -16.1099 -16.0394 -16.0118 -15.9430 -15.8794 -15.8646 -15.7823
   -15.7187 -15.6252 -15.6030 -15.5564 -15.5502 -15.5029 -15.4980 -15.4451
   -15.4202 -15.4052 -15.4003 -15.3671 -15.3591 -15.3575 -15.3416 -15.3233
   -15.2962 -15.2873 -15.2768 -15.2668 -15.2561 -15.2426 -15.2334 -15.2224
   -15.2104 -15.1965 -15.1951 -15.1756 -15.1703 -15.1496 -15.1457 -15.1336
   -15.1261 -15.1065 -15.0916 -15.0836 -15.0589 -15.0452 -15.0342 -14.9683
   -14.9503 -14.9437 -14.8847 -14.8843 -14.8112 -14.7843  -7.6560  -7.6133
    -7.5574  -7.5202  -7.5124  -7.4525  -7.3892  -7.3482  -7.2763  -7.1239
    -7.0923  -7.0401  -7.0266  -7.0177  -6.9712  -6.9646  -6.9041  -6.8960
    -6.8590  -6.8345  -6.8132  -6.7651  -6.7288  -6.7144  -6.6856  -6.6595
    -6.6536  -6.6329  -6.6157  -6.5934  -6.5586  -6.5497  -6.5221  -6.4905
    -6.4892  -6.4672  -6.4551  -6.4281  -6.4238  -6.3856  -6.3347  -6.3211
    -6.3119  -6.2690  -6.2495  -6.2277  -6.1965  -6.1911  -6.1650  -6.1508
    -6.1299  -6.1099  -6.0953  -6.0787  -6.0432  -6.0247  -5.9743  -5.9618
    -5.9417  -5.8975  -5.8526  -5.8016  -5.7999  -5.6616  -5.6528  -5.6308
    -5.6238  -5.5997  -5.5756  -5.5702  -5.5478  -5.5334  -5.5140  -5.5019
    -5.4790  -5.4665  -5.4463  -5.4239  -5.4161  -5.3756  -5.3518  -5.3210
    -5.2995  -5.2810  -5.2442  -5.2369  -5.2213  -5.2112  -5.1887  -5.1676
    -5.1529  -5.1269  -5.1181  -5.0943  -5.0812  -5.0780  -5.0565  -5.0303
    -5.0067  -4.9540  -4.9361  -4.9303  -4.9221  -4.8893  -4.8739  -4.8602
    -4.8417  -4.8225  -4.8138  -4.7911  -4.7028  -4.6877  -4.6724  -4.6712
    -4.6429  -4.6242  -4.5895  -4.5752  -4.5627  -4.5413  -4.4953  -4.4935
    -4.4858  -4.4688  -4.4448  -4.4435  -4.4239  -4.4090  -4.3938  -4.3437
    -4.3241  -4.3058  -4.2968  -4.2830  -4.2646  -4.2503  -4.2347  -4.2135
    -4.1746  -4.1587  -4.1526  -4.1261  -4.1060  -4.0882  -4.0834  -4.0609
    -4.0591  -4.0334  -4.0071  -3.9839  -3.9609  -3.9523  -3.9472  -3.9089
    -3.9021  -3.8662  -3.8335  -3.8103  -3.7742  -3.7673  -3.7066  -3.6395
    -1.5547  -1.5488  -1.5189  -1.5081  -1.4855  -1.4695  -1.4652  -1.4510
    -1.4310  -1.4202  -1.3983  -1.3790  -1.3759  -1.3553  -1.3489  -1.3287
    -1.3150  -1.3009  -1.2823  -1.2775  -1.2573  -1.2514  -1.2475  -1.2294
    -1.2191  -1.1979  -1.1844  -1.1771  -1.1685  -1.1541  -1.1452  -1.1370
    -1.1307  -1.1225  -1.1149  -1.0973  -1.0860  -1.0812  -1.0765  -1.0674
    -1.0487  -1.0445  -1.0287  -1.0260  -1.0216  -1.0170  -1.0006  -0.9972
    -0.9829  -0.9795  -0.9645  -0.9516  -0.9338  -0.9240

     highest occupied, lowest unoccupied level (ev):    -3.3260   -1.5645

!    total energy              =  -24931.20008887 Ry
     total all-electron energy =    -24931.200089 Ry
     estimated scf accuracy    <          4.4E-11 Ry

     The total energy is the sum of the following terms:
     one-electron contribution =  -25177.31214718 Ry
     hartree contribution      =   12523.82177052 Ry
     xc contribution           =    -743.79116216 Ry
     ewald contribution        =    8913.20911809 Ry
     Hubbard energy            =      -0.02174764 Ry
     one-center paw contrib.   =  -20447.10592050 Ry

     total magnetization       =    54.00 Bohr mag/cell
     absolute magnetization    =    65.51 Bohr mag/cell

     convergence has been achieved in  14 iterations

     negative rho (up, down):  1.303E-01 1.476E-01

     Forces acting on atoms (cartesian axes, Ry/au):

     atom    1 type  1   force =    -0.00109719   -0.00191711    0.00011765
     atom    2 type  3   force =    -0.00244907   -0.00776261    0.00226498
     atom    3 type  3   force =    -0.00549986   -0.00601496    0.00226498
     atom    4 type  2   force =     0.00486905   -0.02270622   -0.00065693
     atom    5 type  2   force =    -0.00320417   -0.00555932   -0.00949167
     atom    6 type  2   force =    -0.02210351   -0.00713796   -0.00065711
     atom    7 type  2   force =     0.00731064   -0.02442712   -0.00194424
     atom    8 type  2   force =     0.00247823    0.00427131    0.00888467
     atom    9 type  2   force =    -0.02481365   -0.00588282   -0.00194400
     atom   10 type  3   force =    -0.00175261   -0.00209383    0.00022925
     atom   11 type  3   force =    -0.00562095   -0.00546433    0.00214602
     atom   12 type  2   force =     0.00494661    0.00063073   -0.00970427
     atom   13 type  2   force =    -0.00290111   -0.00482893   -0.00926352
     atom   14 type  2   force =    -0.02182076   -0.00648229   -0.00078042
     atom   15 type  2   force =    -0.00560970    0.00087676    0.00924554
     atom   16 type  2   force =     0.00235451    0.00469097    0.00945628
     atom   17 type  2   force =    -0.02497541   -0.00541934   -0.00195995
     atom   18 type  3   force =    -0.00134482   -0.00139047   -0.00052536
     atom   19 type  3   force =    -0.01444201    0.02876797    0.00308804
     atom   20 type  2   force =     0.00466503    0.00073101   -0.00975791
     atom   21 type  2   force =    -0.00418136    0.00236473   -0.00760091
     atom   22 type  2   force =    -0.01977185   -0.00451680    0.00137908
     atom   23 type  2   force =    -0.00560577    0.00077217    0.00953196
     atom   24 type  2   force =    -0.00279662    0.01174639    0.00748465
     atom   25 type  2   force =    -0.02316325    0.00012095   -0.00335713
     atom   26 type  3   force =    -0.00193093   -0.00758718    0.00214573
     atom   27 type  3   force =    -0.00092957   -0.00242405    0.00022720
     atom   28 type  2   force =     0.00529832   -0.02213405   -0.00078059
     atom   29 type  2   force =    -0.00271962   -0.00491943   -0.00925845
     atom   30 type  2   force =    -0.00195299    0.00455602   -0.00970493
     atom   31 type  2   force =     0.00779785   -0.02433523   -0.00195998
     atom   32 type  2   force =     0.00290518    0.00434900    0.00945358
     atom   33 type  2   force =     0.00355011   -0.00441328    0.00924201
     atom   34 type  3   force =    -0.00101937   -0.00202989    0.00012472
     atom   35 type  2   force =     0.00592037    0.00017978   -0.01049621
     atom   36 type  2   force =    -0.00357448   -0.00423931   -0.00981906
     atom   37 type  2   force =    -0.00171785    0.00531784   -0.00986044
     atom   38 type  2   force =    -0.00557797   -0.00002527    0.00991608
     atom   39 type  2   force =     0.00216556    0.00571033    0.01062194
     atom   40 type  2   force =     0.00336599   -0.00395006    0.00928216
     atom   41 type  3   force =    -0.00067175   -0.00122542   -0.00064022
     atom   42 type  3   force =    -0.00990693    0.03240320    0.00109807
     atom   43 type  2   force =     0.00514915    0.00126232   -0.00990015
     atom   44 type  2   force =    -0.00376752    0.00281190   -0.00757505
     atom   45 type  2   force =    -0.00022079    0.00755282   -0.00794242
     atom   46 type  2   force =    -0.00512467    0.00081804    0.00956123
     atom   47 type  2   force =    -0.00238214    0.01193067    0.00802058
     atom   48 type  2   force =     0.00497964    0.00145650    0.00795479
     atom   49 type  3   force =     0.03213124    0.00187511    0.00308768
     atom   50 type  3   force =    -0.00053680   -0.00185757   -0.00052501
     atom   51 type  2   force =     0.00597252   -0.01937500    0.00138017
     atom   52 type  2   force =     0.00414644   -0.00244254   -0.00759996
     atom   53 type  2   force =    -0.00171120    0.00439893   -0.00975335
     atom   54 type  2   force =     0.01168636   -0.01999477   -0.00335856
     atom   55 type  2   force =     0.01157709    0.00344638    0.00748401
     atom   56 type  2   force =     0.00346454   -0.00447237    0.00953115
     atom   57 type  3   force =     0.03299956    0.00762185    0.00109623
     atom   58 type  3   force =    -0.00082691   -0.00125804   -0.00063961
     atom   59 type  2   force =     0.00665073    0.00359462   -0.00794140
     atom   60 type  2   force =     0.00435946   -0.00185646   -0.00757033
     atom   61 type  2   force =    -0.00090822    0.00595494   -0.01053287
     atom   62 type  2   force =    -0.00122899    0.00505381    0.00795084
     atom   63 type  2   force =     0.01152360    0.00388763    0.00801579
     atom   64 type  2   force =     0.00432820   -0.00394448    0.01019273
     atom   65 type  3   force =     0.03345325    0.00836230    0.00038994
     atom   66 type  3   force =    -0.00947776    0.03316069    0.00038883
     atom   67 type  2   force =     0.00634889    0.00365293   -0.00798778
     atom   68 type  2   force =     0.00305092    0.00526682   -0.00612516
     atom   69 type  2   force =    -0.00002297    0.00732797   -0.00799255
     atom   70 type  2   force =    -0.00128925    0.00481119    0.00825916
     atom   71 type  2   force =     0.00641506    0.01110360    0.00582961
     atom   72 type  2   force =     0.00478828    0.00124829    0.00826015

     Total force =     0.137784     Total SCF correction =     0.000009


     Computing stress (Cartesian axis) and pressure


     negative rho (up, down):  1.303E-01 1.476E-01
          total   stress  (Ry/bohr**3)                   (kbar)     P=        1.86
   0.00001255  -0.00000122   0.00000070            1.85       -0.18        0.10
  -0.00000122   0.00001115   0.00000121           -0.18        1.64        0.18
   0.00000070   0.00000121   0.00001432            0.10        0.18        2.11


     Writing all to output data dir ./Cr_0_-0.1/Cr_0_0.save/ :
     XML data file, charge density, pseudopotentials, collected wavefunctions

     init_run     :    170.85s CPU    100.18s WALL (       1 calls)
     electrons    :   3902.22s CPU   2116.98s WALL (       1 calls)
     forces       :    141.15s CPU     74.57s WALL (       1 calls)
     stress       :    846.34s CPU    446.01s WALL (       1 calls)

     Called by init_run:
     wfcinit      :    152.37s CPU     80.46s WALL (       1 calls)
     potinit      :      3.56s CPU      4.05s WALL (       1 calls)
     hinit0       :      2.44s CPU      2.77s WALL (       1 calls)

     Called by electrons:
     c_bands      :   3383.10s CPU   1806.18s WALL (      15 calls)
     sum_band     :    461.04s CPU    260.03s WALL (      15 calls)
     v_of_rho     :     19.35s CPU     16.29s WALL (      15 calls)
     newd         :     26.91s CPU     26.81s WALL (      15 calls)
     PAW_pot      :      9.92s CPU      7.01s WALL (      15 calls)
     mix_rho      :      2.89s CPU      2.28s WALL (      15 calls)

     Called by c_bands:
     init_us_2    :     26.50s CPU     13.64s WALL (     288 calls)
     init_us_2:cp :     26.49s CPU     13.64s WALL (     288 calls)
     cegterg      :   3351.92s CPU   1787.34s WALL (     120 calls)

     Called by *egterg:
     cdiaghg      :    347.81s CPU    198.63s WALL (     659 calls)
     h_psi        :   2007.83s CPU   1044.14s WALL (     675 calls)
     s_psi        :    237.21s CPU    119.98s WALL (     699 calls)
     g_psi        :      7.43s CPU      3.78s WALL (     547 calls)

     Called by h_psi:
     h_psi:calbec :    250.05s CPU    130.21s WALL (     675 calls)
     vloc_psi     :   1503.39s CPU    776.13s WALL (     675 calls)
     add_vuspsi   :    217.26s CPU    109.85s WALL (     675 calls)
     vhpsi        :     31.22s CPU     17.35s WALL (     675 calls)

     General routines
     calbec       :    775.24s CPU    407.16s WALL (   29390 calls)
     fft          :     20.14s CPU     20.06s WALL (     415 calls)
     ffts         :      2.45s CPU      2.07s WALL (      60 calls)
     fftw         :   1320.20s CPU    684.63s WALL (  293154 calls)
     interpolate  :      2.79s CPU      2.36s WALL (      30 calls)

     Parallel routines

     Hubbard U routines
     new_ns       :      6.74s CPU      4.88s WALL (      15 calls)
     vhpsi        :     31.22s CPU     17.35s WALL (     675 calls)
     force_hub    :    108.71s CPU     56.08s WALL (       1 calls)
                                        0.00s GPU  (       1 calls)
     stres_hub    :    310.59s CPU    162.04s WALL (       1 calls)
                                        0.00s GPU  (       1 calls)

     PWSCF        :      1h24m CPU  46m21.53s WALL


   This run was terminated on:  11:49:54  11Sep2025            

=------------------------------------------------------------------------------=
   JOB DONE.
=------------------------------------------------------------------------------=
[1757587794.981382] [node047:3553056:0]          mpool.c:43   UCX  WARN  object 0x74e4380 was not returned to mpool ucp_requests
[1757587794.981402] [node047:3553056:0]          mpool.c:43   UCX  WARN  object 0x74caf00 was not returned to mpool ucp_requests
[1757587794.981404] [node047:3553056:0]          mpool.c:43   UCX  WARN  object 0x74cc5c0 was not returned to mpool ucp_requests
[1757587794.981406] [node047:3553056:0]          mpool.c:43   UCX  WARN  object 0x74d1100 was not returned to mpool ucp_requests
[1757587794.981407] [node047:3553056:0]          mpool.c:43   UCX  WARN  object 0x74d3240 was not returned to mpool ucp_requests
[1757587794.981408] [node047:3553056:0]          mpool.c:43   UCX  WARN  object 0x48e6840 was not returned to mpool ucp_requests
[1757587794.981409] [node047:3553056:0]          mpool.c:43   UCX  WARN  object 0x48ebe00 was not returned to mpool ucp_requests
[1757587794.981410] [node047:3553056:0]          mpool.c:43   UCX  WARN  object 0x48ecc00 was not returned to mpool ucp_requests
[1757587794.981412] [node047:3553056:0]          mpool.c:43   UCX  WARN  object 0x48ee100 was not returned to mpool ucp_requests
[1757587794.981413] [node047:3553056:0]          mpool.c:43   UCX  WARN  object 0x48f0b00 was not returned to mpool ucp_requests
[1757587794.981414] [node047:3553056:0]          mpool.c:43   UCX  WARN  object 0x48f36c0 was not returned to mpool ucp_requests
[1757587794.975368] [node047:3553052:0]          mpool.c:43   UCX  WARN  object 0x7cc6e00 was not returned to mpool ucp_requests
[1757587794.975388] [node047:3553052:0]          mpool.c:43   UCX  WARN  object 0x764d380 was not returned to mpool ucp_requests
[1757587794.975390] [node047:3553052:0]          mpool.c:43   UCX  WARN  object 0x7654700 was not returned to mpool ucp_requests
[1757587794.975392] [node047:3553052:0]          mpool.c:43   UCX  WARN  object 0x4a78280 was not returned to mpool ucp_requests
[1757587794.975393] [node047:3553052:0]          mpool.c:43   UCX  WARN  object 0x4a78d00 was not returned to mpool ucp_requests
[1757587794.975395] [node047:3553052:0]          mpool.c:43   UCX  WARN  object 0x4a79b00 was not returned to mpool ucp_requests
[1757587794.975396] [node047:3553052:0]          mpool.c:43   UCX  WARN  object 0x4a7ac80 was not returned to mpool ucp_requests
[1757587795.031298] [node047:3553040:0]          mpool.c:43   UCX  WARN  object 0x5bc8480 was not returned to mpool ucp_requests
[1757587795.031318] [node047:3553040:0]          mpool.c:43   UCX  WARN  object 0x5bc9280 was not returned to mpool ucp_requests
[1757587795.031320] [node047:3553040:0]          mpool.c:43   UCX  WARN  object 0x5bcb3c0 was not returned to mpool ucp_requests
[1757587795.031321] [node047:3553040:0]          mpool.c:43   UCX  WARN  object 0x5bcc8c0 was not returned to mpool ucp_requests
[1757587795.031323] [node047:3553040:0]          mpool.c:43   UCX  WARN  object 0x5bcca80 was not returned to mpool ucp_requests
[1757587795.031324] [node047:3553040:0]          mpool.c:43   UCX  WARN  object 0x5bced80 was not returned to mpool ucp_requests
[1757587795.031325] [node047:3553040:0]          mpool.c:43   UCX  WARN  object 0x5bcf9c0 was not returned to mpool ucp_requests
[1757587795.031327] [node047:3553040:0]          mpool.c:43   UCX  WARN  object 0x5bbc200 was not returned to mpool ucp_requests
[1757587795.031328] [node047:3553040:0]          mpool.c:43   UCX  WARN  object 0x5bbc580 was not returned to mpool ucp_requests
[1757587795.031329] [node047:3553040:0]          mpool.c:43   UCX  WARN  object 0x5bbce40 was not returned to mpool ucp_requests
[1757587795.031330] [node047:3553040:0]          mpool.c:43   UCX  WARN  object 0x5bbec00 was not returned to mpool ucp_requests
[1757587795.031331] [node047:3553040:0]          mpool.c:43   UCX  WARN  object 0x5bbfd80 was not returned to mpool ucp_requests
[1757587795.031332] [node047:3553040:0]          mpool.c:43   UCX  WARN  object 0x5bc1440 was not returned to mpool ucp_requests
[1757587795.031333] [node047:3553040:0]          mpool.c:43   UCX  WARN  object 0x2fd1940 was not returned to mpool ucp_requests
[1757587795.031335] [node047:3553040:0]          mpool.c:43   UCX  WARN  object 0x2fd6b80 was not returned to mpool ucp_requests
