
     Program PWSCF v.7.3 starts on 11Sep2025 at 11:36:21 

     This program is part of the open-source Quantum ESPRESSO suite
     for quantum simulation of materials; please cite
         "P. Giannozzi et al., J. Phys.:Condens. Matter 21 395502 (2009);
         "P. Giannozzi et al., J. Phys.:Condens. Matter 29 465901 (2017);
         "P. Giannozzi et al., J. Chem. Phys. 152 154105 (2020);
          URL http://www.quantum-espresso.org", 
     in publications or presentations arising from this work. More details at
     http://www.quantum-espresso.org/quote

     Parallel version (MPI & OpenMP), running on     256 processor cores
     Number of MPI processes:               128
     Threads/MPI process:                     2

     MPI processes distributed on     2 nodes
     435786 MiB available memory on the printing compute node when the environment starts

     Reading input from Cr_0_0.2.in
Warning: card &CELL ignored
Warning: card / ignored
Warning: card &FCP ignored
Warning: card / ignored
Warning: card &RISM ignored
Warning: card / ignored

     Current dimensions of program PWSCF are:
     Max number of different atomic species (ntypx) = 10
     Max number of k-points (npk) =  40000
     Max angular momentum in pseudopotentials (lmaxx) =  4
read_pp_mesh; mismatch in mesh size, discarding the one in header
read_pp_mesh; mismatch in mesh size, discarding the one in header
read_pp_mesh; mismatch in mesh size, discarding the one in header
     file Cr.GGA-PBE-paw.UPF: wavefunction(s)  3S 4S 3P 4P 3D 4D renormalized
     file I.GGA-PBE-paw.UPF: wavefunction(s)  6S 6P renormalized
     file Cr.GGA-PBE-paw.UPF: wavefunction(s)  3S 4S 3P 4P 3D 4D renormalized

     IMPORTANT: XC functional enforced from input :
     Exchange-correlation= PBE
                           (   1   4   3   4   0   0   0)
     Any further DFT definition will be discarded
     Please, verify this is what you really want


     R & G space division:  proc/nbgrp/npool/nimage =     128
     Subspace diagonalization in iterative solution of the eigenvalue problem:
     one sub-group per band group will be used
     ELPA distributed-memory algorithm (size of sub-group:  3*  3 procs)


     Parallelization info
     --------------------
     sticks:   dense  smooth     PW     G-vecs:    dense   smooth      PW
     Min         509     305     78               140391    65241    8388
     Max         510     306     79               140404    65254    8400
     Sum       65263   39121   9985             17971031  8351671 1074593

     Using Slab Decomposition



     bravais-lattice index     =            0
     lattice parameter (alat)  =      39.7293  a.u.
     unit-cell volume          =   72410.5124 (a.u.)^3
     number of atoms/cell      =           72
     number of atomic types    =            3
     number of electrons       =       630.00 (up: 342.00, down: 288.00)
     number of Kohn-Sham states=          342
     kinetic-energy cutoff     =      90.0000  Ry
     charge density cutoff     =     600.0000  Ry
     scf convergence threshold =      1.0E-10
     mixing beta               =       0.3000
     number of iterations used =            8  plain     mixing
     Exchange-correlation= PBE
                           (   1   4   3   4   0   0   0)
     Hubbard projectors: atomic
     Hubbard parameters of DFT+U (Dudarev formulation) in eV:
     U(Cr1-3d) =  0.0000
     J0(Cr1-3d) =  0.0000
     beta(Cr1-3d) =  0.2000

     Internal variables: lda_plus_u =T, lda_plus_u_kind = 0

     celldm(1)=  39.729285  celldm(2)=   0.000000  celldm(3)=   0.000000
     celldm(4)=   0.000000  celldm(5)=   0.000000  celldm(6)=   0.000000

     crystal axes: (cart. coord. in units of alat)
               a(1) = (   1.000000   0.000000   0.000000 )  
               a(2) = (  -0.500000   0.866025   0.000000 )  
               a(3) = (   0.000000   0.000000   1.333333 )  

     reciprocal axes: (cart. coord. in units 2 pi/alat)
               b(1) = (  1.000000  0.577350 -0.000000 )  
               b(2) = (  0.000000  1.154701  0.000000 )  
               b(3) = (  0.000000 -0.000000  0.750000 )  


     PseudoPot. # 1 for Cr read from file:
     ./Cr.GGA-PBE-paw.UPF
     MD5 check sum: 389087661106aa6caf57455f2e439c97
     Pseudo is Projector augmented-wave + core cor, Zval = 14.0
     Generated using ATOMPAW code
     Shape of augmentation charge: SINC**2
     Using radial grid of 2342 points,  6 beta functions with: 
                l(1) =   0
                l(2) =   0
                l(3) =   1
                l(4) =   1
                l(5) =   2
                l(6) =   2
     Q(r) pseudized with 0 coefficients 


     PseudoPot. # 2 for I  read from file:
     ./I.GGA-PBE-paw.UPF
     MD5 check sum: 736bb4145856fa7ed29d0984862794a4
     Pseudo is Projector augmented-wave + core cor, Zval =  7.0
     Generated using ATOMPAW code
     Shape of augmentation charge: SINC**2
     Using radial grid of 2342 points,  4 beta functions with: 
                l(1) =   0
                l(2) =   0
                l(3) =   1
                l(4) =   1
     Q(r) pseudized with 0 coefficients 


     PseudoPot. # 3 for Cr read from file:
     ./Cr.GGA-PBE-paw.UPF
     MD5 check sum: 389087661106aa6caf57455f2e439c97
     Pseudo is Projector augmented-wave + core cor, Zval = 14.0
     Generated using ATOMPAW code
     Shape of augmentation charge: SINC**2
     Using radial grid of 2342 points,  6 beta functions with: 
                l(1) =   0
                l(2) =   0
                l(3) =   1
                l(4) =   1
                l(5) =   2
                l(6) =   2
     Q(r) pseudized with 0 coefficients 


     atomic species   valence    mass     pseudopotential
     Cr1              14.00    51.99610     Cr( 1.00)
     I                 7.00   126.90447     I ( 1.00)
     Cr               14.00    51.99610     Cr( 1.00)

     Starting magnetic structure 
     atomic species   magnetization
     Cr1             0.214
     I               0.000
     Cr              0.214

     No symmetry found



   Cartesian axes

     site n.     atom                  positions (alat units)
         1        Cr1    tau(   1) = (   0.3271041   0.3777073   0.4295967  )
         2        Cr     tau(   2) = (   0.1635521   0.0944268   0.4295967  )
         3        Cr     tau(   3) = (   0.0000000   0.1888536   0.4295967  )
         4        I      tau(   4) = (   0.2103614  -0.0000006   0.3558127  )
         5        I      tau(   5) = (   0.0583708   0.1011024   0.3558127  )
         6        I      tau(   6) = (  -0.1051802   0.1821787   0.3558127  )
         7        I      tau(   7) = (   0.1167427  -0.0000005   0.5033806  )
         8        I      tau(   8) = (   0.1051802   0.1821786   0.5033806  )
         9        I      tau(   9) = (  -0.0583709   0.1011024   0.5033806  )
        10        Cr     tau(  10) = (  -0.0000000   0.3777073   0.4295967  )
        11        Cr     tau(  11) = (  -0.1635521   0.4721341   0.4295967  )
        12        I      tau(  12) = (   0.0468094   0.2832798   0.3558127  )
        13        I      tau(  13) = (  -0.1051813   0.3843829   0.3558127  )
        14        I      tau(  14) = (  -0.2687322   0.4654591   0.3558127  )
        15        I      tau(  15) = (  -0.0468094   0.2832799   0.5033806  )
        16        I      tau(  16) = (  -0.0583718   0.4654591   0.5033806  )
        17        I      tau(  17) = (  -0.2219229   0.3843829   0.5033806  )
        18        Cr     tau(  18) = (  -0.1635521   0.6609878   0.4295967  )
        19        Cr     tau(  19) = (  -0.3271041   0.7554146   0.4295967  )
        20        I      tau(  20) = (  -0.1167427   0.5665603   0.3558127  )
        21        I      tau(  21) = (  -0.2687333   0.6676634   0.3558127  )
        22        I      tau(  22) = (  -0.4322843   0.7487396   0.3558127  )
        23        I      tau(  23) = (  -0.2103614   0.5665604   0.5033806  )
        24        I      tau(  24) = (  -0.2219239   0.7487396   0.5033806  )
        25        I      tau(  25) = (  -0.3854750   0.6676633   0.5033806  )
        26        Cr     tau(  26) = (   0.4906562   0.0944268   0.4295967  )
        27        Cr     tau(  27) = (   0.3271041   0.1888536   0.4295967  )
        28        I      tau(  28) = (   0.5374655  -0.0000006   0.3558127  )
        29        I      tau(  29) = (   0.3854749   0.1011024   0.3558127  )
        30        I      tau(  30) = (   0.2219239   0.1821787   0.3558127  )
        31        I      tau(  31) = (   0.4438468  -0.0000005   0.5033806  )
        32        I      tau(  32) = (   0.4322844   0.1821786   0.5033806  )
        33        I      tau(  33) = (   0.2687332   0.1011024   0.5033806  )
        34        Cr     tau(  34) = (   0.1635521   0.4721341   0.4295967  )
        35        I      tau(  35) = (   0.3739135   0.2832798   0.3558127  )
        36        I      tau(  36) = (   0.2219229   0.3843829   0.3558127  )
        37        I      tau(  37) = (   0.0583719   0.4654591   0.3558127  )
        38        I      tau(  38) = (   0.2802947   0.2832799   0.5033806  )
        39        I      tau(  39) = (   0.2687323   0.4654591   0.5033806  )
        40        I      tau(  40) = (   0.1051812   0.3843829   0.5033806  )
        41        Cr     tau(  41) = (   0.1635521   0.6609878   0.4295967  )
        42        Cr     tau(  42) = (   0.0000000   0.7554146   0.4295967  )
        43        I      tau(  43) = (   0.2103614   0.5665603   0.3558127  )
        44        I      tau(  44) = (   0.0583708   0.6676634   0.3558127  )
        45        I      tau(  45) = (  -0.1051802   0.7487396   0.3558127  )
        46        I      tau(  46) = (   0.1167427   0.5665604   0.5033806  )
        47        I      tau(  47) = (   0.1051802   0.7487396   0.5033806  )
        48        I      tau(  48) = (  -0.0583709   0.6676633   0.5033806  )
        49        Cr     tau(  49) = (   0.8177603   0.0944268   0.4295967  )
        50        Cr     tau(  50) = (   0.6542082   0.1888536   0.4295967  )
        51        I      tau(  51) = (   0.8645697  -0.0000006   0.3558127  )
        52        I      tau(  52) = (   0.7125790   0.1011024   0.3558127  )
        53        I      tau(  53) = (   0.5490281   0.1821787   0.3558127  )
        54        I      tau(  54) = (   0.7709509  -0.0000005   0.5033806  )
        55        I      tau(  55) = (   0.7593885   0.1821786   0.5033806  )
        56        I      tau(  56) = (   0.5958374   0.1011024   0.5033806  )
        57        Cr     tau(  57) = (   0.6542082   0.3777073   0.4295967  )
        58        Cr     tau(  58) = (   0.4906562   0.4721341   0.4295967  )
        59        I      tau(  59) = (   0.7010176   0.2832798   0.3558127  )
        60        I      tau(  60) = (   0.5490270   0.3843829   0.3558127  )
        61        I      tau(  61) = (   0.3854760   0.4654591   0.3558127  )
        62        I      tau(  62) = (   0.6073989   0.2832799   0.5033806  )
        63        I      tau(  63) = (   0.5958364   0.4654591   0.5033806  )
        64        I      tau(  64) = (   0.4322853   0.3843829   0.5033806  )
        65        Cr     tau(  65) = (   0.4906562   0.6609878   0.4295967  )
        66        Cr     tau(  66) = (   0.3271041   0.7554146   0.4295967  )
        67        I      tau(  67) = (   0.5374655   0.5665603   0.3558127  )
        68        I      tau(  68) = (   0.3854749   0.6676634   0.3558127  )
        69        I      tau(  69) = (   0.2219239   0.7487396   0.3558127  )
        70        I      tau(  70) = (   0.4438468   0.5665604   0.5033806  )
        71        I      tau(  71) = (   0.4322844   0.7487396   0.5033806  )
        72        I      tau(  72) = (   0.2687332   0.6676633   0.5033806  )

     number of k points=     4
                       cart. coord. in units 2pi/alat
        k(    1) = (   0.0000000   0.0000000   0.0000000), wk =   0.2500000
        k(    2) = (   0.0000000  -0.5773503   0.0000000), wk =   0.2500000
        k(    3) = (   0.5000000  -0.2886751   0.0000000), wk =   0.2500000
        k(    4) = (  -0.5000000  -0.2886751   0.0000000), wk =   0.2500000

     Dense  grid: 17971031 G-vectors     FFT dimensions: ( 320, 320, 432)

     Smooth grid:  8351671 G-vectors     FFT dimensions: ( 240, 240, 320)

     Estimated max dynamical RAM per process >       1.67 GB

     Estimated total dynamical RAM >     213.14 GB
     Generating pointlists ...
     new r_m :   0.0531 (alat units)  2.1084 (a.u.) for type    1
     new r_m :   0.0531 (alat units)  2.1084 (a.u.) for type    2
     new r_m :   0.0531 (alat units)  2.1084 (a.u.) for type    3

     The initial density is read from file :
     ./Cr_0_0.2/Cr_0_0.save/charge-density


     negative rho (up, down):  1.304E-01 1.474E-01

     STARTING HUBBARD OCCUPATIONS:

     =================== HUBBARD OCCUPATIONS ===================
     ------------------------ ATOM    1 ------------------------
     Tr[ns(  1)] (up, down, total) =   4.25332  1.37309  5.62641
     Atomic magnetic moment for atom   1 =   2.88023
     SPIN  1
     eigenvalues:
       0.638  0.640  0.991  0.992  0.992
     eigenvectors (columns):
      -0.000  0.000 -0.955  0.236 -0.180
      -0.801  0.198  0.165  0.485 -0.238
      -0.198 -0.802 -0.031  0.257  0.501
       0.549 -0.135  0.240  0.709 -0.348
      -0.135 -0.547  0.046 -0.375 -0.734
     occupation matrix ns (before diag.):
       0.991  0.000 -0.000  0.000  0.000
       0.000  0.751 -0.000  0.165 -0.000
      -0.000 -0.000  0.752  0.000 -0.164
       0.000  0.165  0.000  0.879  0.000
       0.000 -0.000 -0.164  0.000  0.880
     SPIN  2
     eigenvalues:
       0.158  0.167  0.169  0.439  0.440
     eigenvectors (columns):
      -0.999  0.031 -0.025  0.000 -0.000
      -0.020 -0.549  0.128  0.794 -0.226
       0.010 -0.129 -0.547  0.226  0.795
      -0.030 -0.804  0.188 -0.543  0.154
      -0.014  0.188  0.805  0.154  0.541
     occupation matrix ns (before diag.):
       0.158 -0.000  0.000 -0.000 -0.000
      -0.000  0.353 -0.000 -0.127 -0.000
       0.000 -0.000  0.354 -0.000  0.126
      -0.000 -0.127 -0.000  0.254  0.000
      -0.000 -0.000  0.126  0.000  0.255

     Number of occupied Hubbard levels =    5.6264

     Atomic wfc used for Hubbard projectors are NOT orthogonalized

     Starting wfcs are  756 atomic wfcs
     Checking if some PAW data can be deallocated... 

     total cpu time spent up to now is      101.2 secs

     Self-consistent Calculation

     iteration #  1     ecut=    90.00 Ry     beta= 0.30
     Davidson diagonalization with overlap
     ethr =  1.00E-05,  avg # of iterations =  8.6

     =================== HUBBARD OCCUPATIONS ===================
     ------------------------ ATOM    1 ------------------------
     Tr[ns(  1)] (up, down, total) =   4.20860  1.44689  5.65549
     Atomic magnetic moment for atom   1 =   2.76171
     SPIN  1
     eigenvalues:
       0.617  0.619  0.991  0.991  0.991
     eigenvectors (columns):
      -0.000  0.000 -0.934  0.285 -0.217
      -0.800  0.202  0.200  0.467 -0.247
      -0.202 -0.801 -0.031  0.274  0.492
       0.548 -0.138  0.292  0.682 -0.361
      -0.138 -0.547  0.045 -0.401 -0.721
     occupation matrix ns (before diag.):
       0.991  0.000 -0.000  0.000  0.000
       0.000  0.736 -0.000  0.174 -0.000
      -0.000 -0.000  0.737  0.000 -0.174
       0.000  0.174  0.000  0.872  0.000
       0.000 -0.000 -0.174  0.000  0.873
     SPIN  2
     eigenvalues:
       0.170  0.180  0.182  0.457  0.458
     eigenvectors (columns):
      -0.999  0.034 -0.028  0.001 -0.000
      -0.022 -0.547  0.130  0.795 -0.225
       0.011 -0.131 -0.546  0.225  0.796
      -0.033 -0.803  0.192 -0.542  0.153
      -0.016  0.192  0.805  0.153  0.540
     occupation matrix ns (before diag.):
       0.170 -0.000  0.000 -0.000 -0.000
      -0.000  0.369 -0.000 -0.129 -0.000
       0.000 -0.000  0.371 -0.000  0.128
      -0.000 -0.129 -0.000  0.268  0.000
      -0.000 -0.000  0.128  0.000  0.269

     Number of occupied Hubbard levels =    5.6555

     Threshold (ethr) on eigenvalues was too large:
     Diagonalizing with lowered threshold

     Davidson diagonalization with overlap
     ethr =  3.00E-08,  avg # of iterations =  4.0

     negative rho (up, down):  1.305E-01 1.474E-01

     total cpu time spent up to now is      614.4 secs

     total energy              =  -24931.13725577 Ry
     estimated scf accuracy    <       0.00018809 Ry

     total magnetization       =    54.00 Bohr mag/cell
     absolute magnetization    =    65.25 Bohr mag/cell

     iteration #  2     ecut=    90.00 Ry     beta= 0.30
     Davidson diagonalization with overlap
     ethr =  2.99E-08,  avg # of iterations =  3.1

     negative rho (up, down):  1.305E-01 1.474E-01

     total cpu time spent up to now is      714.6 secs

     total energy              =  -24931.13731122 Ry
     estimated scf accuracy    <       0.00015327 Ry

     total magnetization       =    54.00 Bohr mag/cell
     absolute magnetization    =    65.23 Bohr mag/cell

     iteration #  3     ecut=    90.00 Ry     beta= 0.30
     Davidson diagonalization with overlap
     ethr =  2.43E-08,  avg # of iterations =  3.5

     negative rho (up, down):  1.306E-01 1.473E-01

     total cpu time spent up to now is      810.7 secs

     total energy              =  -24931.13743885 Ry
     estimated scf accuracy    <       0.00009353 Ry

     total magnetization       =    54.00 Bohr mag/cell
     absolute magnetization    =    65.23 Bohr mag/cell

     iteration #  4     ecut=    90.00 Ry     beta= 0.30
     Davidson diagonalization with overlap
     ethr =  1.48E-08,  avg # of iterations =  5.8

     negative rho (up, down):  1.306E-01 1.472E-01

     total cpu time spent up to now is      947.0 secs

     total energy              =  -24931.13750110 Ry
     estimated scf accuracy    <       0.00001256 Ry

     total magnetization       =    54.00 Bohr mag/cell
     absolute magnetization    =    65.18 Bohr mag/cell

     iteration #  5     ecut=    90.00 Ry     beta= 0.30
     Davidson diagonalization with overlap
     ethr =  1.99E-09,  avg # of iterations =  5.1

     negative rho (up, down):  1.307E-01 1.472E-01

     total cpu time spent up to now is     1072.1 secs

     total energy              =  -24931.13750868 Ry
     estimated scf accuracy    <       0.00000981 Ry

     total magnetization       =    54.00 Bohr mag/cell
     absolute magnetization    =    65.17 Bohr mag/cell

     iteration #  6     ecut=    90.00 Ry     beta= 0.30
     Davidson diagonalization with overlap
     ethr =  1.56E-09,  avg # of iterations =  5.5

     negative rho (up, down):  1.307E-01 1.472E-01

     total cpu time spent up to now is     1199.8 secs

     total energy              =  -24931.13751224 Ry
     estimated scf accuracy    <       0.00000184 Ry

     total magnetization       =    54.00 Bohr mag/cell
     absolute magnetization    =    65.16 Bohr mag/cell

     iteration #  7     ecut=    90.00 Ry     beta= 0.30
     Davidson diagonalization with overlap
     ethr =  2.93E-10,  avg # of iterations =  4.5

     negative rho (up, down):  1.307E-01 1.472E-01

     total cpu time spent up to now is     1310.9 secs

     total energy              =  -24931.13751282 Ry
     estimated scf accuracy    <       0.00000049 Ry

     total magnetization       =    54.00 Bohr mag/cell
     absolute magnetization    =    65.16 Bohr mag/cell

     iteration #  8     ecut=    90.00 Ry     beta= 0.30
     Davidson diagonalization with overlap
     ethr =  7.79E-11,  avg # of iterations =  3.4

     negative rho (up, down):  1.307E-01 1.472E-01

     total cpu time spent up to now is     1420.8 secs

     total energy              =  -24931.13751300 Ry
     estimated scf accuracy    <       0.00000021 Ry

     total magnetization       =    54.00 Bohr mag/cell
     absolute magnetization    =    65.16 Bohr mag/cell

     iteration #  9     ecut=    90.00 Ry     beta= 0.30
     Davidson diagonalization with overlap
     ethr =  3.32E-11,  avg # of iterations =  4.5

     negative rho (up, down):  1.307E-01 1.472E-01

     total cpu time spent up to now is     1542.1 secs

     total energy              =  -24931.13751308 Ry
     estimated scf accuracy    <       0.00000004 Ry

     total magnetization       =    54.00 Bohr mag/cell
     absolute magnetization    =    65.16 Bohr mag/cell

     iteration # 10     ecut=    90.00 Ry     beta= 0.30
     Davidson diagonalization with overlap
     ethr =  6.67E-12,  avg # of iterations =  3.2

     negative rho (up, down):  1.307E-01 1.472E-01

     total cpu time spent up to now is     1657.5 secs

     total energy              =  -24931.13751310 Ry
     estimated scf accuracy    <       0.00000002 Ry

     total magnetization       =    54.00 Bohr mag/cell
     absolute magnetization    =    65.16 Bohr mag/cell

     iteration # 11     ecut=    90.00 Ry     beta= 0.30
     Davidson diagonalization with overlap
     ethr =  3.42E-12,  avg # of iterations =  4.5

     negative rho (up, down):  1.307E-01 1.472E-01

     total cpu time spent up to now is     1776.9 secs

     total energy              =  -24931.13751311 Ry
     estimated scf accuracy    <          3.0E-09 Ry

     total magnetization       =    54.00 Bohr mag/cell
     absolute magnetization    =    65.16 Bohr mag/cell

     iteration # 12     ecut=    90.00 Ry     beta= 0.30
     Davidson diagonalization with overlap
     ethr =  4.69E-13,  avg # of iterations =  4.4

     negative rho (up, down):  1.307E-01 1.472E-01

     total cpu time spent up to now is     1925.5 secs

     total energy              =  -24931.13751311 Ry
     estimated scf accuracy    <          1.5E-09 Ry

     total magnetization       =    54.00 Bohr mag/cell
     absolute magnetization    =    65.16 Bohr mag/cell

     iteration # 13     ecut=    90.00 Ry     beta= 0.30
     Davidson diagonalization with overlap
     ethr =  2.42E-13,  avg # of iterations =  3.0

     negative rho (up, down):  1.307E-01 1.472E-01

     total cpu time spent up to now is     2039.6 secs

     total energy              =  -24931.13751311 Ry
     estimated scf accuracy    <          4.7E-10 Ry

     total magnetization       =    54.00 Bohr mag/cell
     absolute magnetization    =    65.16 Bohr mag/cell

     iteration # 14     ecut=    90.00 Ry     beta= 0.30
     Davidson diagonalization with overlap
     ethr =  1.00E-13,  avg # of iterations =  3.6

     negative rho (up, down):  1.307E-01 1.472E-01

     total cpu time spent up to now is     2158.4 secs

     total energy              =  -24931.13751312 Ry
     estimated scf accuracy    <          1.5E-10 Ry

     total magnetization       =    54.00 Bohr mag/cell
     absolute magnetization    =    65.16 Bohr mag/cell

     iteration # 15     ecut=    90.00 Ry     beta= 0.30
     Davidson diagonalization with overlap
     ethr =  1.00E-13,  avg # of iterations =  2.5

     negative rho (up, down):  1.307E-01 1.472E-01

     Magnetic moment per site  (integrated on atomic sphere of radius R)
     atom   1 (R=0.053)  charge= 12.4121  magn=  2.7822
     atom   2 (R=0.053)  charge= 12.4086  magn=  2.9138
     atom   3 (R=0.053)  charge= 12.4086  magn=  2.9136
     atom   4 (R=0.053)  charge=  4.0328  magn= -0.0666
     atom   5 (R=0.053)  charge=  4.0497  magn= -0.0521
     atom   6 (R=0.053)  charge=  4.0328  magn= -0.0666
     atom   7 (R=0.053)  charge=  4.0248  magn= -0.0723
     atom   8 (R=0.053)  charge=  4.0502  magn= -0.0556
     atom   9 (R=0.053)  charge=  4.0248  magn= -0.0723
     atom  10 (R=0.053)  charge= 12.4124  magn=  2.9205
     atom  11 (R=0.053)  charge= 12.4091  magn=  2.9162
     atom  12 (R=0.053)  charge=  4.0513  magn= -0.0514
     atom  13 (R=0.053)  charge=  4.0498  magn= -0.0517
     atom  14 (R=0.053)  charge=  4.0336  magn= -0.0637
     atom  15 (R=0.053)  charge=  4.0500  magn= -0.0523
     atom  16 (R=0.053)  charge=  4.0513  magn= -0.0522
     atom  17 (R=0.053)  charge=  4.0253  magn= -0.0709
     atom  18 (R=0.053)  charge= 12.4122  magn=  2.9227
     atom  19 (R=0.053)  charge= 12.3252  magn=  3.0168
     atom  20 (R=0.053)  charge=  4.0507  magn= -0.0525
     atom  21 (R=0.053)  charge=  4.0444  magn= -0.0604
     atom  22 (R=0.053)  charge=  4.0302  magn= -0.0695
     atom  23 (R=0.053)  charge=  4.0499  magn= -0.0520
     atom  24 (R=0.053)  charge=  4.0486  magn= -0.0515
     atom  25 (R=0.053)  charge=  4.0214  magn= -0.0768
     atom  26 (R=0.053)  charge= 12.4090  magn=  2.9164
     atom  27 (R=0.053)  charge= 12.4126  magn=  2.9206
     atom  28 (R=0.053)  charge=  4.0336  magn= -0.0637
     atom  29 (R=0.053)  charge=  4.0498  magn= -0.0507
     atom  30 (R=0.053)  charge=  4.0513  magn= -0.0513
     atom  31 (R=0.053)  charge=  4.0253  magn= -0.0709
     atom  32 (R=0.053)  charge=  4.0513  magn= -0.0520
     atom  33 (R=0.053)  charge=  4.0500  magn= -0.0513
     atom  34 (R=0.053)  charge= 12.4129  magn=  2.9236
     atom  35 (R=0.053)  charge=  4.0514  magn= -0.0347
     atom  36 (R=0.053)  charge=  4.0494  magn= -0.0365
     atom  37 (R=0.053)  charge=  4.0521  magn= -0.0485
     atom  38 (R=0.053)  charge=  4.0500  magn= -0.0357
     atom  39 (R=0.053)  charge=  4.0518  magn= -0.0345
     atom  40 (R=0.053)  charge=  4.0506  magn= -0.0504
     atom  41 (R=0.053)  charge= 12.4125  magn=  2.9260
     atom  42 (R=0.053)  charge= 12.3292  magn=  3.0259
     atom  43 (R=0.053)  charge=  4.0514  magn= -0.0502
     atom  44 (R=0.053)  charge=  4.0448  magn= -0.0597
     atom  45 (R=0.053)  charge=  4.0486  magn= -0.0544
     atom  46 (R=0.053)  charge=  4.0508  magn= -0.0495
     atom  47 (R=0.053)  charge=  4.0495  magn= -0.0482
     atom  48 (R=0.053)  charge=  4.0467  magn= -0.0568
     atom  49 (R=0.053)  charge= 12.3252  magn=  3.0169
     atom  50 (R=0.053)  charge= 12.4122  magn=  2.9228
     atom  51 (R=0.053)  charge=  4.0302  magn= -0.0695
     atom  52 (R=0.053)  charge=  4.0444  magn= -0.0604
     atom  53 (R=0.053)  charge=  4.0508  magn= -0.0523
     atom  54 (R=0.053)  charge=  4.0214  magn= -0.0769
     atom  55 (R=0.053)  charge=  4.0486  magn= -0.0515
     atom  56 (R=0.053)  charge=  4.0499  magn= -0.0520
     atom  57 (R=0.053)  charge= 12.3292  magn=  3.0262
     atom  58 (R=0.053)  charge= 12.4126  magn=  2.9261
     atom  59 (R=0.053)  charge=  4.0486  magn= -0.0544
     atom  60 (R=0.053)  charge=  4.0448  magn= -0.0595
     atom  61 (R=0.053)  charge=  4.0508  magn= -0.0368
     atom  62 (R=0.053)  charge=  4.0467  magn= -0.0567
     atom  63 (R=0.053)  charge=  4.0496  magn= -0.0473
     atom  64 (R=0.053)  charge=  4.0501  magn= -0.0364
     atom  65 (R=0.053)  charge= 12.3290  magn=  3.0301
     atom  66 (R=0.053)  charge= 12.3290  magn=  3.0299
     atom  67 (R=0.053)  charge=  4.0480  magn= -0.0547
     atom  68 (R=0.053)  charge=  4.0397  magn= -0.0674
     atom  69 (R=0.053)  charge=  4.0480  magn= -0.0555
     atom  70 (R=0.053)  charge=  4.0471  magn= -0.0557
     atom  71 (R=0.053)  charge=  4.0465  magn= -0.0471
     atom  72 (R=0.053)  charge=  4.0471  magn= -0.0558

     total cpu time spent up to now is     2247.6 secs

     End of self-consistent calculation

     =================== HUBBARD OCCUPATIONS ===================
     ------------------------ ATOM    1 ------------------------
     Tr[ns(  1)] (up, down, total) =   4.18493  1.47355  5.65848
     Atomic magnetic moment for atom   1 =   2.71138
     SPIN  1
     eigenvalues:
       0.605  0.607  0.990  0.991  0.991
     eigenvectors (columns):
      -0.000  0.000 -0.924  0.304 -0.231
      -0.800  0.203  0.214  0.459 -0.250
      -0.203 -0.801 -0.030  0.280  0.488
       0.548 -0.138  0.312  0.671 -0.365
      -0.139 -0.546  0.044 -0.410 -0.716
     occupation matrix ns (before diag.):
       0.990  0.000 -0.000  0.000  0.000
       0.000  0.729 -0.000  0.180 -0.000
      -0.000 -0.000  0.729  0.000 -0.179
       0.000  0.180  0.000  0.868  0.000
       0.000 -0.000 -0.179  0.000  0.869
     SPIN  2
     eigenvalues:
       0.172  0.182  0.184  0.467  0.468
     eigenvectors (columns):
      -0.999  0.035 -0.029  0.001 -0.000
      -0.023 -0.547  0.131  0.796 -0.222
       0.011 -0.132 -0.545  0.222  0.797
      -0.034 -0.803  0.193 -0.542  0.150
      -0.017  0.193  0.805  0.151  0.540
     occupation matrix ns (before diag.):
       0.172 -0.000  0.000 -0.000 -0.000
      -0.000  0.377 -0.000 -0.132 -0.000
       0.000 -0.000  0.379 -0.000  0.132
      -0.000 -0.132 -0.000  0.273  0.000
      -0.000 -0.000  0.132  0.000  0.273

     Number of occupied Hubbard levels =    5.6585

 ------ SPIN UP ------------


          k = 0.0000 0.0000 0.0000 (****** PWs)   bands (ev):

   -76.1369 -76.1368 -76.0608 -76.0606 -76.0125 -76.0108 -75.9806 -75.9806
   -75.9309 -75.9299 -75.9299 -75.8759 -75.8507 -75.8506 -75.8503 -75.8487
   -75.7724 -75.7723 -47.4874 -47.4864 -47.4630 -47.4619 -47.4577 -47.4573
   -47.4084 -47.4083 -47.3880 -47.3877 -47.3822 -47.3819 -47.3519 -47.3504
   -47.3455 -47.3440 -47.3392 -47.3378 -47.3272 -47.3272 -47.3058 -47.3058
   -47.3013 -47.3013 -47.2695 -47.2695 -47.2693 -47.2631 -47.2630 -47.2630
   -47.2604 -47.2559 -47.2558 -47.2126 -47.2066 -47.2038 -47.1888 -47.1888
   -47.1884 -47.1869 -47.1834 -47.1833 -47.1815 -47.1804 -47.1794 -47.1783
   -47.1762 -47.1762 -47.1101 -47.1098 -47.1063 -47.1043 -47.0973 -47.0971
   -16.2055 -16.0682 -16.0166 -15.9918 -15.9549 -15.8954 -15.8622 -15.7105
   -15.6641 -15.6339 -15.6076 -15.4955 -15.4792 -15.4556 -15.4263 -15.4087
   -15.3804 -15.3557 -15.3476 -15.3335 -15.3332 -15.3120 -15.2941 -15.2761
   -15.2693 -15.2486 -15.2383 -15.2360 -15.2035 -15.1881 -15.1752 -15.1721
   -15.1658 -15.1539 -15.1264 -15.1214 -15.1110 -15.1013 -15.0967 -15.0827
   -15.0763 -15.0603 -15.0311 -15.0217 -15.0067 -14.9954 -14.9860 -14.9100
   -14.8806 -14.8793 -14.8183 -14.8158 -14.7420 -14.7135  -7.9455  -7.8717
    -7.8356  -7.7901  -7.7777  -7.7418  -7.6943  -7.4053  -7.3769  -7.3750
    -7.3646  -7.3267  -7.2895  -7.2638  -7.2329  -7.2181  -7.1426  -7.1353
    -6.9810  -6.9470  -6.9384  -6.8944  -6.8779  -6.8565  -6.8453  -6.8286
    -6.8092  -6.8057  -6.7716  -6.7483  -6.7277  -6.7182  -6.7004  -6.6839
    -6.6805  -6.6687  -6.6467  -6.6378  -6.6259  -6.6017  -6.5873  -6.5859
    -6.5613  -6.5384  -6.5045  -6.4936  -6.4720  -6.4592  -6.4178  -6.4040
    -6.3955  -6.3727  -6.3414  -6.3374  -6.3334  -6.2908  -6.2823  -6.2599
    -6.2531  -6.2296  -6.1915  -6.1580  -6.1514  -6.1205  -6.1177  -6.0723
    -6.0481  -6.0263  -6.0166  -5.9865  -5.9799  -5.9738  -5.9560  -5.9333
    -5.9247  -5.9062  -5.8874  -5.8851  -5.8501  -5.8408  -5.8042  -5.7732
    -5.6757  -5.6490  -5.6268  -5.6095  -5.5627  -5.5145  -5.4937  -5.4675
    -5.4515  -5.4253  -5.3811  -5.3584  -5.3467  -5.3148  -5.2837  -5.2627
    -5.2385  -5.2174  -5.2089  -5.1959  -5.1764  -5.1674  -5.1518  -5.1373
    -5.1227  -5.1186  -5.0596  -5.0420  -5.0227  -5.0178  -5.0167  -5.0045
    -4.9846  -4.9767  -4.9474  -4.9417  -4.9253  -4.9077  -4.8726  -4.8666
    -4.8510  -4.8377  -4.8178  -4.7854  -4.7728  -4.7669  -4.7350  -4.7051
    -4.7036  -4.6929  -4.6827  -4.6737  -4.6723  -4.6265  -4.6069  -4.5515
    -4.5354  -4.5130  -4.4780  -4.4463  -4.4334  -4.4264  -4.3961  -4.3901
    -4.3710  -4.3675  -4.3552  -4.3476  -4.3387  -4.3178  -4.3108  -4.2878
    -4.2775  -4.2319  -4.2166  -4.2109  -4.1843  -4.1700  -4.1528  -4.1198
    -4.0999  -4.0835  -4.0663  -4.0486  -4.0126  -4.0052  -3.9990  -3.9841
    -3.9521  -3.9468  -3.9300  -3.9257  -3.9183  -3.9069  -3.8930  -3.8860
    -3.8805  -3.8739  -3.8664  -3.8467  -3.8379  -3.8288  -3.8247  -3.8226
    -3.8133  -3.8054  -3.7840  -3.7778  -3.7652  -3.7526  -3.7475  -3.7259
    -3.7102  -3.6935  -3.6873  -3.6764  -3.6342  -3.6164  -3.6127  -3.5958
    -3.5938  -3.5696  -3.5007  -3.4920  -3.4871  -3.4661  -3.4388  -3.4270
    -3.4165  -3.3893  -3.3510  -3.3473  -3.3390  -3.3159

          k = 0.0000-0.5774 0.0000 (****** PWs)   bands (ev):

   -76.1369 -76.1368 -76.0608 -76.0606 -76.0125 -76.0108 -75.9806 -75.9806
   -75.9309 -75.9299 -75.9299 -75.8759 -75.8507 -75.8506 -75.8503 -75.8487
   -75.7724 -75.7723 -47.4874 -47.4864 -47.4630 -47.4619 -47.4577 -47.4573
   -47.4084 -47.4083 -47.3880 -47.3877 -47.3822 -47.3819 -47.3519 -47.3504
   -47.3455 -47.3440 -47.3392 -47.3378 -47.3272 -47.3272 -47.3058 -47.3058
   -47.3013 -47.3013 -47.2695 -47.2695 -47.2693 -47.2631 -47.2630 -47.2630
   -47.2604 -47.2559 -47.2558 -47.2126 -47.2066 -47.2038 -47.1888 -47.1888
   -47.1884 -47.1869 -47.1834 -47.1833 -47.1815 -47.1804 -47.1794 -47.1783
   -47.1762 -47.1762 -47.1101 -47.1098 -47.1063 -47.1043 -47.0973 -47.0971
   -16.1944 -16.0990 -16.0247 -15.9982 -15.9278 -15.8645 -15.8455 -15.7599
   -15.6900 -15.5934 -15.5688 -15.5205 -15.5169 -15.4644 -15.4521 -15.3953
   -15.3759 -15.3604 -15.3518 -15.3248 -15.3127 -15.3102 -15.2933 -15.2746
   -15.2535 -15.2415 -15.2301 -15.2173 -15.2065 -15.1954 -15.1813 -15.1724
   -15.1609 -15.1468 -15.1427 -15.1259 -15.1210 -15.1026 -15.0975 -15.0823
   -15.0749 -15.0601 -15.0341 -15.0281 -15.0029 -14.9956 -14.9872 -14.9087
   -14.8799 -14.8789 -14.8170 -14.8166 -14.7420 -14.7134  -7.9301  -7.8797
    -7.8155  -7.7812  -7.7645  -7.7021  -7.6415  -7.5958  -7.5255  -7.3691
    -7.3379  -7.2805  -7.2726  -7.2603  -7.2124  -7.1988  -7.1362  -7.1295
    -6.9733  -6.9477  -6.9339  -6.8921  -6.8729  -6.8620  -6.8339  -6.8313
    -6.8152  -6.7983  -6.7827  -6.7581  -6.7308  -6.7269  -6.7226  -6.7032
    -6.6943  -6.6741  -6.6504  -6.6429  -6.6269  -6.5964  -6.5616  -6.5461
    -6.5250  -6.5113  -6.4880  -6.4774  -6.4497  -6.4377  -6.4208  -6.4114
    -6.3948  -6.3886  -6.3750  -6.3304  -6.3191  -6.2901  -6.2767  -6.2639
    -6.2467  -6.2227  -6.1886  -6.1810  -6.1564  -6.0999  -6.0780  -6.0686
    -6.0504  -6.0367  -6.0174  -5.9937  -5.9724  -5.9645  -5.9557  -5.9181
    -5.9072  -5.8920  -5.8585  -5.8390  -5.8216  -5.7954  -5.7733  -5.7143
    -5.6476  -5.6135  -5.5908  -5.5875  -5.5598  -5.5476  -5.5270  -5.5224
    -5.5058  -5.4828  -5.4619  -5.4443  -5.4341  -5.3983  -5.3859  -5.3595
    -5.3439  -5.3121  -5.3001  -5.2600  -5.2393  -5.2268  -5.1975  -5.1468
    -5.1263  -5.1067  -5.0881  -5.0738  -5.0483  -5.0240  -5.0018  -4.9701
    -4.9490  -4.9140  -4.9020  -4.8919  -4.8756  -4.8505  -4.8115  -4.7962
    -4.7790  -4.7602  -4.7402  -4.7330  -4.7084  -4.6913  -4.6785  -4.6642
    -4.6546  -4.6345  -4.6162  -4.6013  -4.5943  -4.5647  -4.5513  -4.5364
    -4.5328  -4.5224  -4.4954  -4.4899  -4.4694  -4.4405  -4.4336  -4.4324
    -4.4059  -4.4046  -4.3806  -4.3664  -4.3418  -4.3035  -4.2915  -4.2640
    -4.2605  -4.2388  -4.2256  -4.2062  -4.1934  -4.1733  -4.1726  -4.1649
    -4.1517  -4.1366  -4.1124  -4.1001  -4.0814  -4.0613  -4.0358  -3.9959
    -3.9790  -3.9671  -3.9426  -3.9222  -3.9202  -3.9053  -3.8855  -3.8786
    -3.8719  -3.8673  -3.8549  -3.8494  -3.8418  -3.8329  -3.8172  -3.8094
    -3.7977  -3.7854  -3.7798  -3.7726  -3.7609  -3.7445  -3.7190  -3.6967
    -3.6895  -3.6797  -3.6573  -3.6391  -3.6322  -3.6203  -3.6128  -3.5955
    -3.5947  -3.5797  -3.5651  -3.5245  -3.4708  -3.4595  -3.4235  -3.4207
    -3.4023  -3.3951  -3.3696  -3.3506  -3.3389  -3.3199

          k = 0.5000-0.2887 0.0000 (****** PWs)   bands (ev):

   -76.1369 -76.1368 -76.0608 -76.0606 -76.0125 -76.0108 -75.9806 -75.9806
   -75.9309 -75.9299 -75.9299 -75.8759 -75.8507 -75.8506 -75.8503 -75.8487
   -75.7724 -75.7723 -47.4874 -47.4864 -47.4630 -47.4619 -47.4577 -47.4573
   -47.4084 -47.4083 -47.3880 -47.3877 -47.3822 -47.3819 -47.3519 -47.3504
   -47.3455 -47.3440 -47.3392 -47.3378 -47.3272 -47.3272 -47.3058 -47.3058
   -47.3013 -47.3013 -47.2695 -47.2695 -47.2693 -47.2631 -47.2630 -47.2630
   -47.2604 -47.2559 -47.2558 -47.2126 -47.2066 -47.2038 -47.1888 -47.1888
   -47.1884 -47.1869 -47.1834 -47.1833 -47.1815 -47.1804 -47.1794 -47.1783
   -47.1762 -47.1762 -47.1101 -47.1098 -47.1063 -47.1043 -47.0973 -47.0971
   -16.1882 -16.1188 -16.0225 -15.9707 -15.9339 -15.8689 -15.8520 -15.7686
   -15.6567 -15.6296 -15.5559 -15.5253 -15.5197 -15.4720 -15.4501 -15.3968
   -15.3646 -15.3542 -15.3509 -15.3132 -15.3098 -15.3007 -15.2968 -15.2773
   -15.2530 -15.2481 -15.2276 -15.2212 -15.2178 -15.2018 -15.1946 -15.1643
   -15.1627 -15.1437 -15.1388 -15.1240 -15.1219 -15.1031 -15.0999 -15.0759
   -15.0731 -15.0663 -15.0305 -15.0297 -15.0024 -14.9970 -14.9850 -14.9073
   -14.8802 -14.8795 -14.8183 -14.8154 -14.7421 -14.7133  -7.9240  -7.8917
    -7.7938  -7.7901  -7.7448  -7.7016  -7.6961  -7.5587  -7.5434  -7.3701
    -7.3295  -7.2895  -7.2483  -7.2437  -7.2243  -7.2179  -7.1419  -7.1243
    -6.9701  -6.9456  -6.9389  -6.8911  -6.8759  -6.8678  -6.8377  -6.8285
    -6.8233  -6.8076  -6.7926  -6.7653  -6.7604  -6.7520  -6.7084  -6.6941
    -6.6686  -6.6650  -6.6224  -6.6209  -6.5964  -6.5854  -6.5592  -6.5227
    -6.5191  -6.5005  -6.4965  -6.4945  -6.4621  -6.4522  -6.4285  -6.4068
    -6.3899  -6.3729  -6.3706  -6.3586  -6.3076  -6.3025  -6.2857  -6.2776
    -6.2648  -6.2476  -6.1947  -6.1729  -6.1208  -6.1140  -6.0670  -6.0589
    -6.0354  -6.0243  -6.0153  -5.9925  -5.9796  -5.9665  -5.9414  -5.9137
    -5.9032  -5.8984  -5.8944  -5.8679  -5.8626  -5.8397  -5.7898  -5.6675
    -5.6446  -5.6009  -5.5659  -5.5502  -5.5399  -5.5252  -5.5144  -5.5062
    -5.4957  -5.4841  -5.4689  -5.4641  -5.4427  -5.4264  -5.3935  -5.3728
    -5.3646  -5.3418  -5.3273  -5.2627  -5.2231  -5.2000  -5.1801  -5.1465
    -5.1241  -5.0836  -5.0747  -5.0550  -5.0465  -5.0244  -4.9967  -4.9915
    -4.9439  -4.9375  -4.9132  -4.8736  -4.8682  -4.8363  -4.8100  -4.7987
    -4.7807  -4.7742  -4.7331  -4.7293  -4.7127  -4.6935  -4.6842  -4.6630
    -4.6590  -4.6304  -4.6222  -4.6005  -4.5940  -4.5781  -4.5667  -4.5601
    -4.5437  -4.5061  -4.4699  -4.4668  -4.4585  -4.4557  -4.4343  -4.4215
    -4.4087  -4.4045  -4.4015  -4.3792  -4.3485  -4.2921  -4.2846  -4.2725
    -4.2633  -4.2298  -4.2197  -4.2063  -4.1974  -4.1789  -4.1727  -4.1506
    -4.1428  -4.1261  -4.1207  -4.0959  -4.0792  -4.0750  -4.0173  -4.0097
    -3.9818  -3.9620  -3.9366  -3.9296  -3.9106  -3.9072  -3.9017  -3.8910
    -3.8790  -3.8770  -3.8616  -3.8514  -3.8390  -3.8260  -3.8163  -3.8069
    -3.8023  -3.7933  -3.7817  -3.7631  -3.7555  -3.7375  -3.7221  -3.6998
    -3.6895  -3.6729  -3.6632  -3.6467  -3.6274  -3.6203  -3.6174  -3.6023
    -3.5749  -3.5676  -3.5530  -3.5282  -3.4886  -3.4479  -3.4358  -3.4237
    -3.4211  -3.3807  -3.3587  -3.3548  -3.3272  -3.3227

          k =-0.5000-0.2887 0.0000 (****** PWs)   bands (ev):

   -76.1369 -76.1368 -76.0608 -76.0606 -76.0125 -76.0108 -75.9806 -75.9806
   -75.9309 -75.9299 -75.9299 -75.8759 -75.8507 -75.8506 -75.8503 -75.8487
   -75.7724 -75.7723 -47.4874 -47.4864 -47.4630 -47.4619 -47.4577 -47.4573
   -47.4084 -47.4083 -47.3880 -47.3877 -47.3822 -47.3819 -47.3519 -47.3504
   -47.3455 -47.3440 -47.3392 -47.3378 -47.3272 -47.3272 -47.3058 -47.3058
   -47.3013 -47.3013 -47.2695 -47.2695 -47.2693 -47.2631 -47.2630 -47.2630
   -47.2604 -47.2559 -47.2558 -47.2126 -47.2066 -47.2038 -47.1888 -47.1888
   -47.1884 -47.1869 -47.1834 -47.1833 -47.1815 -47.1804 -47.1794 -47.1783
   -47.1762 -47.1762 -47.1101 -47.1098 -47.1063 -47.1043 -47.0973 -47.0971
   -16.1945 -16.0987 -16.0252 -15.9983 -15.9274 -15.8642 -15.8456 -15.7601
   -15.6899 -15.5936 -15.5686 -15.5211 -15.5166 -15.4637 -15.4522 -15.3953
   -15.3751 -15.3610 -15.3526 -15.3250 -15.3129 -15.3105 -15.2929 -15.2749
   -15.2518 -15.2418 -15.2306 -15.2177 -15.2062 -15.1949 -15.1818 -15.1723
   -15.1605 -15.1488 -15.1425 -15.1255 -15.1199 -15.1017 -15.0973 -15.0840
   -15.0757 -15.0595 -15.0331 -15.0284 -15.0037 -14.9952 -14.9872 -14.9087
   -14.8799 -14.8789 -14.8170 -14.8166 -14.7420 -14.7134  -7.9303  -7.8787
    -7.8166  -7.7810  -7.7643  -7.7034  -7.6391  -7.5968  -7.5255  -7.3686
    -7.3375  -7.2831  -7.2723  -7.2601  -7.2117  -7.1985  -7.1358  -7.1299
    -6.9731  -6.9466  -6.9344  -6.8947  -6.8693  -6.8642  -6.8347  -6.8253
    -6.8191  -6.8028  -6.7785  -6.7602  -6.7319  -6.7273  -6.7205  -6.7037
    -6.6955  -6.6739  -6.6506  -6.6421  -6.6275  -6.5951  -6.5623  -6.5445
    -6.5203  -6.5126  -6.4808  -6.4803  -6.4550  -6.4392  -6.4251  -6.4079
    -6.3915  -6.3870  -6.3807  -6.3313  -6.3200  -6.2892  -6.2786  -6.2672
    -6.2431  -6.2227  -6.1891  -6.1781  -6.1581  -6.1076  -6.0807  -6.0606
    -6.0417  -6.0235  -6.0147  -5.9908  -5.9797  -5.9780  -5.9593  -5.9161
    -5.9075  -5.8904  -5.8585  -5.8408  -5.8199  -5.7981  -5.7766  -5.7117
    -5.6446  -5.6168  -5.5960  -5.5785  -5.5678  -5.5517  -5.5252  -5.5145
    -5.5060  -5.4814  -5.4594  -5.4429  -5.4370  -5.4025  -5.3827  -5.3576
    -5.3443  -5.3135  -5.3014  -5.2641  -5.2385  -5.2211  -5.1985  -5.1458
    -5.1328  -5.1086  -5.0901  -5.0697  -5.0478  -5.0183  -5.0027  -4.9694
    -4.9504  -4.9132  -4.9029  -4.8935  -4.8736  -4.8455  -4.8118  -4.7977
    -4.7730  -4.7635  -4.7432  -4.7305  -4.7061  -4.6863  -4.6787  -4.6688
    -4.6618  -4.6390  -4.6132  -4.6037  -4.5963  -4.5644  -4.5526  -4.5347
    -4.5342  -4.5237  -4.5004  -4.4857  -4.4694  -4.4450  -4.4414  -4.4252
    -4.3997  -4.3956  -4.3750  -4.3724  -4.3389  -4.3027  -4.2890  -4.2704
    -4.2594  -4.2472  -4.2222  -4.2049  -4.1938  -4.1748  -4.1657  -4.1637
    -4.1533  -4.1448  -4.1141  -4.1044  -4.0707  -4.0600  -4.0377  -3.9972
    -3.9779  -3.9569  -3.9470  -3.9306  -3.9169  -3.9014  -3.8925  -3.8813
    -3.8719  -3.8636  -3.8532  -3.8409  -3.8400  -3.8349  -3.8183  -3.8176
    -3.8047  -3.7849  -3.7820  -3.7641  -3.7567  -3.7446  -3.7235  -3.7083
    -3.6815  -3.6765  -3.6511  -3.6454  -3.6299  -3.6192  -3.6104  -3.6004
    -3.5947  -3.5722  -3.5673  -3.5293  -3.4744  -3.4577  -3.4213  -3.4143
    -3.4085  -3.3952  -3.3660  -3.3510  -3.3429  -3.3188

 ------ SPIN DOWN ----------


          k = 0.0000 0.0000 0.0000 (****** PWs)   bands (ev):

   -72.9846 -72.9788 -72.9785 -72.9720 -72.9705 -72.9067 -72.9062 -72.8931
   -72.8927 -72.8926 -72.8342 -72.8341 -72.8184 -72.8182 -72.8153 -72.8140
   -72.7427 -72.7425 -44.3883 -44.3880 -44.3866 -44.3779 -44.3763 -44.3618
   -44.3601 -44.3524 -44.3490 -44.3473 -44.3458 -44.3343 -44.3328 -44.3316
   -44.3310 -44.3121 -44.3115 -44.2983 -44.2980 -44.2980 -44.2840 -44.2834
   -44.2690 -44.2689 -44.2671 -44.2668 -44.2637 -44.2605 -44.2541 -44.2541
   -44.2346 -44.2346 -44.2199 -44.2187 -44.2187 -44.2183 -44.2121 -44.2121
   -44.1953 -44.1952 -44.1929 -44.1928 -44.1864 -44.1850 -44.1835 -44.1831
   -44.1824 -44.1813 -44.1426 -44.1421 -44.1178 -44.1158 -44.1081 -44.1074
   -16.2104 -16.0783 -16.0315 -16.0006 -15.9699 -15.9085 -15.8809 -15.7335
   -15.6892 -15.6619 -15.6372 -15.5364 -15.5152 -15.5024 -15.4602 -15.4500
   -15.4281 -15.4028 -15.3912 -15.3727 -15.3719 -15.3563 -15.3430 -15.3198
   -15.3176 -15.2942 -15.2866 -15.2843 -15.2515 -15.2372 -15.2267 -15.2196
   -15.2127 -15.2017 -15.1749 -15.1744 -15.1643 -15.1543 -15.1456 -15.1331
   -15.1279 -15.1115 -15.0897 -15.0741 -15.0627 -15.0438 -15.0349 -14.9689
   -14.9507 -14.9445 -14.8861 -14.8831 -14.8111 -14.7843  -7.6642  -7.6191
    -7.5756  -7.5332  -7.5276  -7.4862  -7.4408  -7.1623  -7.1320  -7.1303
    -7.1182  -7.0833  -7.0444  -7.0188  -6.9962  -6.9773  -6.9052  -6.9025
    -6.8569  -6.8475  -6.8107  -6.7790  -6.7582  -6.7260  -6.6745  -6.6438
    -6.6290  -6.6131  -6.6003  -6.5559  -6.5473  -6.5464  -6.5272  -6.5249
    -6.4729  -6.4670  -6.4510  -6.4257  -6.4170  -6.4073  -6.3777  -6.3512
    -6.3436  -6.2982  -6.2971  -6.2937  -6.2538  -6.1880  -6.1482  -6.1380
    -6.1309  -6.0584  -6.0459  -6.0257  -6.0030  -5.9940  -5.9487  -5.9394
    -5.9378  -5.9272  -5.8850  -5.8835  -5.8598  -5.8149  -5.7947  -5.6246
    -5.6054  -5.5935  -5.5812  -5.5730  -5.5675  -5.5503  -5.5331  -5.5130
    -5.5031  -5.4997  -5.4850  -5.4542  -5.4011  -5.3975  -5.3844  -5.3635
    -5.3126  -5.2791  -5.2272  -5.2146  -5.1871  -5.1497  -5.1107  -5.1054
    -5.0957  -5.0618  -5.0249  -5.0181  -4.9828  -4.9789  -4.9652  -4.9604
    -4.9459  -4.9237  -4.9085  -4.8778  -4.8605  -4.8488  -4.8192  -4.8183
    -4.8002  -4.7867  -4.7729  -4.7708  -4.7483  -4.7465  -4.7222  -4.7151
    -4.6932  -4.6776  -4.6763  -4.6323  -4.6312  -4.5731  -4.5616  -4.5536
    -4.5503  -4.5456  -4.4737  -4.4583  -4.4485  -4.4477  -4.4079  -4.3776
    -4.3652  -4.3479  -4.3222  -4.3158  -4.3027  -4.2893  -4.2554  -4.2465
    -4.2347  -4.2192  -4.2096  -4.1729  -4.1108  -4.0727  -4.0678  -4.0558
    -4.0547  -3.9982  -3.9965  -3.9812  -3.9797  -3.9673  -3.9188  -3.8953
    -3.8674  -3.8327  -3.8139  -3.7653  -3.7231  -3.6865  -3.6144  -3.5908
    -1.5883  -1.5817  -1.5500  -1.5431  -1.5230  -1.4947  -1.4763  -1.4579
    -1.4534  -1.4272  -1.4155  -1.4062  -1.3843  -1.3797  -1.3571  -1.3482
    -1.3381  -1.3294  -1.3194  -1.2988  -1.2966  -1.2778  -1.2688  -1.2560
    -1.2551  -1.2327  -1.2144  -1.2115  -1.1987  -1.1905  -1.1504  -1.1474
    -1.1236  -1.1205  -1.1158  -1.0986  -1.0879  -1.0815  -1.0784  -1.0574
    -1.0536  -1.0504  -1.0399  -1.0299  -1.0253  -1.0174  -1.0152  -1.0121
    -0.9922  -0.9857  -0.9754  -0.9692  -0.9549  -0.9330

          k = 0.0000-0.5774 0.0000 (****** PWs)   bands (ev):

   -72.9846 -72.9788 -72.9785 -72.9720 -72.9705 -72.9067 -72.9062 -72.8931
   -72.8927 -72.8926 -72.8342 -72.8341 -72.8184 -72.8182 -72.8153 -72.8140
   -72.7427 -72.7425 -44.3883 -44.3880 -44.3866 -44.3779 -44.3763 -44.3618
   -44.3601 -44.3524 -44.3490 -44.3473 -44.3458 -44.3343 -44.3328 -44.3316
   -44.3310 -44.3121 -44.3115 -44.2983 -44.2980 -44.2980 -44.2840 -44.2834
   -44.2690 -44.2689 -44.2671 -44.2668 -44.2637 -44.2605 -44.2541 -44.2541
   -44.2346 -44.2346 -44.2199 -44.2187 -44.2187 -44.2183 -44.2121 -44.2121
   -44.1953 -44.1952 -44.1929 -44.1928 -44.1864 -44.1850 -44.1835 -44.1831
   -44.1824 -44.1813 -44.1426 -44.1421 -44.1178 -44.1158 -44.1081 -44.1074
   -16.1993 -16.1085 -16.0383 -16.0101 -15.9414 -15.8778 -15.8633 -15.7811
   -15.7182 -15.6231 -15.6023 -15.5554 -15.5482 -15.5014 -15.4960 -15.4448
   -15.4184 -15.4042 -15.3982 -15.3632 -15.3580 -15.3554 -15.3407 -15.3228
   -15.2931 -15.2853 -15.2760 -15.2662 -15.2553 -15.2434 -15.2334 -15.2222
   -15.2094 -15.1974 -15.1945 -15.1757 -15.1717 -15.1513 -15.1494 -15.1345
   -15.1262 -15.1099 -15.0913 -15.0835 -15.0590 -15.0454 -15.0338 -14.9681
   -14.9501 -14.9435 -14.8845 -14.8841 -14.8110 -14.7841  -7.6557  -7.6145
    -7.5583  -7.5202  -7.5140  -7.4530  -7.3896  -7.3486  -7.2762  -7.1253
    -7.0931  -7.0410  -7.0267  -7.0175  -6.9715  -6.9646  -6.9037  -6.8959
    -6.8575  -6.8318  -6.8105  -6.7658  -6.7288  -6.7147  -6.6881  -6.6616
    -6.6530  -6.6353  -6.6181  -6.5962  -6.5599  -6.5507  -6.5232  -6.4928
    -6.4922  -6.4674  -6.4576  -6.4312  -6.4251  -6.3870  -6.3356  -6.3241
    -6.3118  -6.2693  -6.2501  -6.2310  -6.1965  -6.1956  -6.1672  -6.1520
    -6.1323  -6.1117  -6.0958  -6.0842  -6.0453  -6.0277  -5.9765  -5.9621
    -5.9439  -5.8977  -5.8577  -5.8054  -5.8014  -5.6636  -5.6626  -5.6378
    -5.6263  -5.6069  -5.5841  -5.5731  -5.5548  -5.5361  -5.5262  -5.5159
    -5.4836  -5.4671  -5.4518  -5.4240  -5.4178  -5.3763  -5.3527  -5.3221
    -5.3004  -5.2852  -5.2457  -5.2395  -5.2299  -5.2161  -5.1904  -5.1683
    -5.1564  -5.1279  -5.1193  -5.0984  -5.0816  -5.0785  -5.0605  -5.0325
    -5.0087  -4.9542  -4.9368  -4.9328  -4.9228  -4.8902  -4.8760  -4.8603
    -4.8426  -4.8245  -4.8145  -4.7923  -4.7035  -4.6887  -4.6726  -4.6719
    -4.6428  -4.6240  -4.5894  -4.5752  -4.5626  -4.5414  -4.4960  -4.4933
    -4.4847  -4.4696  -4.4454  -4.4435  -4.4243  -4.4095  -4.3939  -4.3446
    -4.3240  -4.3059  -4.2967  -4.2825  -4.2654  -4.2496  -4.2345  -4.2134
    -4.1747  -4.1586  -4.1520  -4.1254  -4.1061  -4.0882  -4.0822  -4.0605
    -4.0582  -4.0329  -4.0079  -3.9838  -3.9600  -3.9524  -3.9472  -3.9089
    -3.9027  -3.8664  -3.8334  -3.8103  -3.7737  -3.7669  -3.7050  -3.6393
    -1.5947  -1.5881  -1.5609  -1.5530  -1.5252  -1.5078  -1.4756  -1.4623
    -1.4507  -1.4269  -1.4230  -1.4073  -1.3824  -1.3717  -1.3605  -1.3578
    -1.3228  -1.3108  -1.3019  -1.2859  -1.2812  -1.2701  -1.2592  -1.2488
    -1.2269  -1.2190  -1.2053  -1.1975  -1.1873  -1.1698  -1.1648  -1.1596
    -1.1402  -1.1355  -1.1269  -1.1161  -1.1020  -1.0946  -1.0835  -1.0761
    -1.0645  -1.0537  -1.0484  -1.0381  -1.0285  -1.0252  -1.0178  -1.0051
    -0.9987  -0.9844  -0.9773  -0.9682  -0.9426  -0.9299

          k = 0.5000-0.2887 0.0000 (****** PWs)   bands (ev):

   -72.9846 -72.9788 -72.9785 -72.9720 -72.9705 -72.9067 -72.9062 -72.8931
   -72.8927 -72.8926 -72.8342 -72.8341 -72.8184 -72.8182 -72.8153 -72.8140
   -72.7427 -72.7425 -44.3883 -44.3880 -44.3866 -44.3779 -44.3763 -44.3618
   -44.3601 -44.3524 -44.3490 -44.3473 -44.3458 -44.3343 -44.3328 -44.3316
   -44.3310 -44.3121 -44.3115 -44.2983 -44.2980 -44.2980 -44.2840 -44.2834
   -44.2690 -44.2689 -44.2671 -44.2668 -44.2637 -44.2605 -44.2541 -44.2541
   -44.2346 -44.2346 -44.2199 -44.2187 -44.2187 -44.2183 -44.2121 -44.2121
   -44.1953 -44.1952 -44.1929 -44.1928 -44.1864 -44.1850 -44.1835 -44.1831
   -44.1824 -44.1813 -44.1426 -44.1421 -44.1178 -44.1158 -44.1081 -44.1074
   -16.1929 -16.1283 -16.0350 -15.9845 -15.9482 -15.8846 -15.8643 -15.7911
   -15.6903 -15.6587 -15.5851 -15.5602 -15.5496 -15.5047 -15.4974 -15.4461
   -15.4112 -15.3979 -15.3966 -15.3561 -15.3521 -15.3451 -15.3426 -15.3243
   -15.2962 -15.2936 -15.2735 -15.2674 -15.2671 -15.2501 -15.2457 -15.2154
   -15.2139 -15.1909 -15.1857 -15.1760 -15.1731 -15.1538 -15.1513 -15.1271
   -15.1227 -15.1170 -15.0887 -15.0848 -15.0590 -15.0468 -15.0314 -14.9673
   -14.9508 -14.9434 -14.8862 -14.8826 -14.8111 -14.7841  -7.6511  -7.6227
    -7.5392  -7.5353  -7.4841  -7.4575  -7.4445  -7.3111  -7.2940  -7.1261
    -7.0841  -7.0479  -7.0065  -7.0047  -6.9821  -6.9724  -6.9072  -6.8927
    -6.8479  -6.8348  -6.8209  -6.7552  -6.7264  -6.7105  -6.7059  -6.6853
    -6.6574  -6.6464  -6.6344  -6.5768  -6.5746  -6.5685  -6.5358  -6.4963
    -6.4617  -6.4451  -6.4203  -6.4091  -6.3882  -6.3699  -6.3554  -6.3258
    -6.2995  -6.2942  -6.2751  -6.2327  -6.2265  -6.1927  -6.1592  -6.1505
    -6.1419  -6.1170  -6.0841  -6.0585  -5.9968  -5.9918  -5.9878  -5.9749
    -5.9514  -5.9330  -5.9220  -5.8184  -5.7693  -5.6972  -5.6740  -5.6567
    -5.6349  -5.5917  -5.5703  -5.5629  -5.5617  -5.5410  -5.5040  -5.4923
    -5.4860  -5.4721  -5.4657  -5.4376  -5.4103  -5.4064  -5.3688  -5.3010
    -5.2905  -5.2655  -5.2496  -5.2235  -5.2213  -5.2116  -5.1858  -5.1771
    -5.1564  -5.1419  -5.1305  -5.0999  -5.0752  -5.0729  -5.0348  -5.0236
    -5.0081  -4.9681  -4.9569  -4.9376  -4.9165  -4.9104  -4.8591  -4.8468
    -4.8368  -4.8196  -4.8186  -4.7034  -4.7015  -4.6955  -4.6776  -4.6599
    -4.6523  -4.6370  -4.6214  -4.6072  -4.5630  -4.5371  -4.5184  -4.5168
    -4.4979  -4.4542  -4.4310  -4.4257  -4.4042  -4.3912  -4.3737  -4.3466
    -4.3329  -4.3186  -4.2883  -4.2840  -4.2722  -4.2410  -4.2383  -4.2344
    -4.2112  -4.1880  -4.1567  -4.1188  -4.0958  -4.0828  -4.0729  -4.0444
    -4.0357  -4.0340  -4.0233  -3.9893  -3.9608  -3.9532  -3.9475  -3.9254
    -3.9076  -3.8397  -3.8391  -3.8286  -3.8162  -3.6934  -3.6880  -3.6629
    -1.5983  -1.5937  -1.5623  -1.5536  -1.5243  -1.5038  -1.4752  -1.4703
    -1.4505  -1.4258  -1.4076  -1.3997  -1.3979  -1.3814  -1.3635  -1.3464
    -1.3220  -1.3041  -1.2937  -1.2823  -1.2713  -1.2562  -1.2502  -1.2482
    -1.2373  -1.2212  -1.2148  -1.2053  -1.1890  -1.1781  -1.1730  -1.1529
    -1.1411  -1.1268  -1.1226  -1.1150  -1.1017  -1.0946  -1.0928  -1.0850
    -1.0835  -1.0573  -1.0476  -1.0381  -1.0298  -1.0246  -1.0193  -1.0103
    -0.9980  -0.9799  -0.9738  -0.9683  -0.9417  -0.9200

          k =-0.5000-0.2887 0.0000 (****** PWs)   bands (ev):

   -72.9846 -72.9788 -72.9785 -72.9720 -72.9705 -72.9067 -72.9062 -72.8931
   -72.8927 -72.8926 -72.8342 -72.8341 -72.8184 -72.8182 -72.8153 -72.8140
   -72.7427 -72.7425 -44.3883 -44.3880 -44.3866 -44.3779 -44.3763 -44.3618
   -44.3601 -44.3524 -44.3490 -44.3473 -44.3458 -44.3343 -44.3328 -44.3316
   -44.3310 -44.3121 -44.3115 -44.2983 -44.2980 -44.2980 -44.2840 -44.2834
   -44.2690 -44.2689 -44.2671 -44.2668 -44.2637 -44.2605 -44.2541 -44.2541
   -44.2346 -44.2346 -44.2199 -44.2187 -44.2187 -44.2183 -44.2121 -44.2121
   -44.1953 -44.1952 -44.1929 -44.1928 -44.1864 -44.1850 -44.1835 -44.1831
   -44.1824 -44.1813 -44.1426 -44.1421 -44.1178 -44.1158 -44.1081 -44.1074
   -16.1992 -16.1090 -16.0375 -16.0100 -15.9421 -15.8783 -15.8629 -15.7805
   -15.7182 -15.6236 -15.6024 -15.5545 -15.5482 -15.5016 -15.4968 -15.4443
   -15.4197 -15.4036 -15.3974 -15.3635 -15.3568 -15.3559 -15.3411 -15.3222
   -15.2947 -15.2849 -15.2757 -15.2664 -15.2554 -15.2435 -15.2331 -15.2221
   -15.2095 -15.1963 -15.1944 -15.1768 -15.1719 -15.1513 -15.1503 -15.1335
   -15.1257 -15.1100 -15.0917 -15.0836 -15.0588 -15.0454 -15.0338 -14.9681
   -14.9501 -14.9434 -14.8845 -14.8841 -14.8110 -14.7841  -7.6556  -7.6156
    -7.5562  -7.5211  -7.5136  -7.4530  -7.3912  -7.3479  -7.2759  -7.1248
    -7.0932  -7.0408  -7.0270  -7.0175  -6.9709  -6.9655  -6.9041  -6.8954
    -6.8574  -6.8316  -6.8108  -6.7645  -6.7310  -6.7169  -6.6855  -6.6637
    -6.6531  -6.6314  -6.6195  -6.5957  -6.5589  -6.5513  -6.5227  -6.4941
    -6.4895  -6.4658  -6.4584  -6.4320  -6.4281  -6.3873  -6.3352  -6.3224
    -6.3136  -6.2704  -6.2519  -6.2283  -6.1969  -6.1959  -6.1674  -6.1522
    -6.1308  -6.1107  -6.0963  -6.0807  -6.0457  -6.0325  -5.9767  -5.9619
    -5.9419  -5.8973  -5.8564  -5.8056  -5.8014  -5.6668  -5.6588  -5.6381
    -5.6260  -5.6180  -5.5905  -5.5728  -5.5517  -5.5339  -5.5200  -5.5081
    -5.4810  -5.4689  -5.4577  -5.4241  -5.4162  -5.3760  -5.3515  -5.3224
    -5.2999  -5.2892  -5.2482  -5.2407  -5.2243  -5.2167  -5.1896  -5.1695
    -5.1533  -5.1273  -5.1208  -5.0986  -5.0825  -5.0795  -5.0616  -5.0315
    -5.0061  -4.9551  -4.9373  -4.9343  -4.9221  -4.8897  -4.8756  -4.8595
    -4.8419  -4.8272  -4.8164  -4.7928  -4.7028  -4.6868  -4.6723  -4.6707
    -4.6427  -4.6242  -4.5887  -4.5743  -4.5627  -4.5412  -4.4977  -4.4944
    -4.4853  -4.4683  -4.4462  -4.4434  -4.4254  -4.4098  -4.3954  -4.3434
    -4.3234  -4.3054  -4.2963  -4.2839  -4.2648  -4.2497  -4.2343  -4.2126
    -4.1739  -4.1588  -4.1526  -4.1256  -4.1056  -4.0884  -4.0827  -4.0603
    -4.0582  -4.0325  -4.0076  -3.9836  -3.9600  -3.9527  -3.9477  -3.9090
    -3.9017  -3.8665  -3.8339  -3.8099  -3.7738  -3.7678  -3.7043  -3.6394
    -1.5991  -1.5895  -1.5569  -1.5464  -1.5325  -1.4969  -1.4737  -1.4622
    -1.4478  -1.4414  -1.4226  -1.4053  -1.3924  -1.3776  -1.3622  -1.3419
    -1.3305  -1.3144  -1.2901  -1.2847  -1.2807  -1.2734  -1.2545  -1.2503
    -1.2335  -1.2180  -1.2094  -1.1973  -1.1765  -1.1718  -1.1652  -1.1426
    -1.1409  -1.1345  -1.1296  -1.1231  -1.1130  -1.0896  -1.0797  -1.0743
    -1.0730  -1.0509  -1.0482  -1.0443  -1.0280  -1.0221  -1.0172  -1.0082
    -0.9974  -0.9844  -0.9803  -0.9616  -0.9425  -0.9327

     highest occupied, lowest unoccupied level (ev):    -3.3159   -1.5991

!    total energy              =  -24931.13751311 Ry
     total all-electron energy =    -24931.137513 Ry
     estimated scf accuracy    <          3.3E-11 Ry

     The total energy is the sum of the following terms:
     one-electron contribution =  -25177.34612468 Ry
     hartree contribution      =   12523.84058618 Ry
     xc contribution           =    -743.76439884 Ry
     ewald contribution        =    8913.20911809 Ry
     Hubbard energy            =       0.03985649 Ry
     one-center paw contrib.   =  -20447.11655035 Ry

     total magnetization       =    54.00 Bohr mag/cell
     absolute magnetization    =    65.16 Bohr mag/cell

     convergence has been achieved in  15 iterations

     negative rho (up, down):  1.307E-01 1.472E-01

     Forces acting on atoms (cartesian axes, Ry/au):

     atom    1 type  1   force =    -0.00117586   -0.00208088    0.00012433
     atom    2 type  3   force =    -0.00248198   -0.00781027    0.00226720
     atom    3 type  3   force =    -0.00551933   -0.00602605    0.00226539
     atom    4 type  2   force =     0.00487550   -0.02269842   -0.00065662
     atom    5 type  2   force =    -0.00320576   -0.00555848   -0.00949308
     atom    6 type  2   force =    -0.02210309   -0.00713209   -0.00065967
     atom    7 type  2   force =     0.00731405   -0.02441964   -0.00194582
     atom    8 type  2   force =     0.00246230    0.00428269    0.00889793
     atom    9 type  2   force =    -0.02480779   -0.00588497   -0.00194190
     atom   10 type  3   force =    -0.00180646   -0.00209824    0.00022456
     atom   11 type  3   force =    -0.00562479   -0.00546402    0.00214584
     atom   12 type  2   force =     0.00494817    0.00061303   -0.00971633
     atom   13 type  2   force =    -0.00289512   -0.00482964   -0.00926214
     atom   14 type  2   force =    -0.02182141   -0.00647807   -0.00078371
     atom   15 type  2   force =    -0.00561017    0.00087499    0.00924660
     atom   16 type  2   force =     0.00236483    0.00469541    0.00945748
     atom   17 type  2   force =    -0.02496976   -0.00541842   -0.00195696
     atom   18 type  3   force =    -0.00134708   -0.00138990   -0.00052493
     atom   19 type  3   force =    -0.01444254    0.02876459    0.00308952
     atom   20 type  2   force =     0.00466558    0.00073213   -0.00975762
     atom   21 type  2   force =    -0.00418141    0.00236409   -0.00760016
     atom   22 type  2   force =    -0.01976918   -0.00451596    0.00137624
     atom   23 type  2   force =    -0.00560564    0.00077154    0.00953111
     atom   24 type  2   force =    -0.00279664    0.01174704    0.00748400
     atom   25 type  2   force =    -0.02316114    0.00011679   -0.00335509
     atom   26 type  3   force =    -0.00189936   -0.00763089    0.00214227
     atom   27 type  3   force =    -0.00093030   -0.00291121    0.00023187
     atom   28 type  2   force =     0.00529505   -0.02212783   -0.00077967
     atom   29 type  2   force =    -0.00273705   -0.00495029   -0.00927273
     atom   30 type  2   force =    -0.00190712    0.00467789   -0.00971500
     atom   31 type  2   force =     0.00778908   -0.02432791   -0.00196192
     atom   32 type  2   force =     0.00285901    0.00446788    0.00946306
     atom   33 type  2   force =     0.00357143   -0.00444586    0.00925443
     atom   34 type  3   force =    -0.00141137   -0.00180743    0.00011326
     atom   35 type  2   force =     0.00462795    0.00306193   -0.00867994
     atom   36 type  2   force =    -0.00048027   -0.00451283   -0.00802149
     atom   37 type  2   force =    -0.00173398    0.00535154   -0.00987182
     atom   38 type  2   force =    -0.00426969    0.00285433    0.00810743
     atom   39 type  2   force =     0.00397584    0.00318881    0.00880535
     atom   40 type  2   force =     0.00348980   -0.00397376    0.00929417
     atom   41 type  3   force =    -0.00068970   -0.00118116   -0.00063398
     atom   42 type  3   force =    -0.00990682    0.03240157    0.00109830
     atom   43 type  2   force =     0.00522562    0.00116887   -0.00991059
     atom   44 type  2   force =    -0.00376886    0.00280195   -0.00757607
     atom   45 type  2   force =    -0.00021943    0.00755348   -0.00794160
     atom   46 type  2   force =    -0.00515592    0.00081847    0.00957742
     atom   47 type  2   force =    -0.00237959    0.01192754    0.00802032
     atom   48 type  2   force =     0.00497938    0.00145621    0.00795419
     atom   49 type  3   force =     0.03213237    0.00187589    0.00308845
     atom   50 type  3   force =    -0.00051724   -0.00186462   -0.00052410
     atom   51 type  2   force =     0.00597505   -0.01937631    0.00137797
     atom   52 type  2   force =     0.00414033   -0.00244452   -0.00760307
     atom   53 type  2   force =    -0.00169793    0.00440818   -0.00976702
     atom   54 type  2   force =     0.01168371   -0.01999635   -0.00335570
     atom   55 type  2   force =     0.01157598    0.00345128    0.00748555
     atom   56 type  2   force =     0.00346591   -0.00447250    0.00953304
     atom   57 type  3   force =     0.03304071    0.00761968    0.00110246
     atom   58 type  3   force =    -0.00046504   -0.00105231   -0.00063763
     atom   59 type  2   force =     0.00665303    0.00358955   -0.00794449
     atom   60 type  2   force =     0.00423502   -0.00187948   -0.00758830
     atom   61 type  2   force =    -0.00266806    0.00345824   -0.00872399
     atom   62 type  2   force =    -0.00123029    0.00503356    0.00796297
     atom   63 type  2   force =     0.01153940    0.00392225    0.00803235
     atom   64 type  2   force =     0.00127395   -0.00420675    0.00839436
     atom   65 type  3   force =     0.03347214    0.00839819    0.00038138
     atom   66 type  3   force =    -0.00947595    0.03317855    0.00038802
     atom   67 type  2   force =     0.00637955    0.00365443   -0.00800590
     atom   68 type  2   force =     0.00303694    0.00527430   -0.00613524
     atom   69 type  2   force =    -0.00002316    0.00732980   -0.00799480
     atom   70 type  2   force =    -0.00136859    0.00471576    0.00827616
     atom   71 type  2   force =     0.00641326    0.01110771    0.00583255
     atom   72 type  2   force =     0.00479993    0.00125695    0.00827150

     Total force =     0.136877     Total SCF correction =     0.000006


     Computing stress (Cartesian axis) and pressure


     negative rho (up, down):  1.307E-01 1.472E-01
          total   stress  (Ry/bohr**3)                   (kbar)     P=        1.80
   0.00001208  -0.00000121   0.00000070            1.78       -0.18        0.10
  -0.00000121   0.00001067   0.00000121           -0.18        1.57        0.18
   0.00000070   0.00000121   0.00001389            0.10        0.18        2.04


     Writing all to output data dir ./Cr_0_0.2/Cr_0_0.save/ :
     XML data file, charge density, pseudopotentials, collected wavefunctions

     init_run     :    170.67s CPU    100.42s WALL (       1 calls)
     electrons    :   3965.32s CPU   2147.43s WALL (       1 calls)
     forces       :    140.50s CPU     74.13s WALL (       1 calls)
     stress       :    842.30s CPU    445.61s WALL (       1 calls)

     Called by init_run:
     wfcinit      :    152.00s CPU     80.50s WALL (       1 calls)
     potinit      :      3.58s CPU      4.15s WALL (       1 calls)
     hinit0       :      2.53s CPU      2.85s WALL (       1 calls)

     Called by electrons:
     c_bands      :   3416.55s CPU   1819.45s WALL (      16 calls)
     sum_band     :    486.07s CPU    273.76s WALL (      16 calls)
     v_of_rho     :     20.71s CPU     17.30s WALL (      16 calls)
     newd         :     29.32s CPU     28.64s WALL (      16 calls)
     PAW_pot      :     10.56s CPU      7.50s WALL (      16 calls)
     mix_rho      :      3.10s CPU      2.48s WALL (      16 calls)

     Called by c_bands:
     init_us_2    :     26.90s CPU     13.93s WALL (     304 calls)
     init_us_2:cp :     26.90s CPU     13.92s WALL (     304 calls)
     cegterg      :   3383.67s CPU   1799.42s WALL (     128 calls)

     Called by *egterg:
     cdiaghg      :    331.67s CPU    189.18s WALL (     674 calls)
     h_psi        :   2057.33s CPU   1066.91s WALL (     690 calls)
     s_psi        :    242.14s CPU    122.43s WALL (     714 calls)
     g_psi        :      7.01s CPU      3.58s WALL (     554 calls)

     Called by h_psi:
     h_psi:calbec :    256.66s CPU    133.61s WALL (     690 calls)
     vloc_psi     :   1539.97s CPU    791.76s WALL (     690 calls)
     add_vuspsi   :    222.46s CPU    112.65s WALL (     690 calls)
     vhpsi        :     32.12s CPU     18.15s WALL (     690 calls)

     General routines
     calbec       :    790.98s CPU    417.58s WALL (   29436 calls)
     fft          :     22.78s CPU     22.41s WALL (     440 calls)
     ffts         :      2.48s CPU      2.07s WALL (      64 calls)
     fftw         :   1349.69s CPU    696.55s WALL (  305284 calls)
     interpolate  :      2.91s CPU      2.46s WALL (      32 calls)

     Parallel routines

     Hubbard U routines
     new_ns       :      7.29s CPU      5.15s WALL (      16 calls)
     vhpsi        :     32.12s CPU     18.15s WALL (     690 calls)
     force_hub    :    108.54s CPU     55.96s WALL (       1 calls)
                                        0.00s GPU  (       1 calls)
     stres_hub    :    309.75s CPU    161.89s WALL (       1 calls)
                                        0.00s GPU  (       1 calls)

     PWSCF        :      1h25m CPU  46m49.25s WALL


   This run was terminated on:  12:23:11  11Sep2025            

=------------------------------------------------------------------------------=
   JOB DONE.
=------------------------------------------------------------------------------=
[1757589791.238309] [node007:118952:0]          mpool.c:43   UCX  WARN  object 0x74ce280 was not returned to mpool ucp_requests
[1757589791.238327] [node007:118952:0]          mpool.c:43   UCX  WARN  object 0x74d03c0 was not returned to mpool ucp_requests
[1757589791.238328] [node007:118952:0]          mpool.c:43   UCX  WARN  object 0x74d11c0 was not returned to mpool ucp_requests
[1757589791.238329] [node007:118952:0]          mpool.c:43   UCX  WARN  object 0x74d2880 was not returned to mpool ucp_requests
[1757589791.238331] [node007:118952:0]          mpool.c:43   UCX  WARN  object 0x6e65880 was not returned to mpool ucp_requests
[1757589791.238332] [node007:118952:0]          mpool.c:43   UCX  WARN  object 0x6e66a00 was not returned to mpool ucp_requests
[1757589791.238333] [node007:118952:0]          mpool.c:43   UCX  WARN  object 0x6e6a3c0 was not returned to mpool ucp_requests
[1757589791.238334] [node007:118952:0]          mpool.c:43   UCX  WARN  object 0x6e6c6c0 was not returned to mpool ucp_requests
[1757589791.238335] [node007:118952:0]          mpool.c:43   UCX  WARN  object 0x41dea00 was not returned to mpool ucp_requests
[1757589791.238336] [node007:118952:0]          mpool.c:43   UCX  WARN  object 0x41df100 was not returned to mpool ucp_requests
[1757589791.238338] [node007:118952:0]          mpool.c:43   UCX  WARN  object 0x41e2040 was not returned to mpool ucp_requests
[1757589791.238339] [node007:118952:0]          mpool.c:43   UCX  WARN  object 0x41e31c0 was not returned to mpool ucp_requests
[1757589791.238340] [node007:118952:0]          mpool.c:43   UCX  WARN  object 0x41eaa80 was not returned to mpool ucp_requests
[1757589791.240164] [node007:118921:0]          mpool.c:43   UCX  WARN  object 0x72b2280 was not returned to mpool ucp_requests
[1757589791.240184] [node007:118921:0]          mpool.c:43   UCX  WARN  object 0x72b6500 was not returned to mpool ucp_requests
[1757589791.240186] [node007:118921:0]          mpool.c:43   UCX  WARN  object 0x72b7680 was not returned to mpool ucp_requests
[1757589791.240188] [node007:118921:0]          mpool.c:43   UCX  WARN  object 0x6c60a00 was not returned to mpool ucp_requests
[1757589791.240189] [node007:118921:0]          mpool.c:43   UCX  WARN  object 0x6c61d40 was not returned to mpool ucp_requests
[1757589791.240190] [node007:118921:0]          mpool.c:43   UCX  WARN  object 0x6c651c0 was not returned to mpool ucp_requests
[1757589791.240191] [node007:118921:0]          mpool.c:43   UCX  WARN  object 0x6c66f80 was not returned to mpool ucp_requests
[1757589791.240192] [node007:118921:0]          mpool.c:43   UCX  WARN  object 0x6c697c0 was not returned to mpool ucp_requests
[1757589791.240194] [node007:118921:0]          mpool.c:43   UCX  WARN  object 0x6c69b40 was not returned to mpool ucp_requests
[1757589791.240195] [node007:118921:0]          mpool.c:43   UCX  WARN  object 0x6c6b3c0 was not returned to mpool ucp_requests
[1757589791.240197] [node007:118921:0]          mpool.c:43   UCX  WARN  object 0x3fd80c0 was not returned to mpool ucp_requests
[1757589791.240198] [node007:118921:0]          mpool.c:43   UCX  WARN  object 0x3fd8d00 was not returned to mpool ucp_requests
[1757589791.240199] [node007:118921:0]          mpool.c:43   UCX  WARN  object 0x3fd9b00 was not returned to mpool ucp_requests
[1757589791.240200] [node007:118921:0]          mpool.c:43   UCX  WARN  object 0x3fdcdc0 was not returned to mpool ucp_requests
[1757589791.240201] [node007:118921:0]          mpool.c:43   UCX  WARN  object 0x3fdcf80 was not returned to mpool ucp_requests
[1757589791.245981] [node007:118944:0]          mpool.c:43   UCX  WARN  object 0x7481880 was not returned to mpool ucp_requests
[1757589791.245998] [node007:118944:0]          mpool.c:43   UCX  WARN  object 0x74675c0 was not returned to mpool ucp_requests
[1757589791.246000] [node007:118944:0]          mpool.c:43   UCX  WARN  object 0x47e3a00 was not returned to mpool ucp_requests
[1757589791.246001] [node007:118944:0]          mpool.c:43   UCX  WARN  object 0x47e4100 was not returned to mpool ucp_requests
[1757589791.246002] [node007:118944:0]          mpool.c:43   UCX  WARN  object 0x47eaf40 was not returned to mpool ucp_requests
[1757589791.246004] [node007:118944:0]          mpool.c:43   UCX  WARN  object 0x47ef700 was not returned to mpool ucp_requests
[1757589791.246005] [node007:118944:0]          mpool.c:43   UCX  WARN  object 0x47f1680 was not returned to mpool ucp_requests
