
     Program PWSCF v.7.3 starts on 11Sep2025 at 11:21:22 

     This program is part of the open-source Quantum ESPRESSO suite
     for quantum simulation of materials; please cite
         "P. Giannozzi et al., J. Phys.:Condens. Matter 21 395502 (2009);
         "P. Giannozzi et al., J. Phys.:Condens. Matter 29 465901 (2017);
         "P. Giannozzi et al., J. Chem. Phys. 152 154105 (2020);
          URL http://www.quantum-espresso.org", 
     in publications or presentations arising from this work. More details at
     http://www.quantum-espresso.org/quote

     Parallel version (MPI & OpenMP), running on     256 processor cores
     Number of MPI processes:               128
     Threads/MPI process:                     2

     MPI processes distributed on     2 nodes
     439497 MiB available memory on the printing compute node when the environment starts

     Reading input from Cr_0_0.05.in
Warning: card &CELL ignored
Warning: card / ignored
Warning: card &FCP ignored
Warning: card / ignored
Warning: card &RISM ignored
Warning: card / ignored

     Current dimensions of program PWSCF are:
     Max number of different atomic species (ntypx) = 10
     Max number of k-points (npk) =  40000
     Max angular momentum in pseudopotentials (lmaxx) =  4
read_pp_mesh; mismatch in mesh size, discarding the one in header
read_pp_mesh; mismatch in mesh size, discarding the one in header
read_pp_mesh; mismatch in mesh size, discarding the one in header
     file Cr.GGA-PBE-paw.UPF: wavefunction(s)  3S 4S 3P 4P 3D 4D renormalized
     file I.GGA-PBE-paw.UPF: wavefunction(s)  6S 6P renormalized
     file Cr.GGA-PBE-paw.UPF: wavefunction(s)  3S 4S 3P 4P 3D 4D renormalized

     IMPORTANT: XC functional enforced from input :
     Exchange-correlation= PBE
                           (   1   4   3   4   0   0   0)
     Any further DFT definition will be discarded
     Please, verify this is what you really want


     R & G space division:  proc/nbgrp/npool/nimage =     128
     Subspace diagonalization in iterative solution of the eigenvalue problem:
     one sub-group per band group will be used
     ELPA distributed-memory algorithm (size of sub-group:  3*  3 procs)


     Parallelization info
     --------------------
     sticks:   dense  smooth     PW     G-vecs:    dense   smooth      PW
     Min         509     305     78               140391    65241    8388
     Max         510     306     79               140404    65254    8400
     Sum       65263   39121   9985             17971031  8351671 1074593

     Using Slab Decomposition



     bravais-lattice index     =            0
     lattice parameter (alat)  =      39.7293  a.u.
     unit-cell volume          =   72410.5124 (a.u.)^3
     number of atoms/cell      =           72
     number of atomic types    =            3
     number of electrons       =       630.00 (up: 342.00, down: 288.00)
     number of Kohn-Sham states=          342
     kinetic-energy cutoff     =      90.0000  Ry
     charge density cutoff     =     600.0000  Ry
     scf convergence threshold =      1.0E-10
     mixing beta               =       0.3000
     number of iterations used =            8  plain     mixing
     Exchange-correlation= PBE
                           (   1   4   3   4   0   0   0)
     Hubbard projectors: atomic
     Hubbard parameters of DFT+U (Dudarev formulation) in eV:
     U(Cr1-3d) =  0.0000
     J0(Cr1-3d) =  0.0000
     beta(Cr1-3d) =  0.0500

     Internal variables: lda_plus_u =T, lda_plus_u_kind = 0

     celldm(1)=  39.729285  celldm(2)=   0.000000  celldm(3)=   0.000000
     celldm(4)=   0.000000  celldm(5)=   0.000000  celldm(6)=   0.000000

     crystal axes: (cart. coord. in units of alat)
               a(1) = (   1.000000   0.000000   0.000000 )  
               a(2) = (  -0.500000   0.866025   0.000000 )  
               a(3) = (   0.000000   0.000000   1.333333 )  

     reciprocal axes: (cart. coord. in units 2 pi/alat)
               b(1) = (  1.000000  0.577350 -0.000000 )  
               b(2) = (  0.000000  1.154701  0.000000 )  
               b(3) = (  0.000000 -0.000000  0.750000 )  


     PseudoPot. # 1 for Cr read from file:
     ./Cr.GGA-PBE-paw.UPF
     MD5 check sum: 389087661106aa6caf57455f2e439c97
     Pseudo is Projector augmented-wave + core cor, Zval = 14.0
     Generated using ATOMPAW code
     Shape of augmentation charge: SINC**2
     Using radial grid of 2342 points,  6 beta functions with: 
                l(1) =   0
                l(2) =   0
                l(3) =   1
                l(4) =   1
                l(5) =   2
                l(6) =   2
     Q(r) pseudized with 0 coefficients 


     PseudoPot. # 2 for I  read from file:
     ./I.GGA-PBE-paw.UPF
     MD5 check sum: 736bb4145856fa7ed29d0984862794a4
     Pseudo is Projector augmented-wave + core cor, Zval =  7.0
     Generated using ATOMPAW code
     Shape of augmentation charge: SINC**2
     Using radial grid of 2342 points,  4 beta functions with: 
                l(1) =   0
                l(2) =   0
                l(3) =   1
                l(4) =   1
     Q(r) pseudized with 0 coefficients 


     PseudoPot. # 3 for Cr read from file:
     ./Cr.GGA-PBE-paw.UPF
     MD5 check sum: 389087661106aa6caf57455f2e439c97
     Pseudo is Projector augmented-wave + core cor, Zval = 14.0
     Generated using ATOMPAW code
     Shape of augmentation charge: SINC**2
     Using radial grid of 2342 points,  6 beta functions with: 
                l(1) =   0
                l(2) =   0
                l(3) =   1
                l(4) =   1
                l(5) =   2
                l(6) =   2
     Q(r) pseudized with 0 coefficients 


     atomic species   valence    mass     pseudopotential
     Cr1              14.00    51.99610     Cr( 1.00)
     I                 7.00   126.90447     I ( 1.00)
     Cr               14.00    51.99610     Cr( 1.00)

     Starting magnetic structure 
     atomic species   magnetization
     Cr1             0.214
     I               0.000
     Cr              0.214

     No symmetry found



   Cartesian axes

     site n.     atom                  positions (alat units)
         1        Cr1    tau(   1) = (   0.3271041   0.3777073   0.4295967  )
         2        Cr     tau(   2) = (   0.1635521   0.0944268   0.4295967  )
         3        Cr     tau(   3) = (   0.0000000   0.1888536   0.4295967  )
         4        I      tau(   4) = (   0.2103614  -0.0000006   0.3558127  )
         5        I      tau(   5) = (   0.0583708   0.1011024   0.3558127  )
         6        I      tau(   6) = (  -0.1051802   0.1821787   0.3558127  )
         7        I      tau(   7) = (   0.1167427  -0.0000005   0.5033806  )
         8        I      tau(   8) = (   0.1051802   0.1821786   0.5033806  )
         9        I      tau(   9) = (  -0.0583709   0.1011024   0.5033806  )
        10        Cr     tau(  10) = (  -0.0000000   0.3777073   0.4295967  )
        11        Cr     tau(  11) = (  -0.1635521   0.4721341   0.4295967  )
        12        I      tau(  12) = (   0.0468094   0.2832798   0.3558127  )
        13        I      tau(  13) = (  -0.1051813   0.3843829   0.3558127  )
        14        I      tau(  14) = (  -0.2687322   0.4654591   0.3558127  )
        15        I      tau(  15) = (  -0.0468094   0.2832799   0.5033806  )
        16        I      tau(  16) = (  -0.0583718   0.4654591   0.5033806  )
        17        I      tau(  17) = (  -0.2219229   0.3843829   0.5033806  )
        18        Cr     tau(  18) = (  -0.1635521   0.6609878   0.4295967  )
        19        Cr     tau(  19) = (  -0.3271041   0.7554146   0.4295967  )
        20        I      tau(  20) = (  -0.1167427   0.5665603   0.3558127  )
        21        I      tau(  21) = (  -0.2687333   0.6676634   0.3558127  )
        22        I      tau(  22) = (  -0.4322843   0.7487396   0.3558127  )
        23        I      tau(  23) = (  -0.2103614   0.5665604   0.5033806  )
        24        I      tau(  24) = (  -0.2219239   0.7487396   0.5033806  )
        25        I      tau(  25) = (  -0.3854750   0.6676633   0.5033806  )
        26        Cr     tau(  26) = (   0.4906562   0.0944268   0.4295967  )
        27        Cr     tau(  27) = (   0.3271041   0.1888536   0.4295967  )
        28        I      tau(  28) = (   0.5374655  -0.0000006   0.3558127  )
        29        I      tau(  29) = (   0.3854749   0.1011024   0.3558127  )
        30        I      tau(  30) = (   0.2219239   0.1821787   0.3558127  )
        31        I      tau(  31) = (   0.4438468  -0.0000005   0.5033806  )
        32        I      tau(  32) = (   0.4322844   0.1821786   0.5033806  )
        33        I      tau(  33) = (   0.2687332   0.1011024   0.5033806  )
        34        Cr     tau(  34) = (   0.1635521   0.4721341   0.4295967  )
        35        I      tau(  35) = (   0.3739135   0.2832798   0.3558127  )
        36        I      tau(  36) = (   0.2219229   0.3843829   0.3558127  )
        37        I      tau(  37) = (   0.0583719   0.4654591   0.3558127  )
        38        I      tau(  38) = (   0.2802947   0.2832799   0.5033806  )
        39        I      tau(  39) = (   0.2687323   0.4654591   0.5033806  )
        40        I      tau(  40) = (   0.1051812   0.3843829   0.5033806  )
        41        Cr     tau(  41) = (   0.1635521   0.6609878   0.4295967  )
        42        Cr     tau(  42) = (   0.0000000   0.7554146   0.4295967  )
        43        I      tau(  43) = (   0.2103614   0.5665603   0.3558127  )
        44        I      tau(  44) = (   0.0583708   0.6676634   0.3558127  )
        45        I      tau(  45) = (  -0.1051802   0.7487396   0.3558127  )
        46        I      tau(  46) = (   0.1167427   0.5665604   0.5033806  )
        47        I      tau(  47) = (   0.1051802   0.7487396   0.5033806  )
        48        I      tau(  48) = (  -0.0583709   0.6676633   0.5033806  )
        49        Cr     tau(  49) = (   0.8177603   0.0944268   0.4295967  )
        50        Cr     tau(  50) = (   0.6542082   0.1888536   0.4295967  )
        51        I      tau(  51) = (   0.8645697  -0.0000006   0.3558127  )
        52        I      tau(  52) = (   0.7125790   0.1011024   0.3558127  )
        53        I      tau(  53) = (   0.5490281   0.1821787   0.3558127  )
        54        I      tau(  54) = (   0.7709509  -0.0000005   0.5033806  )
        55        I      tau(  55) = (   0.7593885   0.1821786   0.5033806  )
        56        I      tau(  56) = (   0.5958374   0.1011024   0.5033806  )
        57        Cr     tau(  57) = (   0.6542082   0.3777073   0.4295967  )
        58        Cr     tau(  58) = (   0.4906562   0.4721341   0.4295967  )
        59        I      tau(  59) = (   0.7010176   0.2832798   0.3558127  )
        60        I      tau(  60) = (   0.5490270   0.3843829   0.3558127  )
        61        I      tau(  61) = (   0.3854760   0.4654591   0.3558127  )
        62        I      tau(  62) = (   0.6073989   0.2832799   0.5033806  )
        63        I      tau(  63) = (   0.5958364   0.4654591   0.5033806  )
        64        I      tau(  64) = (   0.4322853   0.3843829   0.5033806  )
        65        Cr     tau(  65) = (   0.4906562   0.6609878   0.4295967  )
        66        Cr     tau(  66) = (   0.3271041   0.7554146   0.4295967  )
        67        I      tau(  67) = (   0.5374655   0.5665603   0.3558127  )
        68        I      tau(  68) = (   0.3854749   0.6676634   0.3558127  )
        69        I      tau(  69) = (   0.2219239   0.7487396   0.3558127  )
        70        I      tau(  70) = (   0.4438468   0.5665604   0.5033806  )
        71        I      tau(  71) = (   0.4322844   0.7487396   0.5033806  )
        72        I      tau(  72) = (   0.2687332   0.6676633   0.5033806  )

     number of k points=     4
                       cart. coord. in units 2pi/alat
        k(    1) = (   0.0000000   0.0000000   0.0000000), wk =   0.2500000
        k(    2) = (   0.0000000  -0.5773503   0.0000000), wk =   0.2500000
        k(    3) = (   0.5000000  -0.2886751   0.0000000), wk =   0.2500000
        k(    4) = (  -0.5000000  -0.2886751   0.0000000), wk =   0.2500000

     Dense  grid: 17971031 G-vectors     FFT dimensions: ( 320, 320, 432)

     Smooth grid:  8351671 G-vectors     FFT dimensions: ( 240, 240, 320)

     Estimated max dynamical RAM per process >       1.67 GB

     Estimated total dynamical RAM >     213.14 GB
     Generating pointlists ...
     new r_m :   0.0531 (alat units)  2.1084 (a.u.) for type    1
     new r_m :   0.0531 (alat units)  2.1084 (a.u.) for type    2
     new r_m :   0.0531 (alat units)  2.1084 (a.u.) for type    3

     The initial density is read from file :
     ./Cr_0_0.05/Cr_0_0.save/charge-density


     negative rho (up, down):  1.304E-01 1.474E-01

     STARTING HUBBARD OCCUPATIONS:

     =================== HUBBARD OCCUPATIONS ===================
     ------------------------ ATOM    1 ------------------------
     Tr[ns(  1)] (up, down, total) =   4.25332  1.37309  5.62641
     Atomic magnetic moment for atom   1 =   2.88023
     SPIN  1
     eigenvalues:
       0.638  0.640  0.991  0.992  0.992
     eigenvectors (columns):
      -0.000  0.000 -0.955  0.236 -0.180
      -0.801  0.198  0.165  0.485 -0.238
      -0.198 -0.802 -0.031  0.257  0.501
       0.549 -0.135  0.240  0.709 -0.348
      -0.135 -0.547  0.046 -0.375 -0.734
     occupation matrix ns (before diag.):
       0.991  0.000 -0.000  0.000  0.000
       0.000  0.751 -0.000  0.165 -0.000
      -0.000 -0.000  0.752  0.000 -0.164
       0.000  0.165  0.000  0.879  0.000
       0.000 -0.000 -0.164  0.000  0.880
     SPIN  2
     eigenvalues:
       0.158  0.167  0.169  0.439  0.440
     eigenvectors (columns):
      -0.999  0.031 -0.025  0.000 -0.000
      -0.020 -0.549  0.128  0.794 -0.226
       0.010 -0.129 -0.547  0.226  0.795
      -0.030 -0.804  0.188 -0.543  0.154
      -0.014  0.188  0.805  0.154  0.541
     occupation matrix ns (before diag.):
       0.158 -0.000  0.000 -0.000 -0.000
      -0.000  0.353 -0.000 -0.127 -0.000
       0.000 -0.000  0.354 -0.000  0.126
      -0.000 -0.127 -0.000  0.254  0.000
      -0.000 -0.000  0.126  0.000  0.255

     Number of occupied Hubbard levels =    5.6264

     Atomic wfc used for Hubbard projectors are NOT orthogonalized

     Starting wfcs are  756 atomic wfcs
     Checking if some PAW data can be deallocated... 

     total cpu time spent up to now is       99.8 secs

     Self-consistent Calculation

     iteration #  1     ecut=    90.00 Ry     beta= 0.30
     Davidson diagonalization with overlap
     ethr =  1.00E-05,  avg # of iterations =  8.6

     =================== HUBBARD OCCUPATIONS ===================
     ------------------------ ATOM    1 ------------------------
     Tr[ns(  1)] (up, down, total) =   4.24234  1.39112  5.63347
     Atomic magnetic moment for atom   1 =   2.85122
     SPIN  1
     eigenvalues:
       0.633  0.635  0.991  0.992  0.992
     eigenvectors (columns):
      -0.000  0.000 -0.950  0.246 -0.191
      -0.801  0.200  0.173  0.481 -0.240
      -0.199 -0.802 -0.032  0.261  0.498
       0.548 -0.136  0.253  0.702 -0.351
      -0.136 -0.547  0.048 -0.382 -0.731
     occupation matrix ns (before diag.):
       0.991  0.000 -0.000  0.000  0.000
       0.000  0.748 -0.000  0.167 -0.000
      -0.000 -0.000  0.748  0.000 -0.166
       0.000  0.167  0.000  0.877  0.000
       0.000 -0.000 -0.166  0.000  0.878
     SPIN  2
     eigenvalues:
       0.161  0.170  0.172  0.444  0.445
     eigenvectors (columns):
      -0.999  0.031 -0.026  0.000 -0.000
      -0.020 -0.548  0.129  0.794 -0.226
       0.010 -0.129 -0.547  0.226  0.796
      -0.031 -0.803  0.189 -0.542  0.154
      -0.015  0.189  0.805  0.154  0.541
     occupation matrix ns (before diag.):
       0.161 -0.000  0.000 -0.000 -0.000
      -0.000  0.357 -0.000 -0.127 -0.000
       0.000 -0.000  0.358 -0.000  0.127
      -0.000 -0.127 -0.000  0.257  0.000
      -0.000 -0.000  0.127  0.000  0.258

     Number of occupied Hubbard levels =    5.6335

     Threshold (ethr) on eigenvalues was too large:
     Diagonalizing with lowered threshold

     Davidson diagonalization with overlap
     ethr =  1.85E-09,  avg # of iterations =  5.6

     negative rho (up, down):  1.304E-01 1.474E-01

     total cpu time spent up to now is      687.6 secs

     total energy              =  -24931.16810335 Ry
     estimated scf accuracy    <       0.00001104 Ry

     total magnetization       =    54.00 Bohr mag/cell
     absolute magnetization    =    65.36 Bohr mag/cell

     iteration #  2     ecut=    90.00 Ry     beta= 0.30
     Davidson diagonalization with overlap
     ethr =  1.75E-09,  avg # of iterations =  3.0

     negative rho (up, down):  1.304E-01 1.474E-01

     total cpu time spent up to now is      784.6 secs

     total energy              =  -24931.16810726 Ry
     estimated scf accuracy    <       0.00000806 Ry

     total magnetization       =    54.00 Bohr mag/cell
     absolute magnetization    =    65.35 Bohr mag/cell

     iteration #  3     ecut=    90.00 Ry     beta= 0.30
     Davidson diagonalization with overlap
     ethr =  1.28E-09,  avg # of iterations =  3.8

     negative rho (up, down):  1.305E-01 1.474E-01

     total cpu time spent up to now is      886.2 secs

     total energy              =  -24931.16811452 Ry
     estimated scf accuracy    <       0.00000582 Ry

     total magnetization       =    54.00 Bohr mag/cell
     absolute magnetization    =    65.35 Bohr mag/cell

     iteration #  4     ecut=    90.00 Ry     beta= 0.30
     Davidson diagonalization with overlap
     ethr =  9.24E-10,  avg # of iterations =  5.8

     negative rho (up, down):  1.305E-01 1.474E-01

     total cpu time spent up to now is     1012.5 secs

     total energy              =  -24931.16811788 Ry
     estimated scf accuracy    <       0.00000071 Ry

     total magnetization       =    54.00 Bohr mag/cell
     absolute magnetization    =    65.34 Bohr mag/cell

     iteration #  5     ecut=    90.00 Ry     beta= 0.30
     Davidson diagonalization with overlap
     ethr =  1.12E-10,  avg # of iterations =  6.1

     negative rho (up, down):  1.305E-01 1.474E-01

     total cpu time spent up to now is     1146.4 secs

     total energy              =  -24931.16811834 Ry
     estimated scf accuracy    <       0.00000065 Ry

     total magnetization       =    54.00 Bohr mag/cell
     absolute magnetization    =    65.34 Bohr mag/cell

     iteration #  6     ecut=    90.00 Ry     beta= 0.30
     Davidson diagonalization with overlap
     ethr =  1.04E-10,  avg # of iterations =  4.6

     negative rho (up, down):  1.305E-01 1.474E-01

     total cpu time spent up to now is     1261.5 secs

     total energy              =  -24931.16811852 Ry
     estimated scf accuracy    <       0.00000008 Ry

     total magnetization       =    54.00 Bohr mag/cell
     absolute magnetization    =    65.34 Bohr mag/cell

     iteration #  7     ecut=    90.00 Ry     beta= 0.30
     Davidson diagonalization with overlap
     ethr =  1.25E-11,  avg # of iterations =  5.5

     negative rho (up, down):  1.305E-01 1.474E-01

     total cpu time spent up to now is     1395.5 secs

     total energy              =  -24931.16811856 Ry
     estimated scf accuracy    <       0.00000004 Ry

     total magnetization       =    54.00 Bohr mag/cell
     absolute magnetization    =    65.34 Bohr mag/cell

     iteration #  8     ecut=    90.00 Ry     beta= 0.30
     Davidson diagonalization with overlap
     ethr =  5.62E-12,  avg # of iterations =  3.0

     negative rho (up, down):  1.305E-01 1.474E-01

     total cpu time spent up to now is     1501.2 secs

     total energy              =  -24931.16811857 Ry
     estimated scf accuracy    <       0.00000001 Ry

     total magnetization       =    54.00 Bohr mag/cell
     absolute magnetization    =    65.34 Bohr mag/cell

     iteration #  9     ecut=    90.00 Ry     beta= 0.30
     Davidson diagonalization with overlap
     ethr =  2.04E-12,  avg # of iterations =  4.5

     negative rho (up, down):  1.305E-01 1.474E-01

     total cpu time spent up to now is     1625.0 secs

     total energy              =  -24931.16811858 Ry
     estimated scf accuracy    <          3.3E-09 Ry

     total magnetization       =    54.00 Bohr mag/cell
     absolute magnetization    =    65.34 Bohr mag/cell

     iteration # 10     ecut=    90.00 Ry     beta= 0.30
     Davidson diagonalization with overlap
     ethr =  5.17E-13,  avg # of iterations =  3.2

     negative rho (up, down):  1.305E-01 1.474E-01

     total cpu time spent up to now is     1738.0 secs

     total energy              =  -24931.16811858 Ry
     estimated scf accuracy    <          1.2E-09 Ry

     total magnetization       =    54.00 Bohr mag/cell
     absolute magnetization    =    65.34 Bohr mag/cell

     iteration # 11     ecut=    90.00 Ry     beta= 0.30
     Davidson diagonalization with overlap
     ethr =  1.87E-13,  avg # of iterations =  3.0

     negative rho (up, down):  1.305E-01 1.474E-01

     total cpu time spent up to now is     1847.4 secs

     total energy              =  -24931.16811858 Ry
     estimated scf accuracy    <          2.4E-10 Ry

     total magnetization       =    54.00 Bohr mag/cell
     absolute magnetization    =    65.34 Bohr mag/cell

     iteration # 12     ecut=    90.00 Ry     beta= 0.30
     Davidson diagonalization with overlap
     ethr =  1.00E-13,  avg # of iterations =  3.4

     negative rho (up, down):  1.305E-01 1.474E-01

     Magnetic moment per site  (integrated on atomic sphere of radius R)
     atom   1 (R=0.053)  charge= 12.4125  magn=  2.8894
     atom   2 (R=0.053)  charge= 12.4086  magn=  2.9137
     atom   3 (R=0.053)  charge= 12.4086  magn=  2.9136
     atom   4 (R=0.053)  charge=  4.0328  magn= -0.0666
     atom   5 (R=0.053)  charge=  4.0497  magn= -0.0522
     atom   6 (R=0.053)  charge=  4.0328  magn= -0.0666
     atom   7 (R=0.053)  charge=  4.0248  magn= -0.0723
     atom   8 (R=0.053)  charge=  4.0502  magn= -0.0558
     atom   9 (R=0.053)  charge=  4.0248  magn= -0.0723
     atom  10 (R=0.053)  charge= 12.4124  magn=  2.9203
     atom  11 (R=0.053)  charge= 12.4091  magn=  2.9162
     atom  12 (R=0.053)  charge=  4.0513  magn= -0.0515
     atom  13 (R=0.053)  charge=  4.0498  magn= -0.0517
     atom  14 (R=0.053)  charge=  4.0336  magn= -0.0637
     atom  15 (R=0.053)  charge=  4.0500  magn= -0.0523
     atom  16 (R=0.053)  charge=  4.0513  magn= -0.0523
     atom  17 (R=0.053)  charge=  4.0253  magn= -0.0709
     atom  18 (R=0.053)  charge= 12.4122  magn=  2.9227
     atom  19 (R=0.053)  charge= 12.3252  magn=  3.0168
     atom  20 (R=0.053)  charge=  4.0507  magn= -0.0525
     atom  21 (R=0.053)  charge=  4.0444  magn= -0.0604
     atom  22 (R=0.053)  charge=  4.0302  magn= -0.0695
     atom  23 (R=0.053)  charge=  4.0499  magn= -0.0520
     atom  24 (R=0.053)  charge=  4.0486  magn= -0.0515
     atom  25 (R=0.053)  charge=  4.0214  magn= -0.0769
     atom  26 (R=0.053)  charge= 12.4090  magn=  2.9162
     atom  27 (R=0.053)  charge= 12.4125  magn=  2.9203
     atom  28 (R=0.053)  charge=  4.0336  magn= -0.0637
     atom  29 (R=0.053)  charge=  4.0498  magn= -0.0514
     atom  30 (R=0.053)  charge=  4.0513  magn= -0.0515
     atom  31 (R=0.053)  charge=  4.0253  magn= -0.0709
     atom  32 (R=0.053)  charge=  4.0513  magn= -0.0522
     atom  33 (R=0.053)  charge=  4.0500  magn= -0.0520
     atom  34 (R=0.053)  charge= 12.4128  magn=  2.9234
     atom  35 (R=0.053)  charge=  4.0519  magn= -0.0459
     atom  36 (R=0.053)  charge=  4.0499  magn= -0.0475
     atom  37 (R=0.053)  charge=  4.0520  magn= -0.0492
     atom  38 (R=0.053)  charge=  4.0505  magn= -0.0471
     atom  39 (R=0.053)  charge=  4.0523  magn= -0.0452
     atom  40 (R=0.053)  charge=  4.0506  magn= -0.0506
     atom  41 (R=0.053)  charge= 12.4124  magn=  2.9258
     atom  42 (R=0.053)  charge= 12.3292  magn=  3.0258
     atom  43 (R=0.053)  charge=  4.0514  magn= -0.0504
     atom  44 (R=0.053)  charge=  4.0448  magn= -0.0597
     atom  45 (R=0.053)  charge=  4.0486  magn= -0.0544
     atom  46 (R=0.053)  charge=  4.0507  magn= -0.0502
     atom  47 (R=0.053)  charge=  4.0495  magn= -0.0482
     atom  48 (R=0.053)  charge=  4.0467  magn= -0.0568
     atom  49 (R=0.053)  charge= 12.3252  magn=  3.0168
     atom  50 (R=0.053)  charge= 12.4122  magn=  2.9227
     atom  51 (R=0.053)  charge=  4.0302  magn= -0.0695
     atom  52 (R=0.053)  charge=  4.0444  magn= -0.0604
     atom  53 (R=0.053)  charge=  4.0507  magn= -0.0525
     atom  54 (R=0.053)  charge=  4.0214  magn= -0.0769
     atom  55 (R=0.053)  charge=  4.0486  magn= -0.0515
     atom  56 (R=0.053)  charge=  4.0499  magn= -0.0520
     atom  57 (R=0.053)  charge= 12.3292  magn=  3.0259
     atom  58 (R=0.053)  charge= 12.4125  magn=  2.9258
     atom  59 (R=0.053)  charge=  4.0486  magn= -0.0544
     atom  60 (R=0.053)  charge=  4.0448  magn= -0.0596
     atom  61 (R=0.053)  charge=  4.0513  magn= -0.0471
     atom  62 (R=0.053)  charge=  4.0467  magn= -0.0568
     atom  63 (R=0.053)  charge=  4.0495  magn= -0.0480
     atom  64 (R=0.053)  charge=  4.0506  magn= -0.0470
     atom  65 (R=0.053)  charge= 12.3290  magn=  3.0299
     atom  66 (R=0.053)  charge= 12.3290  magn=  3.0299
     atom  67 (R=0.053)  charge=  4.0480  magn= -0.0553
     atom  68 (R=0.053)  charge=  4.0397  magn= -0.0675
     atom  69 (R=0.053)  charge=  4.0479  magn= -0.0555
     atom  70 (R=0.053)  charge=  4.0471  magn= -0.0558
     atom  71 (R=0.053)  charge=  4.0465  magn= -0.0471
     atom  72 (R=0.053)  charge=  4.0471  magn= -0.0559

     total cpu time spent up to now is     1954.9 secs

     End of self-consistent calculation

     =================== HUBBARD OCCUPATIONS ===================
     ------------------------ ATOM    1 ------------------------
     Tr[ns(  1)] (up, down, total) =   4.23690  1.39746  5.63436
     Atomic magnetic moment for atom   1 =   2.83945
     SPIN  1
     eigenvalues:
       0.630  0.632  0.991  0.992  0.992
     eigenvectors (columns):
      -0.000  0.000 -0.949  0.250 -0.191
      -0.801  0.199  0.175  0.480 -0.241
      -0.199 -0.802 -0.031  0.262  0.498
       0.549 -0.136  0.255  0.701 -0.352
      -0.136 -0.547  0.046 -0.383 -0.731
     occupation matrix ns (before diag.):
       0.991  0.000 -0.000  0.000  0.000
       0.000  0.746 -0.000  0.168 -0.000
      -0.000 -0.000  0.746  0.000 -0.167
       0.000  0.168  0.000  0.876  0.000
       0.000 -0.000 -0.167  0.000  0.877
     SPIN  2
     eigenvalues:
       0.161  0.171  0.172  0.446  0.447
     eigenvectors (columns):
      -0.999  0.032 -0.026  0.000 -0.000
      -0.020 -0.548  0.129  0.795 -0.225
       0.010 -0.130 -0.547  0.225  0.796
      -0.031 -0.803  0.189 -0.543  0.153
      -0.015  0.190  0.805  0.153  0.541
     occupation matrix ns (before diag.):
       0.161 -0.000  0.000 -0.000 -0.000
      -0.000  0.359 -0.000 -0.128 -0.000
       0.000 -0.000  0.360 -0.000  0.128
      -0.000 -0.128 -0.000  0.258  0.000
      -0.000 -0.000  0.128  0.000  0.259

     Number of occupied Hubbard levels =    5.6344

 ------ SPIN UP ------------


          k = 0.0000 0.0000 0.0000 (****** PWs)   bands (ev):

   -76.1370 -76.1369 -76.0608 -76.0608 -76.0125 -76.0122 -75.9807 -75.9807
   -75.9322 -75.9300 -75.9300 -75.9203 -75.8507 -75.8507 -75.8504 -75.8500
   -75.7725 -75.7724 -47.4875 -47.4866 -47.4632 -47.4621 -47.4578 -47.4574
   -47.4084 -47.4084 -47.3880 -47.3880 -47.3822 -47.3822 -47.3520 -47.3516
   -47.3455 -47.3452 -47.3393 -47.3390 -47.3273 -47.3272 -47.3059 -47.3059
   -47.3014 -47.3013 -47.2706 -47.2696 -47.2696 -47.2642 -47.2631 -47.2631
   -47.2615 -47.2582 -47.2559 -47.2559 -47.2519 -47.2491 -47.1888 -47.1888
   -47.1885 -47.1881 -47.1835 -47.1835 -47.1816 -47.1813 -47.1795 -47.1793
   -47.1763 -47.1763 -47.1102 -47.1099 -47.1064 -47.1044 -47.0973 -47.0971
   -16.2046 -16.0678 -16.0165 -15.9908 -15.9549 -15.8951 -15.8619 -15.7102
   -15.6638 -15.6337 -15.6072 -15.4953 -15.4790 -15.4549 -15.4252 -15.4087
   -15.3804 -15.3555 -15.3465 -15.3332 -15.3321 -15.3109 -15.2942 -15.2754
   -15.2695 -15.2479 -15.2382 -15.2360 -15.2034 -15.1889 -15.1757 -15.1718
   -15.1654 -15.1538 -15.1265 -15.1214 -15.1120 -15.1046 -15.0983 -15.0829
   -15.0765 -15.0630 -15.0312 -15.0221 -15.0068 -14.9957 -14.9860 -14.9101
   -14.8807 -14.8793 -14.8183 -14.8159 -14.7420 -14.7135  -7.9479  -7.8740
    -7.8370  -7.7907  -7.7801  -7.7423  -7.6950  -7.4066  -7.3792  -7.3756
    -7.3655  -7.3294  -7.2907  -7.2644  -7.2338  -7.2191  -7.1428  -7.1357
    -6.9818  -6.9472  -6.9409  -6.8971  -6.8800  -6.8579  -6.8480  -6.8383
    -6.8110  -6.8105  -6.7732  -6.7489  -6.7287  -6.7220  -6.7038  -6.6872
    -6.6836  -6.6715  -6.6485  -6.6404  -6.6285  -6.6031  -6.5881  -6.5877
    -6.5639  -6.5393  -6.5054  -6.4945  -6.4730  -6.4654  -6.4272  -6.4048
    -6.3968  -6.3760  -6.3418  -6.3405  -6.3357  -6.2970  -6.2830  -6.2662
    -6.2545  -6.2336  -6.1927  -6.1634  -6.1524  -6.1218  -6.1180  -6.0803
    -6.0521  -6.0284  -6.0222  -5.9876  -5.9860  -5.9805  -5.9711  -5.9364
    -5.9275  -5.9164  -5.8886  -5.8859  -5.8558  -5.8431  -5.8055  -5.7739
    -5.6810  -5.6508  -5.6270  -5.6202  -5.5750  -5.5163  -5.4973  -5.4709
    -5.4580  -5.4284  -5.3853  -5.3629  -5.3479  -5.3189  -5.2871  -5.2652
    -5.2460  -5.2280  -5.2117  -5.1981  -5.1765  -5.1722  -5.1519  -5.1401
    -5.1252  -5.1206  -5.0622  -5.0452  -5.0256  -5.0199  -5.0187  -5.0067
    -4.9884  -4.9790  -4.9510  -4.9454  -4.9283  -4.9116  -4.8746  -4.8671
    -4.8531  -4.8396  -4.8185  -4.7862  -4.7771  -4.7667  -4.7370  -4.7127
    -4.7058  -4.6935  -4.6844  -4.6766  -4.6759  -4.6262  -4.6089  -4.5535
    -4.5376  -4.5149  -4.4839  -4.4470  -4.4388  -4.4322  -4.3986  -4.3958
    -4.3722  -4.3697  -4.3553  -4.3476  -4.3447  -4.3203  -4.3166  -4.2881
    -4.2832  -4.2375  -4.2192  -4.2144  -4.1864  -4.1834  -4.1540  -4.1269
    -4.1039  -4.0838  -4.0777  -4.0508  -4.0133  -4.0081  -4.0025  -3.9847
    -3.9528  -3.9497  -3.9311  -3.9259  -3.9202  -3.9110  -3.8959  -3.8905
    -3.8831  -3.8796  -3.8786  -3.8515  -3.8389  -3.8353  -3.8280  -3.8268
    -3.8177  -3.8136  -3.7911  -3.7835  -3.7668  -3.7636  -3.7490  -3.7282
    -3.7194  -3.7011  -3.6932  -3.6846  -3.6356  -3.6256  -3.6158  -3.5997
    -3.5965  -3.5771  -3.5028  -3.4962  -3.4886  -3.4703  -3.4401  -3.4332
    -3.4180  -3.3950  -3.3513  -3.3486  -3.3399  -3.3239

          k = 0.0000-0.5774 0.0000 (****** PWs)   bands (ev):

   -76.1370 -76.1369 -76.0608 -76.0608 -76.0125 -76.0122 -75.9807 -75.9807
   -75.9322 -75.9300 -75.9300 -75.9203 -75.8507 -75.8507 -75.8504 -75.8500
   -75.7725 -75.7724 -47.4875 -47.4866 -47.4632 -47.4621 -47.4578 -47.4574
   -47.4084 -47.4084 -47.3880 -47.3880 -47.3822 -47.3822 -47.3520 -47.3516
   -47.3455 -47.3452 -47.3393 -47.3390 -47.3273 -47.3272 -47.3059 -47.3059
   -47.3014 -47.3013 -47.2706 -47.2696 -47.2696 -47.2642 -47.2631 -47.2631
   -47.2615 -47.2582 -47.2559 -47.2559 -47.2519 -47.2491 -47.1888 -47.1888
   -47.1885 -47.1881 -47.1835 -47.1835 -47.1816 -47.1813 -47.1795 -47.1793
   -47.1763 -47.1763 -47.1102 -47.1099 -47.1064 -47.1044 -47.0973 -47.0971
   -16.1935 -16.0986 -16.0245 -15.9978 -15.9274 -15.8640 -15.8452 -15.7597
   -15.6899 -15.5930 -15.5686 -15.5202 -15.5163 -15.4637 -15.4513 -15.3950
   -15.3755 -15.3603 -15.3512 -15.3236 -15.3121 -15.3099 -15.2930 -15.2748
   -15.2517 -15.2411 -15.2302 -15.2174 -15.2063 -15.1960 -15.1816 -15.1725
   -15.1607 -15.1480 -15.1425 -15.1259 -15.1218 -15.1027 -15.1011 -15.0834
   -15.0755 -15.0622 -15.0339 -15.0283 -15.0037 -14.9958 -14.9872 -14.9087
   -14.8800 -14.8790 -14.8170 -14.8167 -14.7420 -14.7134  -7.9329  -7.8809
    -7.8177  -7.7820  -7.7659  -7.7042  -7.6418  -7.5967  -7.5257  -7.3729
    -7.3395  -7.2834  -7.2733  -7.2604  -7.2133  -7.1992  -7.1363  -7.1300
    -6.9739  -6.9476  -6.9352  -6.8959  -6.8738  -6.8651  -6.8374  -6.8360
    -6.8209  -6.8050  -6.7835  -6.7624  -6.7336  -6.7286  -6.7245  -6.7051
    -6.6971  -6.6756  -6.6517  -6.6447  -6.6285  -6.5972  -6.5630  -6.5482
    -6.5265  -6.5128  -6.4891  -6.4824  -6.4560  -6.4412  -6.4252  -6.4132
    -6.3979  -6.3897  -6.3800  -6.3324  -6.3216  -6.2921  -6.2789  -6.2683
    -6.2484  -6.2237  -6.1896  -6.1835  -6.1579  -6.1067  -6.0815  -6.0745
    -6.0581  -6.0408  -6.0204  -5.9992  -5.9802  -5.9773  -5.9591  -5.9188
    -5.9083  -5.8958  -5.8615  -5.8431  -5.8237  -5.7993  -5.7764  -5.7175
    -5.6488  -5.6189  -5.5961  -5.5918  -5.5701  -5.5521  -5.5316  -5.5251
    -5.5075  -5.4894  -5.4679  -5.4463  -5.4369  -5.4064  -5.3880  -5.3634
    -5.3458  -5.3181  -5.3030  -5.2642  -5.2424  -5.2276  -5.1994  -5.1483
    -5.1316  -5.1138  -5.0919  -5.0743  -5.0505  -5.0246  -5.0046  -4.9718
    -4.9505  -4.9157  -4.9043  -4.8934  -4.8761  -4.8522  -4.8123  -4.8002
    -4.7816  -4.7641  -4.7439  -4.7335  -4.7084  -4.6912  -4.6835  -4.6695
    -4.6635  -4.6403  -4.6181  -4.6033  -4.5963  -4.5659  -4.5529  -4.5424
    -4.5339  -4.5240  -4.5038  -4.4905  -4.4701  -4.4442  -4.4410  -4.4340
    -4.4113  -4.4056  -4.3820  -4.3731  -4.3449  -4.3045  -4.2916  -4.2700
    -4.2609  -4.2494  -4.2262  -4.2061  -4.1936  -4.1770  -4.1729  -4.1669
    -4.1570  -4.1440  -4.1174  -4.1094  -4.0839  -4.0624  -4.0401  -4.0014
    -3.9795  -3.9683  -3.9479  -3.9286  -3.9219  -3.9077  -3.8905  -3.8831
    -3.8799  -3.8687  -3.8550  -3.8529  -3.8449  -3.8355  -3.8286  -3.8138
    -3.8093  -3.7893  -3.7845  -3.7776  -3.7676  -3.7502  -3.7246  -3.7103
    -3.6896  -3.6819  -3.6601  -3.6441  -3.6364  -3.6275  -3.6160  -3.6021
    -3.5984  -3.5801  -3.5696  -3.5310  -3.4750  -3.4648  -3.4242  -3.4222
    -3.4089  -3.3960  -3.3708  -3.3515  -3.3419  -3.3278

          k = 0.5000-0.2887 0.0000 (****** PWs)   bands (ev):

   -76.1370 -76.1369 -76.0608 -76.0608 -76.0125 -76.0122 -75.9807 -75.9807
   -75.9322 -75.9300 -75.9300 -75.9203 -75.8507 -75.8507 -75.8504 -75.8500
   -75.7725 -75.7724 -47.4875 -47.4866 -47.4632 -47.4621 -47.4578 -47.4574
   -47.4084 -47.4084 -47.3880 -47.3880 -47.3822 -47.3822 -47.3520 -47.3516
   -47.3455 -47.3452 -47.3393 -47.3390 -47.3273 -47.3272 -47.3059 -47.3059
   -47.3014 -47.3013 -47.2706 -47.2696 -47.2696 -47.2642 -47.2631 -47.2631
   -47.2615 -47.2582 -47.2559 -47.2559 -47.2519 -47.2491 -47.1888 -47.1888
   -47.1885 -47.1881 -47.1835 -47.1835 -47.1816 -47.1813 -47.1795 -47.1793
   -47.1763 -47.1763 -47.1102 -47.1099 -47.1064 -47.1044 -47.0973 -47.0971
   -16.1871 -16.1185 -16.0221 -15.9706 -15.9337 -15.8683 -15.8515 -15.7685
   -15.6568 -15.6292 -15.5556 -15.5249 -15.5194 -15.4713 -15.4493 -15.3966
   -15.3642 -15.3543 -15.3499 -15.3125 -15.3087 -15.3002 -15.2966 -15.2773
   -15.2518 -15.2480 -15.2275 -15.2209 -15.2176 -15.2023 -15.1950 -15.1643
   -15.1627 -15.1441 -15.1389 -15.1252 -15.1222 -15.1034 -15.1030 -15.0765
   -15.0743 -15.0681 -15.0306 -15.0300 -15.0026 -14.9977 -14.9849 -14.9073
   -14.8803 -14.8796 -14.8184 -14.8155 -14.7421 -14.7133  -7.9267  -7.8932
    -7.7952  -7.7915  -7.7449  -7.7044  -7.6976  -7.5589  -7.5435  -7.3740
    -7.3314  -7.2913  -7.2486  -7.2440  -7.2250  -7.2191  -7.1422  -7.1247
    -6.9709  -6.9456  -6.9403  -6.8940  -6.8780  -6.8705  -6.8432  -6.8325
    -6.8260  -6.8113  -6.7997  -6.7666  -6.7641  -6.7532  -6.7100  -6.6971
    -6.6697  -6.6671  -6.6231  -6.6211  -6.5999  -6.5878  -6.5612  -6.5229
    -6.5200  -6.5047  -6.5007  -6.4996  -6.4686  -6.4540  -6.4318  -6.4079
    -6.3916  -6.3748  -6.3728  -6.3598  -6.3089  -6.3066  -6.2877  -6.2801
    -6.2664  -6.2482  -6.1950  -6.1835  -6.1239  -6.1158  -6.0751  -6.0648
    -6.0369  -6.0341  -6.0214  -5.9955  -5.9935  -5.9681  -5.9456  -5.9151
    -5.9098  -5.8989  -5.8977  -5.8714  -5.8629  -5.8421  -5.7923  -5.6711
    -5.6471  -5.6077  -5.5728  -5.5539  -5.5457  -5.5264  -5.5225  -5.5086
    -5.5040  -5.4890  -5.4768  -5.4653  -5.4470  -5.4319  -5.3947  -5.3777
    -5.3650  -5.3455  -5.3302  -5.2644  -5.2267  -5.2016  -5.1821  -5.1535
    -5.1261  -5.0842  -5.0790  -5.0612  -5.0477  -5.0246  -5.0003  -4.9954
    -4.9446  -4.9386  -4.9139  -4.8750  -4.8719  -4.8380  -4.8113  -4.7997
    -4.7845  -4.7782  -4.7345  -4.7329  -4.7164  -4.7006  -4.6860  -4.6655
    -4.6629  -4.6301  -4.6280  -4.6033  -4.5952  -4.5804  -4.5676  -4.5620
    -4.5464  -4.5082  -4.4711  -4.4705  -4.4587  -4.4579  -4.4377  -4.4258
    -4.4191  -4.4059  -4.4049  -4.3867  -4.3583  -4.2928  -4.2851  -4.2739
    -4.2653  -4.2327  -4.2205  -4.2105  -4.1991  -4.1834  -4.1735  -4.1576
    -4.1483  -4.1325  -4.1274  -4.0959  -4.0802  -4.0778  -4.0232  -4.0101
    -3.9883  -3.9673  -3.9394  -3.9308  -3.9119  -3.9104  -3.9060  -3.8923
    -3.8814  -3.8789  -3.8654  -3.8585  -3.8463  -3.8330  -3.8236  -3.8194
    -3.8059  -3.7963  -3.7886  -3.7703  -3.7624  -3.7391  -3.7250  -3.7071
    -3.6909  -3.6876  -3.6661  -3.6502  -3.6295  -3.6236  -3.6219  -3.6103
    -3.5750  -3.5740  -3.5552  -3.5304  -3.4952  -3.4495  -3.4461  -3.4245
    -3.4216  -3.3853  -3.3595  -3.3570  -3.3329  -3.3258

          k =-0.5000-0.2887 0.0000 (****** PWs)   bands (ev):

   -76.1370 -76.1369 -76.0608 -76.0608 -76.0125 -76.0122 -75.9807 -75.9807
   -75.9322 -75.9300 -75.9300 -75.9203 -75.8507 -75.8507 -75.8504 -75.8500
   -75.7725 -75.7724 -47.4875 -47.4866 -47.4632 -47.4621 -47.4578 -47.4574
   -47.4084 -47.4084 -47.3880 -47.3880 -47.3822 -47.3822 -47.3520 -47.3516
   -47.3455 -47.3452 -47.3393 -47.3390 -47.3273 -47.3272 -47.3059 -47.3059
   -47.3014 -47.3013 -47.2706 -47.2696 -47.2696 -47.2642 -47.2631 -47.2631
   -47.2615 -47.2582 -47.2559 -47.2559 -47.2519 -47.2491 -47.1888 -47.1888
   -47.1885 -47.1881 -47.1835 -47.1835 -47.1816 -47.1813 -47.1795 -47.1793
   -47.1763 -47.1763 -47.1102 -47.1099 -47.1064 -47.1044 -47.0973 -47.0971
   -16.1935 -16.0985 -16.0246 -15.9979 -15.9273 -15.8639 -15.8453 -15.7598
   -15.6898 -15.5930 -15.5686 -15.5204 -15.5163 -15.4635 -15.4513 -15.3950
   -15.3752 -15.3604 -15.3514 -15.3236 -15.3122 -15.3099 -15.2929 -15.2748
   -15.2513 -15.2412 -15.2303 -15.2175 -15.2062 -15.1958 -15.1818 -15.1724
   -15.1606 -15.1485 -15.1425 -15.1259 -15.1214 -15.1025 -15.1011 -15.0838
   -15.0757 -15.0620 -15.0337 -15.0283 -15.0039 -14.9957 -14.9871 -14.9087
   -14.8800 -14.8790 -14.8170 -14.8167 -14.7420 -14.7134  -7.9330  -7.8806
    -7.8180  -7.7819  -7.7659  -7.7045  -7.6412  -7.5969  -7.5257  -7.3728
    -7.3394  -7.2841  -7.2733  -7.2604  -7.2131  -7.1991  -7.1362  -7.1301
    -6.9739  -6.9472  -6.9353  -6.8966  -6.8727  -6.8660  -6.8364  -6.8356
    -6.8215  -6.8061  -6.7826  -6.7630  -6.7336  -6.7289  -6.7240  -6.7052
    -6.6974  -6.6756  -6.6518  -6.6445  -6.6286  -6.5968  -6.5632  -6.5478
    -6.5251  -6.5131  -6.4870  -6.4835  -6.4574  -6.4419  -6.4261  -6.4119
    -6.3977  -6.3893  -6.3812  -6.3327  -6.3217  -6.2919  -6.2796  -6.2690
    -6.2474  -6.2238  -6.1897  -6.1827  -6.1584  -6.1095  -6.0825  -6.0711
    -6.0530  -6.0400  -6.0200  -5.9996  -5.9818  -5.9802  -5.9598  -5.9183
    -5.9084  -5.8954  -5.8615  -5.8436  -5.8233  -5.8000  -5.7772  -5.7167
    -5.6480  -5.6198  -5.5978  -5.5896  -5.5721  -5.5529  -5.5292  -5.5245
    -5.5077  -5.4891  -5.4675  -5.4462  -5.4376  -5.4069  -5.3871  -5.3633
    -5.3458  -5.3188  -5.3031  -5.2653  -5.2423  -5.2261  -5.1996  -5.1480
    -5.1334  -5.1142  -5.0922  -5.0734  -5.0504  -5.0231  -5.0049  -4.9715
    -4.9509  -4.9155  -4.9046  -4.8938  -4.8755  -4.8508  -4.8124  -4.8006
    -4.7798  -4.7652  -4.7445  -4.7329  -4.7079  -4.6898  -4.6839  -4.6713
    -4.6653  -4.6412  -4.6174  -4.6040  -4.5967  -4.5660  -4.5532  -4.5416
    -4.5343  -4.5242  -4.5053  -4.4895  -4.4701  -4.4464  -4.4417  -4.4320
    -4.4087  -4.4040  -4.3808  -4.3746  -4.3443  -4.3043  -4.2911  -4.2726
    -4.2606  -4.2508  -4.2253  -4.2058  -4.1937  -4.1765  -4.1721  -4.1667
    -4.1576  -4.1464  -4.1177  -4.1096  -4.0814  -4.0622  -4.0406  -4.0016
    -3.9791  -3.9659  -3.9493  -3.9311  -3.9207  -3.9067  -3.8936  -3.8813
    -3.8806  -3.8686  -3.8546  -3.8506  -3.8445  -3.8362  -3.8282  -3.8178
    -3.8097  -3.7888  -3.7847  -3.7758  -3.7665  -3.7510  -3.7258  -3.7115
    -3.6879  -3.6813  -3.6596  -3.6456  -3.6353  -3.6274  -3.6155  -3.6027
    -3.5987  -3.5788  -3.5701  -3.5319  -3.4760  -3.4641  -3.4239  -3.4208
    -3.4101  -3.3960  -3.3702  -3.3516  -3.3430  -3.3273

 ------ SPIN DOWN ----------


          k = 0.0000 0.0000 0.0000 (****** PWs)   bands (ev):

   -72.9790 -72.9789 -72.9722 -72.9719 -72.9177 -72.9068 -72.9066 -72.8943
   -72.8928 -72.8928 -72.8342 -72.8342 -72.8185 -72.8185 -72.8155 -72.8152
   -72.7428 -72.7427 -44.3882 -44.3869 -44.3781 -44.3778 -44.3620 -44.3604
   -44.3475 -44.3472 -44.3346 -44.3343 -44.3318 -44.3315 -44.3225 -44.3121
   -44.3120 -44.2996 -44.2981 -44.2981 -44.2877 -44.2844 -44.2840 -44.2839
   -44.2692 -44.2691 -44.2672 -44.2671 -44.2650 -44.2618 -44.2542 -44.2542
   -44.2347 -44.2347 -44.2201 -44.2198 -44.2188 -44.2187 -44.2122 -44.2122
   -44.1954 -44.1954 -44.1930 -44.1929 -44.1866 -44.1863 -44.1836 -44.1836
   -44.1827 -44.1824 -44.1427 -44.1423 -44.1180 -44.1159 -44.1083 -44.1075
   -16.2119 -16.0791 -16.0317 -16.0025 -15.9701 -15.9092 -15.8814 -15.7342
   -15.6898 -15.6625 -15.6382 -15.5368 -15.5155 -15.5032 -15.4615 -15.4505
   -15.4284 -15.4033 -15.3926 -15.3740 -15.3730 -15.3579 -15.3431 -15.3208
   -15.3177 -15.2951 -15.2870 -15.2848 -15.2517 -15.2367 -15.2266 -15.2204
   -15.2131 -15.2020 -15.1748 -15.1744 -15.1636 -15.1515 -15.1451 -15.1331
   -15.1279 -15.1098 -15.0897 -15.0741 -15.0627 -15.0438 -15.0351 -14.9690
   -14.9508 -14.9446 -14.8862 -14.8832 -14.8111 -14.7843  -7.6644  -7.6179
    -7.5759  -7.5330  -7.5263  -7.4864  -7.4406  -7.1621  -7.1315  -7.1309
    -7.1178  -7.0832  -7.0441  -7.0188  -6.9958  -6.9770  -6.9053  -6.9026
    -6.8572  -6.8495  -6.8120  -6.7786  -6.7583  -6.7256  -6.6718  -6.6431
    -6.6290  -6.6102  -6.6003  -6.5554  -6.5459  -6.5457  -6.5272  -6.5246
    -6.4731  -6.4660  -6.4505  -6.4225  -6.4162  -6.4049  -6.3772  -6.3508
    -6.3432  -6.2984  -6.2965  -6.2934  -6.2535  -6.1865  -6.1477  -6.1362
    -6.1304  -6.0569  -6.0447  -6.0244  -6.0012  -5.9938  -5.9461  -5.9370
    -5.9360  -5.9272  -5.8849  -5.8804  -5.8564  -5.8122  -5.7946  -5.6201
    -5.6049  -5.5933  -5.5781  -5.5697  -5.5535  -5.5490  -5.5314  -5.5040
    -5.5015  -5.4978  -5.4846  -5.4538  -5.4002  -5.3974  -5.3846  -5.3629
    -5.3090  -5.2774  -5.2260  -5.2112  -5.1870  -5.1463  -5.1072  -5.1056
    -5.0956  -5.0613  -5.0250  -5.0177  -4.9821  -4.9788  -4.9655  -4.9590
    -4.9452  -4.9229  -4.9090  -4.8773  -4.8602  -4.8479  -4.8195  -4.8186
    -4.8005  -4.7857  -4.7721  -4.7713  -4.7481  -4.7462  -4.7219  -4.7147
    -4.6932  -4.6766  -4.6764  -4.6324  -4.6309  -4.5721  -4.5614  -4.5538
    -4.5502  -4.5453  -4.4741  -4.4575  -4.4479  -4.4473  -4.4077  -4.3775
    -4.3659  -4.3480  -4.3220  -4.3157  -4.3021  -4.2893  -4.2561  -4.2456
    -4.2339  -4.2193  -4.2094  -4.1722  -4.1105  -4.0730  -4.0685  -4.0560
    -4.0548  -3.9981  -3.9966  -3.9811  -3.9803  -3.9675  -3.9189  -3.8956
    -3.8675  -3.8327  -3.8147  -3.7653  -3.7236  -3.6873  -3.6149  -3.5911
    -1.5505  -1.5442  -1.5181  -1.5085  -1.4974  -1.4814  -1.4653  -1.4576
    -1.4293  -1.4162  -1.4088  -1.4050  -1.3790  -1.3746  -1.3481  -1.3380
    -1.3287  -1.3217  -1.3191  -1.2926  -1.2858  -1.2690  -1.2556  -1.2541
    -1.2483  -1.2285  -1.2073  -1.2037  -1.1940  -1.1751  -1.1425  -1.1273
    -1.1218  -1.1112  -1.1096  -1.0947  -1.0790  -1.0776  -1.0652  -1.0565
    -1.0513  -1.0482  -1.0307  -1.0298  -1.0244  -1.0150  -1.0125  -1.0083
    -0.9904  -0.9845  -0.9732  -0.9669  -0.9525  -0.9302

          k = 0.0000-0.5774 0.0000 (****** PWs)   bands (ev):

   -72.9790 -72.9789 -72.9722 -72.9719 -72.9177 -72.9068 -72.9066 -72.8943
   -72.8928 -72.8928 -72.8342 -72.8342 -72.8185 -72.8185 -72.8155 -72.8152
   -72.7428 -72.7427 -44.3882 -44.3869 -44.3781 -44.3778 -44.3620 -44.3604
   -44.3475 -44.3472 -44.3346 -44.3343 -44.3318 -44.3315 -44.3225 -44.3121
   -44.3120 -44.2996 -44.2981 -44.2981 -44.2877 -44.2844 -44.2840 -44.2839
   -44.2692 -44.2691 -44.2672 -44.2671 -44.2650 -44.2618 -44.2542 -44.2542
   -44.2347 -44.2347 -44.2201 -44.2198 -44.2188 -44.2187 -44.2122 -44.2122
   -44.1954 -44.1954 -44.1930 -44.1929 -44.1866 -44.1863 -44.1836 -44.1836
   -44.1827 -44.1824 -44.1427 -44.1423 -44.1180 -44.1159 -44.1083 -44.1075
   -16.2010 -16.1093 -16.0387 -16.0110 -15.9424 -15.8787 -15.8639 -15.7816
   -15.7184 -15.6243 -15.6027 -15.5557 -15.5492 -15.5022 -15.4972 -15.4448
   -15.4196 -15.4045 -15.3991 -15.3653 -15.3581 -15.3567 -15.3413 -15.3229
   -15.2950 -15.2863 -15.2763 -15.2665 -15.2557 -15.2430 -15.2334 -15.2223
   -15.2099 -15.1966 -15.1949 -15.1759 -15.1710 -15.1501 -15.1483 -15.1338
   -15.1260 -15.1083 -15.0915 -15.0836 -15.0589 -15.0453 -15.0340 -14.9682
   -14.9502 -14.9436 -14.8846 -14.8842 -14.8111 -14.7842  -7.6559  -7.6141
    -7.5573  -7.5204  -7.5131  -7.4528  -7.3898  -7.3482  -7.2762  -7.1245
    -7.0927  -7.0405  -7.0267  -7.0176  -6.9712  -6.9648  -6.9040  -6.8958
    -6.8582  -6.8331  -6.8120  -6.7651  -6.7293  -6.7151  -6.6861  -6.6610
    -6.6533  -6.6331  -6.6172  -6.5946  -6.5589  -6.5504  -6.5225  -6.4917
    -6.4901  -6.4669  -6.4565  -6.4298  -6.4251  -6.3863  -6.3350  -6.3221
    -6.3123  -6.2693  -6.2502  -6.2286  -6.1964  -6.1934  -6.1661  -6.1514
    -6.1307  -6.1105  -6.0956  -6.0805  -6.0443  -6.0273  -5.9753  -5.9619
    -5.9423  -5.8975  -5.8545  -5.8029  -5.8011  -5.6628  -5.6562  -5.6333
    -5.6248  -5.6051  -5.5814  -5.5722  -5.5501  -5.5340  -5.5181  -5.5075
    -5.4808  -5.4671  -5.4511  -5.4240  -5.4166  -5.3759  -5.3520  -5.3216
    -5.2998  -5.2840  -5.2453  -5.2384  -5.2247  -5.2138  -5.1895  -5.1683
    -5.1539  -5.1273  -5.1191  -5.0964  -5.0816  -5.0787  -5.0589  -5.0313
    -5.0071  -4.9543  -4.9365  -4.9321  -4.9223  -4.8896  -4.8749  -4.8600
    -4.8420  -4.8243  -4.8147  -4.7918  -4.7030  -4.6877  -4.6723  -4.6715
    -4.6428  -4.6242  -4.5893  -4.5750  -4.5627  -4.5413  -4.4960  -4.4938
    -4.4854  -4.4689  -4.4452  -4.4435  -4.4244  -4.4094  -4.3942  -4.3438
    -4.3239  -4.3057  -4.2967  -4.2831  -4.2648  -4.2500  -4.2345  -4.2133
    -4.1744  -4.1587  -4.1525  -4.1258  -4.1059  -4.0883  -4.0830  -4.0606
    -4.0587  -4.0331  -4.0074  -3.9838  -3.9604  -3.9524  -3.9473  -3.9089
    -3.9022  -3.8663  -3.8335  -3.8102  -3.7740  -3.7673  -3.7056  -3.6394
    -1.5584  -1.5527  -1.5341  -1.5200  -1.4994  -1.4861  -1.4709  -1.4549
    -1.4435  -1.4229  -1.4055  -1.4000  -1.3790  -1.3640  -1.3564  -1.3375
    -1.3187  -1.3071  -1.2855  -1.2823  -1.2710  -1.2596  -1.2522  -1.2393
    -1.2229  -1.2038  -1.1967  -1.1865  -1.1738  -1.1651  -1.1596  -1.1424
    -1.1374  -1.1330  -1.1239  -1.1105  -1.0990  -1.0873  -1.0793  -1.0733
    -1.0629  -1.0501  -1.0411  -1.0350  -1.0275  -1.0225  -1.0111  -1.0031
    -0.9979  -0.9827  -0.9755  -0.9613  -0.9402  -0.9275

          k = 0.5000-0.2887 0.0000 (****** PWs)   bands (ev):

   -72.9790 -72.9789 -72.9722 -72.9719 -72.9177 -72.9068 -72.9066 -72.8943
   -72.8928 -72.8928 -72.8342 -72.8342 -72.8185 -72.8185 -72.8155 -72.8152
   -72.7428 -72.7427 -44.3882 -44.3869 -44.3781 -44.3778 -44.3620 -44.3604
   -44.3475 -44.3472 -44.3346 -44.3343 -44.3318 -44.3315 -44.3225 -44.3121
   -44.3120 -44.2996 -44.2981 -44.2981 -44.2877 -44.2844 -44.2840 -44.2839
   -44.2692 -44.2691 -44.2672 -44.2671 -44.2650 -44.2618 -44.2542 -44.2542
   -44.2347 -44.2347 -44.2201 -44.2198 -44.2188 -44.2187 -44.2122 -44.2122
   -44.1954 -44.1954 -44.1930 -44.1929 -44.1866 -44.1863 -44.1836 -44.1836
   -44.1827 -44.1824 -44.1427 -44.1423 -44.1180 -44.1159 -44.1083 -44.1075
   -16.1948 -16.1289 -16.0358 -15.9850 -15.9487 -15.8857 -15.8653 -15.7916
   -15.6904 -15.6592 -15.5859 -15.5608 -15.5504 -15.5058 -15.4982 -15.4463
   -15.4122 -15.3981 -15.3978 -15.3565 -15.3537 -15.3463 -15.3434 -15.3246
   -15.2980 -15.2938 -15.2739 -15.2683 -15.2676 -15.2499 -15.2457 -15.2157
   -15.2140 -15.1906 -15.1856 -15.1761 -15.1721 -15.1517 -15.1513 -15.1263
   -15.1226 -15.1155 -15.0888 -15.0848 -15.0591 -15.0466 -15.0316 -14.9674
   -14.9509 -14.9436 -14.8863 -14.8827 -14.8112 -14.7841  -7.6513  -7.6220
    -7.5387  -7.5353  -7.4842  -7.4557  -7.4445  -7.3111  -7.2941  -7.1256
    -7.0836  -7.0477  -7.0065  -7.0048  -6.9819  -6.9722  -6.9072  -6.8929
    -6.8486  -6.8365  -6.8218  -6.7549  -6.7262  -6.7102  -6.7042  -6.6851
    -6.6566  -6.6467  -6.6343  -6.5751  -6.5746  -6.5649  -6.5355  -6.4944
    -6.4615  -6.4439  -6.4181  -6.4091  -6.3872  -6.3695  -6.3548  -6.3255
    -6.2979  -6.2932  -6.2743  -6.2304  -6.2252  -6.1912  -6.1590  -6.1497
    -6.1415  -6.1170  -6.0833  -6.0583  -5.9956  -5.9904  -5.9869  -5.9732
    -5.9502  -5.9331  -5.9208  -5.8115  -5.7690  -5.6952  -5.6705  -5.6552
    -5.6294  -5.5907  -5.5621  -5.5608  -5.5583  -5.5319  -5.5034  -5.4876
    -5.4853  -5.4718  -5.4656  -5.4373  -5.4093  -5.4058  -5.3689  -5.2988
    -5.2896  -5.2642  -5.2485  -5.2229  -5.2193  -5.2057  -5.1834  -5.1772
    -5.1559  -5.1419  -5.1291  -5.0994  -5.0730  -5.0721  -5.0348  -5.0234
    -5.0067  -4.9668  -4.9564  -4.9361  -4.9164  -4.9101  -4.8594  -4.8466
    -4.8354  -4.8191  -4.8189  -4.7020  -4.7015  -4.6960  -4.6767  -4.6603
    -4.6520  -4.6376  -4.6214  -4.6069  -4.5628  -4.5377  -4.5183  -4.5175
    -4.4981  -4.4534  -4.4306  -4.4255  -4.4036  -4.3903  -4.3738  -4.3468
    -4.3330  -4.3190  -4.2883  -4.2836  -4.2718  -4.2414  -4.2390  -4.2340
    -4.2113  -4.1883  -4.1567  -4.1190  -4.0960  -4.0832  -4.0731  -4.0447
    -4.0359  -4.0343  -4.0234  -3.9891  -3.9603  -3.9532  -3.9476  -3.9257
    -3.9076  -3.8395  -3.8394  -3.8283  -3.8161  -3.6940  -3.6882  -3.6634
    -1.5670  -1.5593  -1.5317  -1.5148  -1.4993  -1.4965  -1.4708  -1.4511
    -1.4382  -1.4213  -1.3996  -1.3983  -1.3861  -1.3641  -1.3543  -1.3373
    -1.3100  -1.2974  -1.2878  -1.2745  -1.2651  -1.2483  -1.2464  -1.2375
    -1.2311  -1.2135  -1.1997  -1.1937  -1.1770  -1.1711  -1.1623  -1.1502
    -1.1375  -1.1188  -1.1143  -1.1102  -1.1011  -1.0903  -1.0877  -1.0844
    -1.0795  -1.0530  -1.0404  -1.0302  -1.0248  -1.0240  -1.0188  -1.0060
    -0.9974  -0.9775  -0.9705  -0.9663  -0.9376  -0.9192

          k =-0.5000-0.2887 0.0000 (****** PWs)   bands (ev):

   -72.9790 -72.9789 -72.9722 -72.9719 -72.9177 -72.9068 -72.9066 -72.8943
   -72.8928 -72.8928 -72.8342 -72.8342 -72.8185 -72.8185 -72.8155 -72.8152
   -72.7428 -72.7427 -44.3882 -44.3869 -44.3781 -44.3778 -44.3620 -44.3604
   -44.3475 -44.3472 -44.3346 -44.3343 -44.3318 -44.3315 -44.3225 -44.3121
   -44.3120 -44.2996 -44.2981 -44.2981 -44.2877 -44.2844 -44.2840 -44.2839
   -44.2692 -44.2691 -44.2672 -44.2671 -44.2650 -44.2618 -44.2542 -44.2542
   -44.2347 -44.2347 -44.2201 -44.2198 -44.2188 -44.2187 -44.2122 -44.2122
   -44.1954 -44.1954 -44.1930 -44.1929 -44.1866 -44.1863 -44.1836 -44.1836
   -44.1827 -44.1824 -44.1427 -44.1423 -44.1180 -44.1159 -44.1083 -44.1075
   -16.2009 -16.1095 -16.0385 -16.0109 -15.9426 -15.8789 -15.8638 -15.7814
   -15.7184 -15.6244 -15.6027 -15.5555 -15.5492 -15.5022 -15.4974 -15.4447
   -15.4199 -15.4044 -15.3989 -15.3653 -15.3578 -15.3568 -15.3414 -15.3228
   -15.2955 -15.2861 -15.2762 -15.2666 -15.2557 -15.2430 -15.2333 -15.2222
   -15.2099 -15.1963 -15.1948 -15.1761 -15.1710 -15.1502 -15.1484 -15.1336
   -15.1259 -15.1083 -15.0916 -15.0837 -15.0589 -15.0453 -15.0340 -14.9682
   -14.9502 -14.9436 -14.8846 -14.8842 -14.8111 -14.7842  -7.6558  -7.6144
    -7.5568  -7.5206  -7.5130  -7.4528  -7.3902  -7.3481  -7.2761  -7.1244
    -7.0927  -7.0405  -7.0268  -7.0176  -6.9710  -6.9650  -6.9041  -6.8957
    -6.8582  -6.8331  -6.8120  -6.7648  -6.7298  -6.7156  -6.6855  -6.6615
    -6.6533  -6.6321  -6.6176  -6.5945  -6.5587  -6.5505  -6.5223  -6.4920
    -6.4895  -6.4666  -6.4567  -6.4300  -6.4258  -6.3864  -6.3349  -6.3217
    -6.3127  -6.2696  -6.2507  -6.2279  -6.1963  -6.1937  -6.1661  -6.1514
    -6.1303  -6.1103  -6.0957  -6.0797  -6.0444  -6.0284  -5.9754  -5.9619
    -5.9418  -5.8974  -5.8543  -5.8029  -5.8012  -5.6635  -5.6556  -5.6327
    -5.6245  -5.6077  -5.5836  -5.5724  -5.5497  -5.5337  -5.5162  -5.5055
    -5.4799  -5.4675  -5.4529  -5.4241  -5.4161  -5.3758  -5.3516  -5.3217
    -5.2997  -5.2850  -5.2458  -5.2388  -5.2234  -5.2140  -5.1893  -5.1686
    -5.1531  -5.1271  -5.1195  -5.0964  -5.0819  -5.0790  -5.0591  -5.0310
    -5.0064  -4.9545  -4.9367  -4.9324  -4.9221  -4.8895  -4.8748  -4.8598
    -4.8418  -4.8250  -4.8152  -4.7920  -4.7028  -4.6873  -4.6723  -4.6711
    -4.6428  -4.6242  -4.5891  -4.5748  -4.5627  -4.5412  -4.4964  -4.4940
    -4.4856  -4.4685  -4.4454  -4.4435  -4.4247  -4.4094  -4.3946  -4.3436
    -4.3238  -4.3056  -4.2966  -4.2835  -4.2647  -4.2500  -4.2345  -4.2131
    -4.1743  -4.1587  -4.1526  -4.1259  -4.1058  -4.0883  -4.0831  -4.0606
    -4.0586  -4.0330  -4.0074  -3.9837  -3.9604  -3.9525  -3.9475  -3.9089
    -3.9019  -3.8663  -3.8337  -3.8101  -3.7740  -3.7675  -3.7055  -3.6394
    -1.5578  -1.5546  -1.5306  -1.5255  -1.4999  -1.4787  -1.4700  -1.4547
    -1.4435  -1.4230  -1.4117  -1.3979  -1.3777  -1.3686  -1.3564  -1.3352
    -1.3204  -1.3092  -1.2858  -1.2799  -1.2711  -1.2531  -1.2524  -1.2420
    -1.2235  -1.2076  -1.1957  -1.1878  -1.1720  -1.1625  -1.1597  -1.1387
    -1.1382  -1.1317  -1.1235  -1.1126  -1.1022  -1.0858  -1.0785  -1.0725
    -1.0661  -1.0491  -1.0415  -1.0367  -1.0272  -1.0214  -1.0108  -1.0049
    -0.9974  -0.9826  -0.9764  -0.9594  -0.9400  -0.9281

     highest occupied, lowest unoccupied level (ev):    -3.3239   -1.5670

!    total energy              =  -24931.16811858 Ry
     total all-electron energy =    -24931.168119 Ry
     estimated scf accuracy    <          9.0E-11 Ry

     The total energy is the sum of the following terms:
     one-electron contribution =  -25177.32688487 Ry
     hartree contribution      =   12523.82851512 Ry
     xc contribution           =    -743.77776920 Ry
     ewald contribution        =    8913.20911809 Ry
     Hubbard energy            =       0.01043477 Ry
     one-center paw contrib.   =  -20447.11153249 Ry

     total magnetization       =    54.00 Bohr mag/cell
     absolute magnetization    =    65.34 Bohr mag/cell

     convergence has been achieved in  12 iterations

     negative rho (up, down):  1.305E-01 1.474E-01

     Forces acting on atoms (cartesian axes, Ry/au):

     atom    1 type  1   force =    -0.00113698   -0.00199914    0.00012096
     atom    2 type  3   force =    -0.00246521   -0.00778500    0.00226460
     atom    3 type  3   force =    -0.00550909   -0.00602056    0.00226490
     atom    4 type  2   force =     0.00487208   -0.02270289   -0.00065655
     atom    5 type  2   force =    -0.00320487   -0.00555879   -0.00949212
     atom    6 type  2   force =    -0.02210348   -0.00713516   -0.00065838
     atom    7 type  2   force =     0.00731244   -0.02442349   -0.00194495
     atom    8 type  2   force =     0.00246970    0.00427654    0.00889099
     atom    9 type  2   force =    -0.02481091   -0.00588400   -0.00194283
     atom   10 type  3   force =    -0.00177861   -0.00209665    0.00022778
     atom   11 type  3   force =    -0.00562222   -0.00546391    0.00214562
     atom   12 type  2   force =     0.00494683    0.00062175   -0.00970995
     atom   13 type  2   force =    -0.00289795   -0.00482913   -0.00926264
     atom   14 type  2   force =    -0.02182128   -0.00648025   -0.00078180
     atom   15 type  2   force =    -0.00560980    0.00087616    0.00924604
     atom   16 type  2   force =     0.00235911    0.00469325    0.00945678
     atom   17 type  2   force =    -0.02497371   -0.00541896   -0.00195889
     atom   18 type  3   force =    -0.00134574   -0.00138987   -0.00052530
     atom   19 type  3   force =    -0.01444178    0.02876741    0.00308850
     atom   20 type  2   force =     0.00466523    0.00073123   -0.00975772
     atom   21 type  2   force =    -0.00418140    0.00236414   -0.00760084
     atom   22 type  2   force =    -0.01977165   -0.00451724    0.00137804
     atom   23 type  2   force =    -0.00560589    0.00077163    0.00953175
     atom   24 type  2   force =    -0.00279663    0.01174679    0.00748452
     atom   25 type  2   force =    -0.02316269    0.00011851   -0.00335600
     atom   26 type  3   force =    -0.00191546   -0.00760786    0.00214501
     atom   27 type  3   force =    -0.00093038   -0.00266013    0.00022954
     atom   28 type  2   force =     0.00529649   -0.02213076   -0.00078005
     atom   29 type  2   force =    -0.00272862   -0.00493400   -0.00926497
     atom   30 type  2   force =    -0.00193165    0.00461180   -0.00970930
     atom   31 type  2   force =     0.00779362   -0.02433189   -0.00196100
     atom   32 type  2   force =     0.00288375    0.00440340    0.00945793
     atom   33 type  2   force =     0.00356122   -0.00442888    0.00924765
     atom   34 type  3   force =    -0.00120997   -0.00192250    0.00011815
     atom   35 type  2   force =     0.00525867    0.00166801   -0.00955652
     atom   36 type  2   force =    -0.00197849   -0.00438645   -0.00888846
     atom   37 type  2   force =    -0.00172432    0.00533489   -0.00986519
     atom   38 type  2   force =    -0.00490790    0.00146214    0.00897995
     atom   39 type  2   force =     0.00310374    0.00441321    0.00968262
     atom   40 type  2   force =     0.00342325   -0.00396051    0.00928751
     atom   41 type  3   force =    -0.00068025   -0.00120344   -0.00063847
     atom   42 type  3   force =    -0.00990695    0.03240322    0.00109802
     atom   43 type  2   force =     0.00518410    0.00121875   -0.00990473
     atom   44 type  2   force =    -0.00376817    0.00280688   -0.00757554
     atom   45 type  2   force =    -0.00022030    0.00755318   -0.00794211
     atom   46 type  2   force =    -0.00513942    0.00081674    0.00956880
     atom   47 type  2   force =    -0.00238054    0.01192871    0.00802061
     atom   48 type  2   force =     0.00497941    0.00145614    0.00795485
     atom   49 type  3   force =     0.03213204    0.00187580    0.00308783
     atom   50 type  3   force =    -0.00052734   -0.00186176   -0.00052486
     atom   51 type  2   force =     0.00597396   -0.01937578    0.00137894
     atom   52 type  2   force =     0.00414350   -0.00244360   -0.00760170
     atom   53 type  2   force =    -0.00170439    0.00440319   -0.00976007
     atom   54 type  2   force =     0.01168504   -0.01999587   -0.00335693
     atom   55 type  2   force =     0.01157688    0.00344881    0.00748517
     atom   56 type  2   force =     0.00346498   -0.00447248    0.00953233
     atom   57 type  3   force =     0.03302018    0.00761976    0.00109810
     atom   58 type  3   force =    -0.00065100   -0.00115862   -0.00063844
     atom   59 type  2   force =     0.00665167    0.00359312   -0.00794277
     atom   60 type  2   force =     0.00430240   -0.00186658   -0.00757798
     atom   61 type  2   force =    -0.00182158    0.00467100   -0.00959754
     atom   62 type  2   force =    -0.00122931    0.00504421    0.00795700
     atom   63 type  2   force =     0.01152956    0.00390502    0.00802311
     atom   64 type  2   force =     0.00275313   -0.00408662    0.00926229
     atom   65 type  3   force =     0.03346238    0.00838049    0.00038643
     atom   66 type  3   force =    -0.00947768    0.03317031    0.00038828
     atom   67 type  2   force =     0.00636326    0.00365224   -0.00799586
     atom   68 type  2   force =     0.00304449    0.00527074   -0.00613029
     atom   69 type  2   force =    -0.00002320    0.00732870   -0.00799371
     atom   70 type  2   force =    -0.00132528    0.00476707    0.00826665
     atom   71 type  2   force =     0.00641488    0.01110507    0.00583106
     atom   72 type  2   force =     0.00479410    0.00125277    0.00826616

     Total force =     0.137245     Total SCF correction =     0.000016


     Computing stress (Cartesian axis) and pressure


     negative rho (up, down):  1.305E-01 1.474E-01
          total   stress  (Ry/bohr**3)                   (kbar)     P=        1.83
   0.00001231  -0.00000122   0.00000070            1.81       -0.18        0.10
  -0.00000122   0.00001090   0.00000121           -0.18        1.60        0.18
   0.00000070   0.00000121   0.00001410            0.10        0.18        2.07


     Writing all to output data dir ./Cr_0_0.05/Cr_0_0.save/ :
     XML data file, charge density, pseudopotentials, collected wavefunctions

     init_run     :    169.32s CPU     99.03s WALL (       1 calls)
     electrons    :   3437.44s CPU   1856.08s WALL (       1 calls)
     forces       :    141.33s CPU     74.40s WALL (       1 calls)
     stress       :    846.97s CPU    446.41s WALL (       1 calls)

     Called by init_run:
     wfcinit      :    150.50s CPU     79.27s WALL (       1 calls)
     potinit      :      3.69s CPU      4.09s WALL (       1 calls)
     hinit0       :      2.43s CPU      2.71s WALL (       1 calls)

     Called by electrons:
     c_bands      :   2991.12s CPU   1589.22s WALL (      13 calls)
     sum_band     :    394.84s CPU    221.78s WALL (      13 calls)
     v_of_rho     :     17.43s CPU     14.83s WALL (      13 calls)
     newd         :     24.04s CPU     23.58s WALL (      13 calls)
     PAW_pot      :      9.12s CPU      6.60s WALL (      13 calls)
     mix_rho      :      2.45s CPU      1.96s WALL (      13 calls)

     Called by c_bands:
     init_us_2    :     23.62s CPU     12.17s WALL (     256 calls)
     init_us_2:cp :     23.61s CPU     12.17s WALL (     256 calls)
     cegterg      :   2964.12s CPU   1572.93s WALL (     104 calls)

     Called by *egterg:
     cdiaghg      :    325.65s CPU    186.60s WALL (     577 calls)
     h_psi        :   1760.82s CPU    908.80s WALL (     593 calls)
     s_psi        :    210.30s CPU    105.88s WALL (     617 calls)
     g_psi        :      6.60s CPU      3.36s WALL (     481 calls)

     Called by h_psi:
     h_psi:calbec :    221.17s CPU    114.51s WALL (     593 calls)
     vloc_psi     :   1315.43s CPU    673.15s WALL (     593 calls)
     add_vuspsi   :    190.44s CPU     96.06s WALL (     593 calls)
     vhpsi        :     28.38s CPU     15.73s WALL (     593 calls)

     General routines
     calbec       :    737.38s CPU    386.54s WALL (   29194 calls)
     fft          :     18.85s CPU     18.58s WALL (     365 calls)
     ffts         :      2.15s CPU      1.83s WALL (      52 calls)
     fftw         :   1144.83s CPU    587.64s WALL (  259814 calls)
     interpolate  :      2.66s CPU      2.29s WALL (      26 calls)

     Parallel routines

     Hubbard U routines
     new_ns       :      5.81s CPU      4.20s WALL (      13 calls)
     vhpsi        :     28.38s CPU     15.73s WALL (     593 calls)
     force_hub    :    109.21s CPU     56.18s WALL (       1 calls)
                                        0.00s GPU  (       1 calls)
     stres_hub    :    311.54s CPU    162.24s WALL (       1 calls)
                                        0.00s GPU  (       1 calls)

     PWSCF        :      1h17m CPU  41m56.04s WALL


   This run was terminated on:  12: 3:18  11Sep2025            

=------------------------------------------------------------------------------=
   JOB DONE.
=------------------------------------------------------------------------------=
[1757588598.368121] [node066:1663027:0]          mpool.c:43   UCX  WARN  object 0x6aa7900 was not returned to mpool ucp_requests
[1757588598.368139] [node066:1663027:0]          mpool.c:43   UCX  WARN  object 0x6aa9880 was not returned to mpool ucp_requests
[1757588598.368140] [node066:1663027:0]          mpool.c:43   UCX  WARN  object 0x6aa9dc0 was not returned to mpool ucp_requests
[1757588598.368142] [node066:1663027:0]          mpool.c:43   UCX  WARN  object 0x6aaa140 was not returned to mpool ucp_requests
[1757588598.368143] [node066:1663027:0]          mpool.c:43   UCX  WARN  object 0x6a94f00 was not returned to mpool ucp_requests
[1757588598.368144] [node066:1663027:0]          mpool.c:43   UCX  WARN  object 0x6a95980 was not returned to mpool ucp_requests
[1757588598.368145] [node066:1663027:0]          mpool.c:43   UCX  WARN  object 0x6a95ec0 was not returned to mpool ucp_requests
[1757588598.368146] [node066:1663027:0]          mpool.c:43   UCX  WARN  object 0x6a98fc0 was not returned to mpool ucp_requests
[1757588598.368148] [node066:1663027:0]          mpool.c:43   UCX  WARN  object 0x6a9e580 was not returned to mpool ucp_requests
[1757588598.368149] [node066:1663027:0]          mpool.c:43   UCX  WARN  object 0x6a9f8c0 was not returned to mpool ucp_requests
[1757588598.368150] [node066:1663027:0]          mpool.c:43   UCX  WARN  object 0x3eb01c0 was not returned to mpool ucp_requests
[1757588598.368151] [node066:1663027:0]          mpool.c:43   UCX  WARN  object 0x3eb1340 was not returned to mpool ucp_requests
[1757588598.368152] [node066:1663027:0]          mpool.c:43   UCX  WARN  object 0x3eb1880 was not returned to mpool ucp_requests
[1757588598.368153] [node066:1663027:0]          mpool.c:43   UCX  WARN  object 0x3eb2a00 was not returned to mpool ucp_requests
[1757588598.368154] [node066:1663027:0]          mpool.c:43   UCX  WARN  object 0x3eb47c0 was not returned to mpool ucp_requests
[1757588598.368156] [node066:1663027:0]          mpool.c:43   UCX  WARN  object 0x3eb7540 was not returned to mpool ucp_requests
[1757588598.368157] [node066:1663027:0]          mpool.c:43   UCX  WARN  object 0x3eba480 was not returned to mpool ucp_requests
[1757588598.368861] [node066:1663043:0]          mpool.c:43   UCX  WARN  object 0x5b09dc0 was not returned to mpool ucp_requests
[1757588598.368879] [node066:1663043:0]          mpool.c:43   UCX  WARN  object 0x5b0c600 was not returned to mpool ucp_requests
[1757588598.368881] [node066:1663043:0]          mpool.c:43   UCX  WARN  object 0x5af4f40 was not returned to mpool ucp_requests
[1757588598.368883] [node066:1663043:0]          mpool.c:43   UCX  WARN  object 0x5af6600 was not returned to mpool ucp_requests
[1757588598.368884] [node066:1663043:0]          mpool.c:43   UCX  WARN  object 0x5af7400 was not returned to mpool ucp_requests
[1757588598.368885] [node066:1663043:0]          mpool.c:43   UCX  WARN  object 0x5afd7c0 was not returned to mpool ucp_requests
[1757588598.368886] [node066:1663043:0]          mpool.c:43   UCX  WARN  object 0x5aff040 was not returned to mpool ucp_requests
[1757588598.368887] [node066:1663043:0]          mpool.c:43   UCX  WARN  object 0x5aff200 was not returned to mpool ucp_requests
[1757588598.368888] [node066:1663043:0]          mpool.c:43   UCX  WARN  object 0x5b001c0 was not returned to mpool ucp_requests
[1757588598.368889] [node066:1663043:0]          mpool.c:43   UCX  WARN  object 0x5b008c0 was not returned to mpool ucp_requests
[1757588598.368890] [node066:1663043:0]          mpool.c:43   UCX  WARN  object 0x2f0e8c0 was not returned to mpool ucp_requests
[1757588598.368891] [node066:1663043:0]          mpool.c:43   UCX  WARN  object 0x2f0f180 was not returned to mpool ucp_requests
[1757588598.368893] [node066:1663043:0]          mpool.c:43   UCX  WARN  object 0x2f10f40 was not returned to mpool ucp_requests
[1757588598.368894] [node066:1663043:0]          mpool.c:43   UCX  WARN  object 0x2f14900 was not returned to mpool ucp_requests
[1757588598.368895] [node066:1663043:0]          mpool.c:43   UCX  WARN  object 0x2f1a400 was not returned to mpool ucp_requests
[1757588598.368902] [node066:1663039:0]          mpool.c:43   UCX  WARN  object 0x6a7f700 was not returned to mpool ucp_requests
[1757588598.368919] [node066:1663039:0]          mpool.c:43   UCX  WARN  object 0x6a81f40 was not returned to mpool ucp_requests
[1757588598.368921] [node066:1663039:0]          mpool.c:43   UCX  WARN  object 0x6a82f00 was not returned to mpool ucp_requests
[1757588598.368923] [node066:1663039:0]          mpool.c:43   UCX  WARN  object 0x6a6cd00 was not returned to mpool ucp_requests
[1757588598.368924] [node066:1663039:0]          mpool.c:43   UCX  WARN  object 0x6a70a40 was not returned to mpool ucp_requests
[1757588598.368925] [node066:1663039:0]          mpool.c:43   UCX  WARN  object 0x6a76e00 was not returned to mpool ucp_requests
[1757588598.368926] [node066:1663039:0]          mpool.c:43   UCX  WARN  object 0x3e83bc0 was not returned to mpool ucp_requests
[1757588598.368928] [node066:1663039:0]          mpool.c:43   UCX  WARN  object 0x3e89a40 was not returned to mpool ucp_requests
