
     Program PWSCF v.7.3 starts on 11Sep2025 at 11: 3:32 

     This program is part of the open-source Quantum ESPRESSO suite
     for quantum simulation of materials; please cite
         "P. Giannozzi et al., J. Phys.:Condens. Matter 21 395502 (2009);
         "P. Giannozzi et al., J. Phys.:Condens. Matter 29 465901 (2017);
         "P. Giannozzi et al., J. Chem. Phys. 152 154105 (2020);
          URL http://www.quantum-espresso.org", 
     in publications or presentations arising from this work. More details at
     http://www.quantum-espresso.org/quote

     Parallel version (MPI & OpenMP), running on     256 processor cores
     Number of MPI processes:               128
     Threads/MPI process:                     2

     MPI processes distributed on     2 nodes
     437686 MiB available memory on the printing compute node when the environment starts

     Reading input from Cr_0_-0.05.in
Warning: card &CELL ignored
Warning: card / ignored
Warning: card &FCP ignored
Warning: card / ignored
Warning: card &RISM ignored
Warning: card / ignored

     Current dimensions of program PWSCF are:
     Max number of different atomic species (ntypx) = 10
     Max number of k-points (npk) =  40000
     Max angular momentum in pseudopotentials (lmaxx) =  4
read_pp_mesh; mismatch in mesh size, discarding the one in header
read_pp_mesh; mismatch in mesh size, discarding the one in header
read_pp_mesh; mismatch in mesh size, discarding the one in header
     file Cr.GGA-PBE-paw.UPF: wavefunction(s)  3S 4S 3P 4P 3D 4D renormalized
     file I.GGA-PBE-paw.UPF: wavefunction(s)  6S 6P renormalized
     file Cr.GGA-PBE-paw.UPF: wavefunction(s)  3S 4S 3P 4P 3D 4D renormalized

     IMPORTANT: XC functional enforced from input :
     Exchange-correlation= PBE
                           (   1   4   3   4   0   0   0)
     Any further DFT definition will be discarded
     Please, verify this is what you really want


     R & G space division:  proc/nbgrp/npool/nimage =     128
     Subspace diagonalization in iterative solution of the eigenvalue problem:
     one sub-group per band group will be used
     ELPA distributed-memory algorithm (size of sub-group:  3*  3 procs)


     Parallelization info
     --------------------
     sticks:   dense  smooth     PW     G-vecs:    dense   smooth      PW
     Min         509     305     78               140391    65241    8388
     Max         510     306     79               140404    65254    8400
     Sum       65263   39121   9985             17971031  8351671 1074593

     Using Slab Decomposition



     bravais-lattice index     =            0
     lattice parameter (alat)  =      39.7293  a.u.
     unit-cell volume          =   72410.5124 (a.u.)^3
     number of atoms/cell      =           72
     number of atomic types    =            3
     number of electrons       =       630.00 (up: 342.00, down: 288.00)
     number of Kohn-Sham states=          342
     kinetic-energy cutoff     =      90.0000  Ry
     charge density cutoff     =     600.0000  Ry
     scf convergence threshold =      1.0E-10
     mixing beta               =       0.3000
     number of iterations used =            8  plain     mixing
     Exchange-correlation= PBE
                           (   1   4   3   4   0   0   0)
     Hubbard projectors: atomic
     Hubbard parameters of DFT+U (Dudarev formulation) in eV:
     U(Cr1-3d) =  0.0000
     J0(Cr1-3d) =  0.0000
     beta(Cr1-3d) = -0.0500

     Internal variables: lda_plus_u =T, lda_plus_u_kind = 0

     celldm(1)=  39.729285  celldm(2)=   0.000000  celldm(3)=   0.000000
     celldm(4)=   0.000000  celldm(5)=   0.000000  celldm(6)=   0.000000

     crystal axes: (cart. coord. in units of alat)
               a(1) = (   1.000000   0.000000   0.000000 )  
               a(2) = (  -0.500000   0.866025   0.000000 )  
               a(3) = (   0.000000   0.000000   1.333333 )  

     reciprocal axes: (cart. coord. in units 2 pi/alat)
               b(1) = (  1.000000  0.577350 -0.000000 )  
               b(2) = (  0.000000  1.154701  0.000000 )  
               b(3) = (  0.000000 -0.000000  0.750000 )  


     PseudoPot. # 1 for Cr read from file:
     ./Cr.GGA-PBE-paw.UPF
     MD5 check sum: 389087661106aa6caf57455f2e439c97
     Pseudo is Projector augmented-wave + core cor, Zval = 14.0
     Generated using ATOMPAW code
     Shape of augmentation charge: SINC**2
     Using radial grid of 2342 points,  6 beta functions with: 
                l(1) =   0
                l(2) =   0
                l(3) =   1
                l(4) =   1
                l(5) =   2
                l(6) =   2
     Q(r) pseudized with 0 coefficients 


     PseudoPot. # 2 for I  read from file:
     ./I.GGA-PBE-paw.UPF
     MD5 check sum: 736bb4145856fa7ed29d0984862794a4
     Pseudo is Projector augmented-wave + core cor, Zval =  7.0
     Generated using ATOMPAW code
     Shape of augmentation charge: SINC**2
     Using radial grid of 2342 points,  4 beta functions with: 
                l(1) =   0
                l(2) =   0
                l(3) =   1
                l(4) =   1
     Q(r) pseudized with 0 coefficients 


     PseudoPot. # 3 for Cr read from file:
     ./Cr.GGA-PBE-paw.UPF
     MD5 check sum: 389087661106aa6caf57455f2e439c97
     Pseudo is Projector augmented-wave + core cor, Zval = 14.0
     Generated using ATOMPAW code
     Shape of augmentation charge: SINC**2
     Using radial grid of 2342 points,  6 beta functions with: 
                l(1) =   0
                l(2) =   0
                l(3) =   1
                l(4) =   1
                l(5) =   2
                l(6) =   2
     Q(r) pseudized with 0 coefficients 


     atomic species   valence    mass     pseudopotential
     Cr1              14.00    51.99610     Cr( 1.00)
     I                 7.00   126.90447     I ( 1.00)
     Cr               14.00    51.99610     Cr( 1.00)

     Starting magnetic structure 
     atomic species   magnetization
     Cr1             0.214
     I               0.000
     Cr              0.214

     No symmetry found



   Cartesian axes

     site n.     atom                  positions (alat units)
         1        Cr1    tau(   1) = (   0.3271041   0.3777073   0.4295967  )
         2        Cr     tau(   2) = (   0.1635521   0.0944268   0.4295967  )
         3        Cr     tau(   3) = (   0.0000000   0.1888536   0.4295967  )
         4        I      tau(   4) = (   0.2103614  -0.0000006   0.3558127  )
         5        I      tau(   5) = (   0.0583708   0.1011024   0.3558127  )
         6        I      tau(   6) = (  -0.1051802   0.1821787   0.3558127  )
         7        I      tau(   7) = (   0.1167427  -0.0000005   0.5033806  )
         8        I      tau(   8) = (   0.1051802   0.1821786   0.5033806  )
         9        I      tau(   9) = (  -0.0583709   0.1011024   0.5033806  )
        10        Cr     tau(  10) = (  -0.0000000   0.3777073   0.4295967  )
        11        Cr     tau(  11) = (  -0.1635521   0.4721341   0.4295967  )
        12        I      tau(  12) = (   0.0468094   0.2832798   0.3558127  )
        13        I      tau(  13) = (  -0.1051813   0.3843829   0.3558127  )
        14        I      tau(  14) = (  -0.2687322   0.4654591   0.3558127  )
        15        I      tau(  15) = (  -0.0468094   0.2832799   0.5033806  )
        16        I      tau(  16) = (  -0.0583718   0.4654591   0.5033806  )
        17        I      tau(  17) = (  -0.2219229   0.3843829   0.5033806  )
        18        Cr     tau(  18) = (  -0.1635521   0.6609878   0.4295967  )
        19        Cr     tau(  19) = (  -0.3271041   0.7554146   0.4295967  )
        20        I      tau(  20) = (  -0.1167427   0.5665603   0.3558127  )
        21        I      tau(  21) = (  -0.2687333   0.6676634   0.3558127  )
        22        I      tau(  22) = (  -0.4322843   0.7487396   0.3558127  )
        23        I      tau(  23) = (  -0.2103614   0.5665604   0.5033806  )
        24        I      tau(  24) = (  -0.2219239   0.7487396   0.5033806  )
        25        I      tau(  25) = (  -0.3854750   0.6676633   0.5033806  )
        26        Cr     tau(  26) = (   0.4906562   0.0944268   0.4295967  )
        27        Cr     tau(  27) = (   0.3271041   0.1888536   0.4295967  )
        28        I      tau(  28) = (   0.5374655  -0.0000006   0.3558127  )
        29        I      tau(  29) = (   0.3854749   0.1011024   0.3558127  )
        30        I      tau(  30) = (   0.2219239   0.1821787   0.3558127  )
        31        I      tau(  31) = (   0.4438468  -0.0000005   0.5033806  )
        32        I      tau(  32) = (   0.4322844   0.1821786   0.5033806  )
        33        I      tau(  33) = (   0.2687332   0.1011024   0.5033806  )
        34        Cr     tau(  34) = (   0.1635521   0.4721341   0.4295967  )
        35        I      tau(  35) = (   0.3739135   0.2832798   0.3558127  )
        36        I      tau(  36) = (   0.2219229   0.3843829   0.3558127  )
        37        I      tau(  37) = (   0.0583719   0.4654591   0.3558127  )
        38        I      tau(  38) = (   0.2802947   0.2832799   0.5033806  )
        39        I      tau(  39) = (   0.2687323   0.4654591   0.5033806  )
        40        I      tau(  40) = (   0.1051812   0.3843829   0.5033806  )
        41        Cr     tau(  41) = (   0.1635521   0.6609878   0.4295967  )
        42        Cr     tau(  42) = (   0.0000000   0.7554146   0.4295967  )
        43        I      tau(  43) = (   0.2103614   0.5665603   0.3558127  )
        44        I      tau(  44) = (   0.0583708   0.6676634   0.3558127  )
        45        I      tau(  45) = (  -0.1051802   0.7487396   0.3558127  )
        46        I      tau(  46) = (   0.1167427   0.5665604   0.5033806  )
        47        I      tau(  47) = (   0.1051802   0.7487396   0.5033806  )
        48        I      tau(  48) = (  -0.0583709   0.6676633   0.5033806  )
        49        Cr     tau(  49) = (   0.8177603   0.0944268   0.4295967  )
        50        Cr     tau(  50) = (   0.6542082   0.1888536   0.4295967  )
        51        I      tau(  51) = (   0.8645697  -0.0000006   0.3558127  )
        52        I      tau(  52) = (   0.7125790   0.1011024   0.3558127  )
        53        I      tau(  53) = (   0.5490281   0.1821787   0.3558127  )
        54        I      tau(  54) = (   0.7709509  -0.0000005   0.5033806  )
        55        I      tau(  55) = (   0.7593885   0.1821786   0.5033806  )
        56        I      tau(  56) = (   0.5958374   0.1011024   0.5033806  )
        57        Cr     tau(  57) = (   0.6542082   0.3777073   0.4295967  )
        58        Cr     tau(  58) = (   0.4906562   0.4721341   0.4295967  )
        59        I      tau(  59) = (   0.7010176   0.2832798   0.3558127  )
        60        I      tau(  60) = (   0.5490270   0.3843829   0.3558127  )
        61        I      tau(  61) = (   0.3854760   0.4654591   0.3558127  )
        62        I      tau(  62) = (   0.6073989   0.2832799   0.5033806  )
        63        I      tau(  63) = (   0.5958364   0.4654591   0.5033806  )
        64        I      tau(  64) = (   0.4322853   0.3843829   0.5033806  )
        65        Cr     tau(  65) = (   0.4906562   0.6609878   0.4295967  )
        66        Cr     tau(  66) = (   0.3271041   0.7554146   0.4295967  )
        67        I      tau(  67) = (   0.5374655   0.5665603   0.3558127  )
        68        I      tau(  68) = (   0.3854749   0.6676634   0.3558127  )
        69        I      tau(  69) = (   0.2219239   0.7487396   0.3558127  )
        70        I      tau(  70) = (   0.4438468   0.5665604   0.5033806  )
        71        I      tau(  71) = (   0.4322844   0.7487396   0.5033806  )
        72        I      tau(  72) = (   0.2687332   0.6676633   0.5033806  )

     number of k points=     4
                       cart. coord. in units 2pi/alat
        k(    1) = (   0.0000000   0.0000000   0.0000000), wk =   0.2500000
        k(    2) = (   0.0000000  -0.5773503   0.0000000), wk =   0.2500000
        k(    3) = (   0.5000000  -0.2886751   0.0000000), wk =   0.2500000
        k(    4) = (  -0.5000000  -0.2886751   0.0000000), wk =   0.2500000

     Dense  grid: 17971031 G-vectors     FFT dimensions: ( 320, 320, 432)

     Smooth grid:  8351671 G-vectors     FFT dimensions: ( 240, 240, 320)

     Estimated max dynamical RAM per process >       1.67 GB

     Estimated total dynamical RAM >     213.14 GB
     Generating pointlists ...
     new r_m :   0.0531 (alat units)  2.1084 (a.u.) for type    1
     new r_m :   0.0531 (alat units)  2.1084 (a.u.) for type    2
     new r_m :   0.0531 (alat units)  2.1084 (a.u.) for type    3

     The initial density is read from file :
     ./Cr_0_-0.05/Cr_0_0.save/charge-density


     negative rho (up, down):  1.304E-01 1.474E-01

     STARTING HUBBARD OCCUPATIONS:

     =================== HUBBARD OCCUPATIONS ===================
     ------------------------ ATOM    1 ------------------------
     Tr[ns(  1)] (up, down, total) =   4.25332  1.37309  5.62641
     Atomic magnetic moment for atom   1 =   2.88023
     SPIN  1
     eigenvalues:
       0.638  0.640  0.991  0.992  0.992
     eigenvectors (columns):
      -0.000  0.000 -0.955  0.236 -0.180
      -0.801  0.198  0.165  0.485 -0.238
      -0.198 -0.802 -0.031  0.257  0.501
       0.549 -0.135  0.240  0.709 -0.348
      -0.135 -0.547  0.046 -0.375 -0.734
     occupation matrix ns (before diag.):
       0.991  0.000 -0.000  0.000  0.000
       0.000  0.751 -0.000  0.165 -0.000
      -0.000 -0.000  0.752  0.000 -0.164
       0.000  0.165  0.000  0.879  0.000
       0.000 -0.000 -0.164  0.000  0.880
     SPIN  2
     eigenvalues:
       0.158  0.167  0.169  0.439  0.440
     eigenvectors (columns):
      -0.999  0.031 -0.025  0.000 -0.000
      -0.020 -0.549  0.128  0.794 -0.226
       0.010 -0.129 -0.547  0.226  0.795
      -0.030 -0.804  0.188 -0.543  0.154
      -0.014  0.188  0.805  0.154  0.541
     occupation matrix ns (before diag.):
       0.158 -0.000  0.000 -0.000 -0.000
      -0.000  0.353 -0.000 -0.127 -0.000
       0.000 -0.000  0.354 -0.000  0.126
      -0.000 -0.127 -0.000  0.254  0.000
      -0.000 -0.000  0.126  0.000  0.255

     Number of occupied Hubbard levels =    5.6264

     Atomic wfc used for Hubbard projectors are NOT orthogonalized

     Starting wfcs are  756 atomic wfcs
     Checking if some PAW data can be deallocated... 

     total cpu time spent up to now is      101.3 secs

     Self-consistent Calculation

     iteration #  1     ecut=    90.00 Ry     beta= 0.30
     Davidson diagonalization with overlap
     ethr =  1.00E-05,  avg # of iterations =  8.6

     =================== HUBBARD OCCUPATIONS ===================
     ------------------------ ATOM    1 ------------------------
     Tr[ns(  1)] (up, down, total) =   4.26432  1.35527  5.61959
     Atomic magnetic moment for atom   1 =   2.90905
     SPIN  1
     eigenvalues:
       0.644  0.645  0.991  0.992  0.992
     eigenvectors (columns):
      -0.000  0.000 -0.958  0.224 -0.177
      -0.801  0.198  0.158  0.488 -0.238
      -0.198 -0.802 -0.033  0.256  0.501
       0.549 -0.135  0.231  0.712 -0.348
      -0.135 -0.547  0.048 -0.374 -0.735
     occupation matrix ns (before diag.):
       0.991  0.000 -0.000  0.000  0.000
       0.000  0.755 -0.000  0.162 -0.000
      -0.000 -0.000  0.755  0.000 -0.161
       0.000  0.162  0.000  0.881  0.000
       0.000 -0.000 -0.161  0.000  0.882
     SPIN  2
     eigenvalues:
       0.155  0.164  0.166  0.435  0.436
     eigenvectors (columns):
      -0.999  0.030 -0.024  0.000 -0.000
      -0.019 -0.549  0.128  0.794 -0.226
       0.010 -0.128 -0.548  0.226  0.795
      -0.029 -0.804  0.187 -0.543  0.154
      -0.014  0.187  0.805  0.154  0.541
     occupation matrix ns (before diag.):
       0.155 -0.000  0.000 -0.000 -0.000
      -0.000  0.349 -0.000 -0.126 -0.000
       0.000 -0.000  0.350 -0.000  0.126
      -0.000 -0.126 -0.000  0.250  0.000
      -0.000 -0.000  0.126  0.000  0.251

     Number of occupied Hubbard levels =    5.6196

     Threshold (ethr) on eigenvalues was too large:
     Diagonalizing with lowered threshold

     Davidson diagonalization with overlap
     ethr =  1.78E-09,  avg # of iterations =  5.6

     negative rho (up, down):  1.304E-01 1.475E-01

     total cpu time spent up to now is      694.6 secs

     total energy              =  -24931.18927198 Ry
     estimated scf accuracy    <       0.00001071 Ry

     total magnetization       =    54.00 Bohr mag/cell
     absolute magnetization    =    65.43 Bohr mag/cell

     iteration #  2     ecut=    90.00 Ry     beta= 0.30
     Davidson diagonalization with overlap
     ethr =  1.70E-09,  avg # of iterations =  2.8

     negative rho (up, down):  1.304E-01 1.475E-01

     total cpu time spent up to now is      794.4 secs

     total energy              =  -24931.18927609 Ry
     estimated scf accuracy    <       0.00000746 Ry

     total magnetization       =    54.00 Bohr mag/cell
     absolute magnetization    =    65.43 Bohr mag/cell

     iteration #  3     ecut=    90.00 Ry     beta= 0.30
     Davidson diagonalization with overlap
     ethr =  1.18E-09,  avg # of iterations =  3.6

     negative rho (up, down):  1.304E-01 1.475E-01

     total cpu time spent up to now is      894.1 secs

     total energy              =  -24931.18928269 Ry
     estimated scf accuracy    <       0.00000549 Ry

     total magnetization       =    54.00 Bohr mag/cell
     absolute magnetization    =    65.43 Bohr mag/cell

     iteration #  4     ecut=    90.00 Ry     beta= 0.30
     Davidson diagonalization with overlap
     ethr =  8.71E-10,  avg # of iterations =  5.8

     negative rho (up, down):  1.304E-01 1.475E-01

     total cpu time spent up to now is     1023.6 secs

     total energy              =  -24931.18928567 Ry
     estimated scf accuracy    <       0.00000082 Ry

     total magnetization       =    54.00 Bohr mag/cell
     absolute magnetization    =    65.44 Bohr mag/cell

     iteration #  5     ecut=    90.00 Ry     beta= 0.30
     Davidson diagonalization with overlap
     ethr =  1.30E-10,  avg # of iterations =  6.0

     negative rho (up, down):  1.304E-01 1.475E-01

     total cpu time spent up to now is     1151.1 secs

     total energy              =  -24931.18928611 Ry
     estimated scf accuracy    <       0.00000054 Ry

     total magnetization       =    54.00 Bohr mag/cell
     absolute magnetization    =    65.45 Bohr mag/cell

     iteration #  6     ecut=    90.00 Ry     beta= 0.30
     Davidson diagonalization with overlap
     ethr =  8.53E-11,  avg # of iterations =  5.8

     negative rho (up, down):  1.304E-01 1.475E-01

     total cpu time spent up to now is     1275.3 secs

     total energy              =  -24931.18928629 Ry
     estimated scf accuracy    <       0.00000006 Ry

     total magnetization       =    54.00 Bohr mag/cell
     absolute magnetization    =    65.45 Bohr mag/cell

     iteration #  7     ecut=    90.00 Ry     beta= 0.30
     Davidson diagonalization with overlap
     ethr =  9.20E-12,  avg # of iterations =  5.0

     negative rho (up, down):  1.304E-01 1.475E-01

     total cpu time spent up to now is     1402.9 secs

     total energy              =  -24931.18928631 Ry
     estimated scf accuracy    <       0.00000003 Ry

     total magnetization       =    54.00 Bohr mag/cell
     absolute magnetization    =    65.45 Bohr mag/cell

     iteration #  8     ecut=    90.00 Ry     beta= 0.30
     Davidson diagonalization with overlap
     ethr =  4.31E-12,  avg # of iterations =  3.0

     negative rho (up, down):  1.304E-01 1.475E-01

     total cpu time spent up to now is     1514.7 secs

     total energy              =  -24931.18928632 Ry
     estimated scf accuracy    <          7.9E-09 Ry

     total magnetization       =    54.00 Bohr mag/cell
     absolute magnetization    =    65.45 Bohr mag/cell

     iteration #  9     ecut=    90.00 Ry     beta= 0.30
     Davidson diagonalization with overlap
     ethr =  1.25E-12,  avg # of iterations =  4.9

     negative rho (up, down):  1.304E-01 1.475E-01

     total cpu time spent up to now is     1645.3 secs

     total energy              =  -24931.18928632 Ry
     estimated scf accuracy    <          1.9E-09 Ry

     total magnetization       =    54.00 Bohr mag/cell
     absolute magnetization    =    65.45 Bohr mag/cell

     iteration # 10     ecut=    90.00 Ry     beta= 0.30
     Davidson diagonalization with overlap
     ethr =  2.94E-13,  avg # of iterations =  4.1

     negative rho (up, down):  1.304E-01 1.475E-01

     total cpu time spent up to now is     1773.2 secs

     total energy              =  -24931.18928633 Ry
     estimated scf accuracy    <          1.0E-09 Ry

     total magnetization       =    54.00 Bohr mag/cell
     absolute magnetization    =    65.45 Bohr mag/cell

     iteration # 11     ecut=    90.00 Ry     beta= 0.30
     Davidson diagonalization with overlap
     ethr =  1.61E-13,  avg # of iterations =  3.4

     negative rho (up, down):  1.304E-01 1.475E-01

     total cpu time spent up to now is     1886.5 secs

     total energy              =  -24931.18928633 Ry
     estimated scf accuracy    <          1.6E-10 Ry

     total magnetization       =    54.00 Bohr mag/cell
     absolute magnetization    =    65.45 Bohr mag/cell

     iteration # 12     ecut=    90.00 Ry     beta= 0.30
     Davidson diagonalization with overlap
     ethr =  1.00E-13,  avg # of iterations =  3.0

     negative rho (up, down):  1.304E-01 1.475E-01

     Magnetic moment per site  (integrated on atomic sphere of radius R)
     atom   1 (R=0.053)  charge= 12.4131  magn=  2.9564
     atom   2 (R=0.053)  charge= 12.4086  magn=  2.9136
     atom   3 (R=0.053)  charge= 12.4086  magn=  2.9136
     atom   4 (R=0.053)  charge=  4.0328  magn= -0.0666
     atom   5 (R=0.053)  charge=  4.0497  magn= -0.0522
     atom   6 (R=0.053)  charge=  4.0328  magn= -0.0666
     atom   7 (R=0.053)  charge=  4.0248  magn= -0.0724
     atom   8 (R=0.053)  charge=  4.0502  magn= -0.0559
     atom   9 (R=0.053)  charge=  4.0248  magn= -0.0724
     atom  10 (R=0.053)  charge= 12.4124  magn=  2.9202
     atom  11 (R=0.053)  charge= 12.4091  magn=  2.9162
     atom  12 (R=0.053)  charge=  4.0513  magn= -0.0516
     atom  13 (R=0.053)  charge=  4.0498  magn= -0.0517
     atom  14 (R=0.053)  charge=  4.0336  magn= -0.0638
     atom  15 (R=0.053)  charge=  4.0499  magn= -0.0523
     atom  16 (R=0.053)  charge=  4.0513  magn= -0.0523
     atom  17 (R=0.053)  charge=  4.0253  magn= -0.0709
     atom  18 (R=0.053)  charge= 12.4122  magn=  2.9227
     atom  19 (R=0.053)  charge= 12.3252  magn=  3.0168
     atom  20 (R=0.053)  charge=  4.0507  magn= -0.0525
     atom  21 (R=0.053)  charge=  4.0444  magn= -0.0604
     atom  22 (R=0.053)  charge=  4.0302  magn= -0.0695
     atom  23 (R=0.053)  charge=  4.0499  magn= -0.0520
     atom  24 (R=0.053)  charge=  4.0486  magn= -0.0515
     atom  25 (R=0.053)  charge=  4.0214  magn= -0.0769
     atom  26 (R=0.053)  charge= 12.4090  magn=  2.9161
     atom  27 (R=0.053)  charge= 12.4124  magn=  2.9202
     atom  28 (R=0.053)  charge=  4.0336  magn= -0.0637
     atom  29 (R=0.053)  charge=  4.0497  magn= -0.0519
     atom  30 (R=0.053)  charge=  4.0513  magn= -0.0516
     atom  31 (R=0.053)  charge=  4.0253  magn= -0.0710
     atom  32 (R=0.053)  charge=  4.0513  magn= -0.0523
     atom  33 (R=0.053)  charge=  4.0499  magn= -0.0525
     atom  34 (R=0.053)  charge= 12.4127  magn=  2.9232
     atom  35 (R=0.053)  charge=  4.0521  magn= -0.0529
     atom  36 (R=0.053)  charge=  4.0501  magn= -0.0545
     atom  37 (R=0.053)  charge=  4.0520  magn= -0.0497
     atom  38 (R=0.053)  charge=  4.0508  magn= -0.0542
     atom  39 (R=0.053)  charge=  4.0526  magn= -0.0520
     atom  40 (R=0.053)  charge=  4.0506  magn= -0.0507
     atom  41 (R=0.053)  charge= 12.4124  magn=  2.9257
     atom  42 (R=0.053)  charge= 12.3292  magn=  3.0258
     atom  43 (R=0.053)  charge=  4.0514  magn= -0.0505
     atom  44 (R=0.053)  charge=  4.0448  magn= -0.0597
     atom  45 (R=0.053)  charge=  4.0486  magn= -0.0544
     atom  46 (R=0.053)  charge=  4.0507  magn= -0.0506
     atom  47 (R=0.053)  charge=  4.0495  magn= -0.0482
     atom  48 (R=0.053)  charge=  4.0467  magn= -0.0568
     atom  49 (R=0.053)  charge= 12.3252  magn=  3.0168
     atom  50 (R=0.053)  charge= 12.4122  magn=  2.9227
     atom  51 (R=0.053)  charge=  4.0302  magn= -0.0695
     atom  52 (R=0.053)  charge=  4.0444  magn= -0.0604
     atom  53 (R=0.053)  charge=  4.0507  magn= -0.0525
     atom  54 (R=0.053)  charge=  4.0214  magn= -0.0769
     atom  55 (R=0.053)  charge=  4.0486  magn= -0.0515
     atom  56 (R=0.053)  charge=  4.0499  magn= -0.0520
     atom  57 (R=0.053)  charge= 12.3291  magn=  3.0258
     atom  58 (R=0.053)  charge= 12.4124  magn=  2.9257
     atom  59 (R=0.053)  charge=  4.0486  magn= -0.0544
     atom  60 (R=0.053)  charge=  4.0448  magn= -0.0597
     atom  61 (R=0.053)  charge=  4.0516  magn= -0.0537
     atom  62 (R=0.053)  charge=  4.0467  magn= -0.0568
     atom  63 (R=0.053)  charge=  4.0495  magn= -0.0484
     atom  64 (R=0.053)  charge=  4.0509  magn= -0.0537
     atom  65 (R=0.053)  charge= 12.3290  magn=  3.0298
     atom  66 (R=0.053)  charge= 12.3290  magn=  3.0298
     atom  67 (R=0.053)  charge=  4.0479  magn= -0.0557
     atom  68 (R=0.053)  charge=  4.0397  magn= -0.0676
     atom  69 (R=0.053)  charge=  4.0479  magn= -0.0555
     atom  70 (R=0.053)  charge=  4.0471  magn= -0.0559
     atom  71 (R=0.053)  charge=  4.0465  magn= -0.0471
     atom  72 (R=0.053)  charge=  4.0471  magn= -0.0559

     total cpu time spent up to now is     1989.5 secs

     End of self-consistent calculation

     =================== HUBBARD OCCUPATIONS ===================
     ------------------------ ATOM    1 ------------------------
     Tr[ns(  1)] (up, down, total) =   4.26928  1.34923  5.61850
     Atomic magnetic moment for atom   1 =   2.92005
     SPIN  1
     eigenvalues:
       0.646  0.648  0.991  0.992  0.992
     eigenvectors (columns):
      -0.000  0.000 -0.960  0.223 -0.171
      -0.801  0.197  0.156  0.490 -0.235
      -0.197 -0.802 -0.031  0.252  0.503
       0.549 -0.134  0.227  0.715 -0.344
      -0.134 -0.548  0.046 -0.369 -0.738
     occupation matrix ns (before diag.):
       0.991  0.000 -0.000  0.000  0.000
       0.000  0.757 -0.000  0.161 -0.000
      -0.000 -0.000  0.757  0.000 -0.160
       0.000  0.161  0.000  0.881  0.000
       0.000 -0.000 -0.160  0.000  0.883
     SPIN  2
     eigenvalues:
       0.154  0.164  0.165  0.432  0.433
     eigenvectors (columns):
      -0.999  0.030 -0.024  0.000 -0.000
      -0.019 -0.549  0.127  0.794 -0.227
       0.009 -0.128 -0.548  0.227  0.795
      -0.029 -0.804  0.187 -0.543  0.155
      -0.014  0.187  0.805  0.155  0.541
     occupation matrix ns (before diag.):
       0.154 -0.000  0.000 -0.000 -0.000
      -0.000  0.347 -0.000 -0.125 -0.000
       0.000 -0.000  0.348 -0.000  0.125
      -0.000 -0.125 -0.000  0.249  0.000
      -0.000 -0.000  0.125  0.000  0.250

     Number of occupied Hubbard levels =    5.6185

 ------ SPIN UP ------------


          k = 0.0000 0.0000 0.0000 (****** PWs)   bands (ev):

   -76.1371 -76.1370 -76.0609 -76.0609 -76.0129 -76.0126 -75.9808 -75.9808
   -75.9436 -75.9329 -75.9301 -75.9301 -75.8508 -75.8508 -75.8508 -75.8504
   -75.7726 -75.7725 -47.4876 -47.4866 -47.4632 -47.4621 -47.4578 -47.4575
   -47.4085 -47.4085 -47.3881 -47.3880 -47.3823 -47.3823 -47.3523 -47.3520
   -47.3458 -47.3456 -47.3396 -47.3394 -47.3273 -47.3273 -47.3060 -47.3060
   -47.3014 -47.3014 -47.2825 -47.2759 -47.2732 -47.2713 -47.2697 -47.2697
   -47.2647 -47.2632 -47.2632 -47.2620 -47.2560 -47.2560 -47.1890 -47.1889
   -47.1888 -47.1885 -47.1837 -47.1836 -47.1818 -47.1816 -47.1798 -47.1796
   -47.1764 -47.1763 -47.1103 -47.1100 -47.1065 -47.1045 -47.0973 -47.0972
   -16.2040 -16.0675 -16.0164 -15.9902 -15.9549 -15.8950 -15.8618 -15.7101
   -15.6636 -15.6335 -15.6070 -15.4951 -15.4790 -15.4544 -15.4245 -15.4086
   -15.3804 -15.3553 -15.3459 -15.3331 -15.3315 -15.3102 -15.2942 -15.2750
   -15.2696 -15.2475 -15.2382 -15.2360 -15.2034 -15.1896 -15.1761 -15.1716
   -15.1652 -15.1539 -15.1267 -15.1215 -15.1134 -15.1066 -15.0991 -15.0830
   -15.0766 -15.0649 -15.0314 -15.0224 -15.0069 -14.9959 -14.9861 -14.9101
   -14.8808 -14.8794 -14.8184 -14.8159 -14.7421 -14.7136  -7.9495  -7.8758
    -7.8380  -7.7912  -7.7819  -7.7427  -7.6955  -7.4075  -7.3810  -7.3761
    -7.3662  -7.3314  -7.2916  -7.2648  -7.2345  -7.2199  -7.1430  -7.1361
    -6.9825  -6.9474  -6.9432  -6.8996  -6.8818  -6.8602  -6.8511  -6.8437
    -6.8143  -6.8116  -6.7743  -6.7495  -6.7295  -6.7250  -6.7068  -6.6909
    -6.6849  -6.6737  -6.6499  -6.6422  -6.6303  -6.6043  -6.5890  -6.5887
    -6.5657  -6.5401  -6.5062  -6.4953  -6.4743  -6.4697  -6.4342  -6.4053
    -6.3976  -6.3784  -6.3440  -6.3420  -6.3367  -6.3020  -6.2837  -6.2715
    -6.2552  -6.2366  -6.1939  -6.1676  -6.1531  -6.1229  -6.1183  -6.0887
    -6.0548  -6.0307  -6.0265  -5.9918  -5.9885  -5.9875  -5.9766  -5.9388
    -5.9297  -5.9201  -5.8895  -5.8863  -5.8591  -5.8439  -5.8062  -5.7744
    -5.6846  -5.6523  -5.6276  -5.6263  -5.5825  -5.5178  -5.4999  -5.4730
    -5.4618  -5.4306  -5.3881  -5.3660  -5.3488  -5.3218  -5.2900  -5.2676
    -5.2512  -5.2359  -5.2132  -5.1995  -5.1767  -5.1743  -5.1520  -5.1416
    -5.1270  -5.1218  -5.0646  -5.0474  -5.0280  -5.0210  -5.0200  -5.0080
    -4.9914  -4.9804  -4.9532  -4.9479  -4.9301  -4.9140  -4.8762  -4.8674
    -4.8550  -4.8408  -4.8190  -4.7870  -4.7804  -4.7666  -4.7383  -4.7193
    -4.7073  -4.6938  -4.6854  -4.6785  -4.6778  -4.6261  -4.6104  -4.5549
    -4.5394  -4.5162  -4.4894  -4.4486  -4.4460  -4.4334  -4.4025  -4.3959
    -4.3744  -4.3706  -4.3554  -4.3495  -4.3476  -4.3250  -4.3171  -4.2884
    -4.2866  -4.2427  -4.2206  -4.2170  -4.1952  -4.1846  -4.1547  -4.1307
    -4.1086  -4.0843  -4.0832  -4.0520  -4.0143  -4.0128  -4.0025  -3.9851
    -3.9541  -3.9514  -3.9324  -3.9263  -3.9221  -3.9146  -3.8995  -3.8940
    -3.8881  -3.8852  -3.8817  -3.8540  -3.8406  -3.8381  -3.8301  -3.8290
    -3.8189  -3.8179  -3.7944  -3.7866  -3.7684  -3.7659  -3.7496  -3.7300
    -3.7243  -3.7034  -3.6969  -3.6853  -3.6364  -3.6299  -3.6166  -3.6016
    -3.5972  -3.5793  -3.5052  -3.4975  -3.4893  -3.4718  -3.4416  -3.4354
    -3.4185  -3.3968  -3.3519  -3.3492  -3.3404  -3.3267

          k = 0.0000-0.5774 0.0000 (****** PWs)   bands (ev):

   -76.1371 -76.1370 -76.0609 -76.0609 -76.0129 -76.0126 -75.9808 -75.9808
   -75.9436 -75.9329 -75.9301 -75.9301 -75.8508 -75.8508 -75.8508 -75.8504
   -75.7726 -75.7725 -47.4876 -47.4866 -47.4632 -47.4621 -47.4578 -47.4575
   -47.4085 -47.4085 -47.3881 -47.3880 -47.3823 -47.3823 -47.3523 -47.3520
   -47.3458 -47.3456 -47.3396 -47.3394 -47.3273 -47.3273 -47.3060 -47.3060
   -47.3014 -47.3014 -47.2825 -47.2759 -47.2732 -47.2713 -47.2697 -47.2697
   -47.2647 -47.2632 -47.2632 -47.2620 -47.2560 -47.2560 -47.1890 -47.1889
   -47.1888 -47.1885 -47.1837 -47.1836 -47.1818 -47.1816 -47.1798 -47.1796
   -47.1764 -47.1763 -47.1103 -47.1100 -47.1065 -47.1045 -47.0973 -47.0972
   -16.1928 -16.0984 -16.0244 -15.9976 -15.9271 -15.8637 -15.8451 -15.7596
   -15.6898 -15.5928 -15.5685 -15.5201 -15.5160 -15.4633 -15.4508 -15.3949
   -15.3752 -15.3603 -15.3508 -15.3229 -15.3119 -15.3095 -15.2928 -15.2749
   -15.2507 -15.2409 -15.2304 -15.2175 -15.2062 -15.1964 -15.1819 -15.1725
   -15.1606 -15.1490 -15.1424 -15.1262 -15.1224 -15.1036 -15.1027 -15.0843
   -15.0758 -15.0636 -15.0338 -15.0284 -15.0043 -14.9960 -14.9872 -14.9088
   -14.8800 -14.8790 -14.8170 -14.8167 -14.7420 -14.7134  -7.9348  -7.8817
    -7.8193  -7.7825  -7.7671  -7.7056  -7.6420  -7.5973  -7.5258  -7.3758
    -7.3406  -7.2856  -7.2738  -7.2605  -7.2140  -7.1995  -7.1364  -7.1304
    -6.9745  -6.9476  -6.9364  -6.8992  -6.8747  -6.8688  -6.8425  -6.8380
    -6.8231  -6.8096  -6.7842  -6.7658  -6.7361  -6.7301  -6.7256  -6.7064
    -6.6992  -6.6768  -6.6530  -6.6458  -6.6297  -6.5979  -6.5642  -6.5501
    -6.5276  -6.5139  -6.4900  -6.4871  -6.4606  -6.4446  -6.4277  -6.4144
    -6.4013  -6.3903  -6.3828  -6.3343  -6.3229  -6.2937  -6.2814  -6.2711
    -6.2496  -6.2245  -6.1904  -6.1854  -6.1592  -6.1149  -6.0857  -6.0763
    -6.0639  -6.0439  -6.0223  -6.0056  -5.9845  -5.9828  -5.9608  -5.9194
    -5.9091  -5.8978  -5.8636  -5.8456  -5.8253  -5.8019  -5.7783  -5.7196
    -5.6498  -5.6231  -5.6011  -5.5946  -5.5772  -5.5547  -5.5346  -5.5262
    -5.5086  -5.4939  -5.4707  -5.4483  -5.4386  -5.4102  -5.3893  -5.3661
    -5.3467  -5.3230  -5.3041  -5.2671  -5.2446  -5.2279  -5.2006  -5.1492
    -5.1357  -5.1186  -5.0938  -5.0747  -5.0521  -5.0250  -5.0064  -4.9728
    -4.9517  -4.9171  -4.9060  -4.8945  -4.8765  -4.8535  -4.8133  -4.8035
    -4.7835  -4.7677  -4.7460  -4.7340  -4.7087  -4.6914  -4.6883  -4.6763
    -4.6679  -4.6436  -4.6192  -4.6052  -4.5972  -4.5673  -4.5541  -4.5467
    -4.5350  -4.5247  -4.5101  -4.4907  -4.4706  -4.4500  -4.4427  -4.4352
    -4.4142  -4.4062  -4.3830  -4.3774  -4.3467  -4.3057  -4.2917  -4.2771
    -4.2611  -4.2540  -4.2267  -4.2060  -4.1937  -4.1800  -4.1736  -4.1684
    -4.1614  -4.1491  -4.1197  -4.1143  -4.0853  -4.0631  -4.0425  -4.0058
    -3.9800  -3.9692  -3.9523  -3.9340  -3.9231  -3.9095  -3.8980  -3.8843
    -3.8825  -3.8697  -3.8562  -3.8540  -3.8462  -3.8400  -3.8338  -3.8219
    -3.8118  -3.7908  -3.7863  -3.7788  -3.7706  -3.7529  -3.7278  -3.7136
    -3.6898  -3.6829  -3.6618  -3.6469  -3.6372  -3.6308  -3.6166  -3.6052
    -3.5994  -3.5802  -3.5711  -3.5337  -3.4779  -3.4664  -3.4250  -3.4227
    -3.4113  -3.3962  -3.3714  -3.3519  -3.3442  -3.3300

          k = 0.5000-0.2887 0.0000 (****** PWs)   bands (ev):

   -76.1371 -76.1370 -76.0609 -76.0609 -76.0129 -76.0126 -75.9808 -75.9808
   -75.9436 -75.9329 -75.9301 -75.9301 -75.8508 -75.8508 -75.8508 -75.8504
   -75.7726 -75.7725 -47.4876 -47.4866 -47.4632 -47.4621 -47.4578 -47.4575
   -47.4085 -47.4085 -47.3881 -47.3880 -47.3823 -47.3823 -47.3523 -47.3520
   -47.3458 -47.3456 -47.3396 -47.3394 -47.3273 -47.3273 -47.3060 -47.3060
   -47.3014 -47.3014 -47.2825 -47.2759 -47.2732 -47.2713 -47.2697 -47.2697
   -47.2647 -47.2632 -47.2632 -47.2620 -47.2560 -47.2560 -47.1890 -47.1889
   -47.1888 -47.1885 -47.1837 -47.1836 -47.1818 -47.1816 -47.1798 -47.1796
   -47.1764 -47.1763 -47.1103 -47.1100 -47.1065 -47.1045 -47.0973 -47.0972
   -16.1864 -16.1184 -16.0218 -15.9705 -15.9336 -15.8680 -15.8512 -15.7684
   -15.6568 -15.6290 -15.5554 -15.5246 -15.5192 -15.4708 -15.4488 -15.3966
   -15.3639 -15.3545 -15.3492 -15.3122 -15.3081 -15.2998 -15.2965 -15.2773
   -15.2510 -15.2480 -15.2276 -15.2207 -15.2175 -15.2028 -15.1952 -15.1643
   -15.1627 -15.1446 -15.1390 -15.1264 -15.1223 -15.1054 -15.1033 -15.0777
   -15.0747 -15.0691 -15.0310 -15.0299 -15.0028 -14.9982 -14.9849 -14.9074
   -14.8803 -14.8797 -14.8184 -14.8155 -14.7422 -14.7134  -7.9287  -7.8943
    -7.7963  -7.7925  -7.7451  -7.7068  -7.6984  -7.5590  -7.5436  -7.3770
    -7.3327  -7.2927  -7.2488  -7.2442  -7.2255  -7.2199  -7.1425  -7.1250
    -6.9717  -6.9458  -6.9414  -6.8967  -6.8800  -6.8727  -6.8488  -6.8353
    -6.8271  -6.8140  -6.8044  -6.7685  -6.7658  -6.7541  -6.7114  -6.6993
    -6.6708  -6.6686  -6.6236  -6.6214  -6.6028  -6.5898  -6.5629  -6.5234
    -6.5209  -6.5098  -6.5037  -6.5027  -6.4726  -6.4551  -6.4343  -6.4087
    -6.3931  -6.3772  -6.3733  -6.3607  -6.3112  -6.3083  -6.2893  -6.2819
    -6.2675  -6.2486  -6.1955  -6.1920  -6.1276  -6.1171  -6.0834  -6.0677
    -6.0444  -6.0374  -6.0231  -6.0028  -5.9959  -5.9694  -5.9478  -5.9162
    -5.9143  -5.8993  -5.8992  -5.8734  -5.8631  -5.8436  -5.7939  -5.6741
    -5.6488  -5.6127  -5.5781  -5.5576  -5.5505  -5.5282  -5.5272  -5.5103
    -5.5087  -5.4911  -5.4805  -5.4660  -5.4495  -5.4347  -5.3954  -5.3803
    -5.3653  -5.3477  -5.3323  -5.2656  -5.2294  -5.2027  -5.1834  -5.1583
    -5.1273  -5.0852  -5.0816  -5.0653  -5.0484  -5.0250  -5.0026  -4.9979
    -4.9452  -4.9392  -4.9146  -4.8761  -4.8749  -4.8393  -4.8128  -4.8007
    -4.7885  -4.7801  -4.7373  -4.7356  -4.7186  -4.7069  -4.6870  -4.6685
    -4.6641  -4.6312  -4.6299  -4.6057  -4.5963  -4.5818  -4.5683  -4.5633
    -4.5483  -4.5100  -4.4741  -4.4715  -4.4596  -4.4589  -4.4422  -4.4302
    -4.4245  -4.4073  -4.4052  -4.3911  -4.3642  -4.2932  -4.2856  -4.2754
    -4.2665  -4.2348  -4.2210  -4.2146  -4.2006  -4.1864  -4.1741  -4.1624
    -4.1523  -4.1380  -4.1285  -4.0958  -4.0813  -4.0786  -4.0278  -4.0103
    -3.9939  -3.9704  -3.9416  -3.9317  -3.9145  -3.9131  -3.9071  -3.8933
    -3.8839  -3.8805  -3.8705  -3.8627  -3.8515  -3.8371  -3.8271  -3.8263
    -3.8066  -3.7984  -3.7903  -3.7731  -3.7652  -3.7397  -3.7269  -3.7107
    -3.6926  -3.6914  -3.6665  -3.6521  -3.6303  -3.6264  -3.6230  -3.6125
    -3.5766  -3.5750  -3.5558  -3.5311  -3.4989  -3.4506  -3.4503  -3.4249
    -3.4216  -3.3869  -3.3601  -3.3582  -3.3359  -3.3260

          k =-0.5000-0.2887 0.0000 (****** PWs)   bands (ev):

   -76.1371 -76.1370 -76.0609 -76.0609 -76.0129 -76.0126 -75.9808 -75.9808
   -75.9436 -75.9329 -75.9301 -75.9301 -75.8508 -75.8508 -75.8508 -75.8504
   -75.7726 -75.7725 -47.4876 -47.4866 -47.4632 -47.4621 -47.4578 -47.4575
   -47.4085 -47.4085 -47.3881 -47.3880 -47.3823 -47.3823 -47.3523 -47.3520
   -47.3458 -47.3456 -47.3396 -47.3394 -47.3273 -47.3273 -47.3060 -47.3060
   -47.3014 -47.3014 -47.2825 -47.2759 -47.2732 -47.2713 -47.2697 -47.2697
   -47.2647 -47.2632 -47.2632 -47.2620 -47.2560 -47.2560 -47.1890 -47.1889
   -47.1888 -47.1885 -47.1837 -47.1836 -47.1818 -47.1816 -47.1798 -47.1796
   -47.1764 -47.1763 -47.1103 -47.1100 -47.1065 -47.1045 -47.0973 -47.0972
   -16.1928 -16.0984 -16.0242 -15.9976 -15.9272 -15.8638 -15.8450 -15.7596
   -15.6898 -15.5927 -15.5686 -15.5200 -15.5161 -15.4634 -15.4508 -15.3949
   -15.3754 -15.3602 -15.3507 -15.3228 -15.3118 -15.3096 -15.2929 -15.2749
   -15.2511 -15.2408 -15.2302 -15.2174 -15.2063 -15.1965 -15.1818 -15.1726
   -15.1608 -15.1484 -15.1425 -15.1262 -15.1229 -15.1034 -15.1032 -15.0838
   -15.0757 -15.0638 -15.0341 -15.0283 -15.0041 -14.9961 -14.9872 -14.9088
   -14.8800 -14.8790 -14.8170 -14.8167 -14.7420 -14.7134  -7.9348  -7.8820
    -7.8189  -7.7826  -7.7671  -7.7053  -7.6427  -7.5970  -7.5258  -7.3759
    -7.3407  -7.2850  -7.2739  -7.2606  -7.2142  -7.1996  -7.1365  -7.1302
    -6.9746  -6.9480  -6.9362  -6.8985  -6.8758  -6.8676  -6.8442  -6.8377
    -6.8228  -6.8085  -6.7849  -6.7653  -6.7362  -6.7297  -6.7261  -6.7063
    -6.6989  -6.6767  -6.6529  -6.6461  -6.6295  -6.5984  -6.5640  -6.5505
    -6.5292  -6.5135  -6.4921  -6.4857  -6.4593  -6.4437  -6.4270  -6.4159
    -6.4010  -6.3908  -6.3817  -6.3339  -6.3229  -6.2939  -6.2805  -6.2704
    -6.2508  -6.2245  -6.1902  -6.1863  -6.1586  -6.1116  -6.0850  -6.0807
    -6.0691  -6.0439  -6.0227  -6.0045  -5.9828  -5.9807  -5.9601  -5.9200
    -5.9090  -5.8982  -5.8636  -5.8451  -5.8256  -5.8012  -5.7775  -5.7205
    -5.6506  -5.6222  -5.5991  -5.5967  -5.5755  -5.5538  -5.5373  -5.5264
    -5.5085  -5.4942  -5.4709  -5.4483  -5.4380  -5.4100  -5.3902  -5.3660
    -5.3468  -5.3222  -5.3041  -5.2659  -5.2447  -5.2293  -5.2004  -5.1496
    -5.1339  -5.1182  -5.0936  -5.0754  -5.0523  -5.0267  -5.0060  -4.9730
    -4.9512  -4.9174  -4.9057  -4.8941  -4.8772  -4.8550  -4.8131  -4.8030
    -4.7855  -4.7665  -4.7455  -4.7346  -4.7092  -4.6929  -4.6879  -4.6734
    -4.6669  -4.6427  -4.6199  -4.6043  -4.5969  -4.5670  -4.5538  -4.5478
    -4.5345  -4.5246  -4.5086  -4.4917  -4.4706  -4.4478  -4.4426  -4.4369
    -4.4171  -4.4077  -4.3841  -4.3760  -4.3472  -4.3060  -4.2922  -4.2740
    -4.2614  -4.2532  -4.2276  -4.2063  -4.1936  -4.1807  -4.1736  -4.1687
    -4.1606  -4.1469  -4.1195  -4.1149  -4.0875  -4.0633  -4.0420  -4.0058
    -3.9806  -3.9711  -3.9508  -3.9314  -3.9245  -3.9105  -3.8953  -3.8863
    -3.8813  -3.8697  -3.8577  -3.8553  -3.8468  -3.8389  -3.8340  -3.8179
    -3.8121  -3.7914  -3.7863  -3.7803  -3.7712  -3.7521  -3.7268  -3.7130
    -3.6912  -3.6834  -3.6620  -3.6456  -3.6383  -3.6310  -3.6169  -3.6047
    -3.5991  -3.5812  -3.5707  -3.5329  -3.4768  -3.4672  -3.4252  -3.4240
    -3.4104  -3.3962  -3.3718  -3.3518  -3.3431  -3.3307

 ------ SPIN DOWN ----------


          k = 0.0000 0.0000 0.0000 (****** PWs)   bands (ev):

   -72.9791 -72.9790 -72.9727 -72.9724 -72.9069 -72.9068 -72.8951 -72.8929
   -72.8929 -72.8715 -72.8343 -72.8343 -72.8187 -72.8186 -72.8160 -72.8157
   -72.7430 -72.7429 -44.3884 -44.3871 -44.3785 -44.3782 -44.3622 -44.3605
   -44.3479 -44.3476 -44.3350 -44.3347 -44.3319 -44.3316 -44.3123 -44.3122
   -44.3003 -44.2983 -44.2982 -44.2841 -44.2840 -44.2772 -44.2693 -44.2693
   -44.2673 -44.2673 -44.2659 -44.2626 -44.2543 -44.2543 -44.2430 -44.2398
   -44.2348 -44.2348 -44.2205 -44.2202 -44.2189 -44.2188 -44.2123 -44.2123
   -44.1955 -44.1955 -44.1931 -44.1930 -44.1871 -44.1867 -44.1839 -44.1837
   -44.1830 -44.1828 -44.1429 -44.1424 -44.1181 -44.1161 -44.1084 -44.1077
   -16.2129 -16.0797 -16.0319 -16.0038 -15.9702 -15.9096 -15.8817 -15.7346
   -15.6901 -15.6629 -15.6388 -15.5371 -15.5156 -15.5037 -15.4623 -15.4508
   -15.4286 -15.4037 -15.3935 -15.3751 -15.3734 -15.3590 -15.3431 -15.3214
   -15.3178 -15.2957 -15.2872 -15.2851 -15.2519 -15.2363 -15.2265 -15.2208
   -15.2134 -15.2023 -15.1749 -15.1744 -15.1633 -15.1494 -15.1446 -15.1332
   -15.1279 -15.1086 -15.0896 -15.0742 -15.0627 -15.0438 -15.0353 -14.9691
   -14.9509 -14.9447 -14.8862 -14.8832 -14.8112 -14.7844  -7.6644  -7.6172
    -7.5760  -7.5329  -7.5256  -7.4864  -7.4404  -7.1620  -7.1316  -7.1309
    -7.1175  -7.0831  -7.0438  -7.0189  -6.9955  -6.9768  -6.9053  -6.9026
    -6.8575  -6.8507  -6.8129  -6.7784  -6.7583  -6.7254  -6.6703  -6.6426
    -6.6290  -6.6085  -6.6002  -6.5551  -6.5457  -6.5446  -6.5271  -6.5244
    -6.4733  -6.4653  -6.4502  -6.4206  -6.4156  -6.4035  -6.3768  -6.3505
    -6.3431  -6.2985  -6.2961  -6.2932  -6.2534  -6.1855  -6.1475  -6.1350
    -6.1300  -6.0561  -6.0441  -6.0237  -6.0001  -5.9936  -5.9453  -5.9365
    -5.9335  -5.9272  -5.8849  -5.8788  -5.8544  -5.8105  -5.7945  -5.6182
    -5.6047  -5.5933  -5.5771  -5.5680  -5.5483  -5.5452  -5.5301  -5.5032
    -5.4961  -5.4938  -5.4842  -5.4536  -5.3996  -5.3974  -5.3847  -5.3625
    -5.3065  -5.2761  -5.2252  -5.2089  -5.1869  -5.1438  -5.1059  -5.1047
    -5.0954  -5.0609  -5.0251  -5.0173  -4.9819  -4.9784  -4.9658  -4.9582
    -4.9447  -4.9225  -4.9093  -4.8770  -4.8600  -4.8474  -4.8200  -4.8186
    -4.8008  -4.7850  -4.7717  -4.7713  -4.7482  -4.7459  -4.7216  -4.7144
    -4.6932  -4.6766  -4.6757  -4.6326  -4.6306  -4.5715  -4.5613  -4.5540
    -4.5501  -4.5451  -4.4743  -4.4571  -4.4478  -4.4466  -4.4076  -4.3773
    -4.3664  -4.3481  -4.3219  -4.3156  -4.3017  -4.2893  -4.2566  -4.2451
    -4.2333  -4.2193  -4.2093  -4.1717  -4.1104  -4.0733  -4.0689  -4.0562
    -4.0549  -3.9980  -3.9966  -3.9812  -3.9805  -3.9677  -3.9190  -3.8957
    -3.8676  -3.8327  -3.8153  -3.7654  -3.7240  -3.6877  -3.6152  -3.5914
    -1.5491  -1.5390  -1.5075  -1.5036  -1.4796  -1.4730  -1.4576  -1.4550
    -1.4162  -1.4082  -1.4046  -1.3940  -1.3778  -1.3689  -1.3457  -1.3327
    -1.3282  -1.3188  -1.3112  -1.2901  -1.2764  -1.2654  -1.2552  -1.2462
    -1.2392  -1.2244  -1.2049  -1.2006  -1.1881  -1.1629  -1.1372  -1.1216
    -1.1161  -1.1033  -1.0993  -1.0910  -1.0712  -1.0705  -1.0553  -1.0520
    -1.0456  -1.0424  -1.0294  -1.0236  -1.0223  -1.0102  -1.0047  -0.9996
    -0.9893  -0.9821  -0.9713  -0.9623  -0.9506  -0.9289

          k = 0.0000-0.5774 0.0000 (****** PWs)   bands (ev):

   -72.9791 -72.9790 -72.9727 -72.9724 -72.9069 -72.9068 -72.8951 -72.8929
   -72.8929 -72.8715 -72.8343 -72.8343 -72.8187 -72.8186 -72.8160 -72.8157
   -72.7430 -72.7429 -44.3884 -44.3871 -44.3785 -44.3782 -44.3622 -44.3605
   -44.3479 -44.3476 -44.3350 -44.3347 -44.3319 -44.3317 -44.3123 -44.3122
   -44.3003 -44.2983 -44.2982 -44.2841 -44.2840 -44.2772 -44.2693 -44.2693
   -44.2673 -44.2673 -44.2659 -44.2626 -44.2543 -44.2543 -44.2430 -44.2398
   -44.2348 -44.2348 -44.2205 -44.2202 -44.2189 -44.2188 -44.2123 -44.2123
   -44.1955 -44.1955 -44.1931 -44.1930 -44.1871 -44.1867 -44.1839 -44.1837
   -44.1830 -44.1828 -44.1429 -44.1424 -44.1181 -44.1161 -44.1084 -44.1077
   -16.2020 -16.1099 -16.0389 -16.0115 -15.9430 -15.8794 -15.8643 -15.7819
   -15.7186 -15.6250 -15.6029 -15.5559 -15.5499 -15.5027 -15.4980 -15.4449
   -15.4204 -15.4048 -15.3996 -15.3666 -15.3585 -15.3573 -15.3416 -15.3230
   -15.2964 -15.2867 -15.2765 -15.2668 -15.2560 -15.2428 -15.2333 -15.2223
   -15.2103 -15.1962 -15.1949 -15.1760 -15.1705 -15.1500 -15.1467 -15.1334
   -15.1258 -15.1071 -15.0917 -15.0837 -15.0589 -15.0453 -15.0342 -14.9683
   -14.9503 -14.9437 -14.8846 -14.8843 -14.8111 -14.7843  -7.6559  -7.6139
    -7.5567  -7.5205  -7.5125  -7.4526  -7.3899  -7.3480  -7.2762  -7.1240
    -7.0925  -7.0402  -7.0267  -7.0177  -6.9710  -6.9649  -6.9042  -6.8958
    -6.8587  -6.8340  -6.8129  -6.7647  -6.7296  -6.7153  -6.6850  -6.6606
    -6.6535  -6.6317  -6.6166  -6.5937  -6.5584  -6.5501  -6.5220  -6.4912
    -6.4888  -6.4667  -6.4558  -6.4289  -6.4251  -6.3859  -6.3346  -6.3209
    -6.3126  -6.2694  -6.2503  -6.2271  -6.1964  -6.1921  -6.1654  -6.1510
    -6.1297  -6.1098  -6.0955  -6.0783  -6.0436  -6.0270  -5.9747  -5.9618
    -5.9412  -5.8974  -5.8529  -5.8016  -5.8008  -5.6628  -5.6532  -5.6306
    -5.6237  -5.6041  -5.5801  -5.5719  -5.5482  -5.5333  -5.5125  -5.5012
    -5.4781  -5.4671  -5.4506  -5.4241  -5.4156  -5.3756  -5.3514  -5.3213
    -5.2994  -5.2832  -5.2451  -5.2379  -5.2208  -5.2124  -5.1887  -5.1683
    -5.1521  -5.1268  -5.1189  -5.0950  -5.0817  -5.0788  -5.0576  -5.0304
    -5.0059  -4.9544  -4.9366  -4.9313  -4.9219  -4.8892  -4.8740  -4.8598
    -4.8416  -4.8240  -4.8148  -4.7915  -4.7026  -4.6871  -4.6724  -4.6708
    -4.6429  -4.6243  -4.5892  -4.5748  -4.5628  -4.5412  -4.4961  -4.4939
    -4.4859  -4.4683  -4.4452  -4.4435  -4.4244  -4.4093  -4.3944  -4.3434
    -4.3239  -4.3056  -4.2966  -4.2835  -4.2645  -4.2503  -4.2345  -4.2132
    -4.1743  -4.1587  -4.1528  -4.1261  -4.1058  -4.0883  -4.0834  -4.0608
    -4.0589  -4.0332  -4.0071  -3.9838  -3.9607  -3.9524  -3.9474  -3.9089
    -3.9018  -3.8663  -3.8337  -3.8101  -3.7741  -3.7676  -3.7061  -3.6395
    -1.5538  -1.5517  -1.5214  -1.5135  -1.4904  -1.4699  -1.4610  -1.4509
    -1.4366  -1.4197  -1.4029  -1.3863  -1.3757  -1.3618  -1.3520  -1.3294
    -1.3174  -1.3059  -1.2843  -1.2768  -1.2645  -1.2513  -1.2401  -1.2338
    -1.2209  -1.2024  -1.1895  -1.1783  -1.1694  -1.1599  -1.1434  -1.1365
    -1.1305  -1.1252  -1.1200  -1.1020  -1.0939  -1.0814  -1.0765  -1.0691
    -1.0574  -1.0464  -1.0355  -1.0279  -1.0250  -1.0187  -1.0038  -0.9999
    -0.9954  -0.9807  -0.9714  -0.9531  -0.9364  -0.9264

          k = 0.5000-0.2887 0.0000 (****** PWs)   bands (ev):

   -72.9791 -72.9790 -72.9727 -72.9724 -72.9069 -72.9068 -72.8951 -72.8929
   -72.8929 -72.8715 -72.8343 -72.8343 -72.8187 -72.8186 -72.8160 -72.8157
   -72.7430 -72.7429 -44.3884 -44.3871 -44.3785 -44.3782 -44.3622 -44.3605
   -44.3479 -44.3476 -44.3350 -44.3347 -44.3319 -44.3317 -44.3123 -44.3122
   -44.3003 -44.2983 -44.2982 -44.2841 -44.2840 -44.2772 -44.2693 -44.2693
   -44.2673 -44.2673 -44.2659 -44.2626 -44.2543 -44.2543 -44.2430 -44.2398
   -44.2348 -44.2348 -44.2205 -44.2202 -44.2189 -44.2188 -44.2123 -44.2123
   -44.1955 -44.1955 -44.1931 -44.1930 -44.1871 -44.1867 -44.1839 -44.1837
   -44.1830 -44.1828 -44.1429 -44.1424 -44.1181 -44.1161 -44.1084 -44.1077
   -16.1959 -16.1293 -16.0363 -15.9853 -15.9490 -15.8864 -15.8659 -15.7919
   -15.6905 -15.6596 -15.5865 -15.5612 -15.5509 -15.5066 -15.4987 -15.4464
   -15.4128 -15.3989 -15.3980 -15.3569 -15.3547 -15.3470 -15.3439 -15.3248
   -15.2991 -15.2940 -15.2742 -15.2689 -15.2679 -15.2496 -15.2456 -15.2158
   -15.2141 -15.1904 -15.1856 -15.1762 -15.1715 -15.1514 -15.1501 -15.1259
   -15.1224 -15.1143 -15.0890 -15.0848 -15.0591 -15.0464 -15.0317 -14.9675
   -14.9509 -14.9437 -14.8863 -14.8828 -14.8113 -14.7842  -7.6514  -7.6216
    -7.5385  -7.5352  -7.4842  -7.4546  -7.4444  -7.3112  -7.2942  -7.1252
    -7.0833  -7.0476  -7.0065  -7.0048  -6.9818  -6.9720  -6.9073  -6.8930
    -6.8490  -6.8376  -6.8223  -6.7548  -6.7262  -6.7100  -6.7032  -6.6850
    -6.6562  -6.6468  -6.6343  -6.5751  -6.5737  -6.5626  -6.5353  -6.4934
    -6.4614  -6.4431  -6.4169  -6.4090  -6.3866  -6.3693  -6.3544  -6.3254
    -6.2971  -6.2926  -6.2737  -6.2290  -6.2244  -6.1904  -6.1589  -6.1492
    -6.1413  -6.1170  -6.0829  -6.0582  -5.9952  -5.9894  -5.9864  -5.9721
    -5.9495  -5.9331  -5.9201  -5.8076  -5.7688  -5.6943  -5.6684  -5.6543
    -5.6267  -5.5902  -5.5611  -5.5595  -5.5521  -5.5268  -5.5031  -5.4857
    -5.4827  -5.4712  -5.4655  -5.4371  -5.4087  -5.4052  -5.3690  -5.2976
    -5.2889  -5.2633  -5.2477  -5.2227  -5.2185  -5.2008  -5.1821  -5.1770
    -5.1556  -5.1419  -5.1281  -5.0990  -5.0725  -5.0704  -5.0347  -5.0232
    -5.0058  -4.9657  -4.9562  -4.9350  -4.9163  -4.9099  -4.8596  -4.8465
    -4.8343  -4.8190  -4.8188  -4.7015  -4.7011  -4.6963  -4.6760  -4.6605
    -4.6517  -4.6379  -4.6214  -4.6066  -4.5627  -4.5381  -4.5183  -4.5179
    -4.4983  -4.4530  -4.4303  -4.4253  -4.4032  -4.3898  -4.3738  -4.3470
    -4.3330  -4.3193  -4.2882  -4.2834  -4.2717  -4.2417  -4.2394  -4.2337
    -4.2114  -4.1884  -4.1568  -4.1191  -4.0961  -4.0834  -4.0733  -4.0449
    -4.0360  -4.0344  -4.0235  -3.9889  -3.9600  -3.9532  -3.9478  -3.9259
    -3.9076  -3.8396  -3.8394  -3.8282  -3.8161  -3.6944  -3.6883  -3.6637
    -1.5649  -1.5533  -1.5183  -1.5094  -1.4943  -1.4792  -1.4705  -1.4395
    -1.4266  -1.4189  -1.3996  -1.3940  -1.3758  -1.3564  -1.3496  -1.3324
    -1.3019  -1.2938  -1.2828  -1.2716  -1.2602  -1.2460  -1.2450  -1.2304
    -1.2272  -1.2092  -1.1933  -1.1848  -1.1679  -1.1607  -1.1532  -1.1384
    -1.1341  -1.1147  -1.1116  -1.1030  -1.0979  -1.0863  -1.0849  -1.0784
    -1.0711  -1.0481  -1.0354  -1.0248  -1.0197  -1.0178  -1.0157  -0.9958
    -0.9949  -0.9752  -0.9665  -0.9636  -0.9332  -0.9180

          k =-0.5000-0.2887 0.0000 (****** PWs)   bands (ev):

   -72.9791 -72.9790 -72.9727 -72.9724 -72.9069 -72.9068 -72.8951 -72.8929
   -72.8929 -72.8715 -72.8343 -72.8343 -72.8187 -72.8186 -72.8160 -72.8157
   -72.7430 -72.7429 -44.3884 -44.3871 -44.3785 -44.3782 -44.3622 -44.3605
   -44.3479 -44.3476 -44.3350 -44.3347 -44.3319 -44.3317 -44.3123 -44.3122
   -44.3003 -44.2983 -44.2982 -44.2841 -44.2840 -44.2772 -44.2693 -44.2693
   -44.2673 -44.2673 -44.2659 -44.2626 -44.2543 -44.2543 -44.2430 -44.2398
   -44.2348 -44.2348 -44.2205 -44.2202 -44.2189 -44.2188 -44.2123 -44.2123
   -44.1955 -44.1955 -44.1931 -44.1930 -44.1871 -44.1867 -44.1839 -44.1837
   -44.1830 -44.1828 -44.1429 -44.1424 -44.1181 -44.1161 -44.1084 -44.1077
   -16.2021 -16.1098 -16.0391 -16.0115 -15.9428 -15.8792 -15.8644 -15.7820
   -15.7186 -15.6249 -15.6029 -15.5561 -15.5499 -15.5027 -15.4978 -15.4450
   -15.4201 -15.4049 -15.3998 -15.3665 -15.3587 -15.3573 -15.3415 -15.3231
   -15.2960 -15.2869 -15.2766 -15.2667 -15.2560 -15.2427 -15.2334 -15.2223
   -15.2102 -15.1964 -15.1950 -15.1758 -15.1705 -15.1498 -15.1466 -15.1336
   -15.1260 -15.1071 -15.0916 -15.0836 -15.0589 -15.0453 -15.0341 -14.9683
   -14.9503 -14.9437 -14.8846 -14.8842 -14.8111 -14.7843  -7.6559  -7.6136
    -7.5572  -7.5203  -7.5126  -7.4526  -7.3895  -7.3482  -7.2763  -7.1241
    -7.0924  -7.0402  -7.0267  -7.0177  -6.9711  -6.9647  -6.9041  -6.8959
    -6.8587  -6.8341  -6.8128  -6.7650  -6.7291  -6.7148  -6.6856  -6.6601
    -6.6535  -6.6326  -6.6163  -6.5938  -6.5586  -6.5500  -6.5222  -6.4909
    -6.4893  -6.4670  -6.4556  -6.4287  -6.4244  -6.3858  -6.3347  -6.3213
    -6.3121  -6.2691  -6.2499  -6.2278  -6.1965  -6.1919  -6.1654  -6.1510
    -6.1300  -6.1100  -6.0954  -6.0790  -6.0436  -6.0259  -5.9747  -5.9618
    -5.9417  -5.8975  -5.8531  -5.8018  -5.8005  -5.6621  -5.6537  -5.6313
    -5.6240  -5.6019  -5.5779  -5.5715  -5.5485  -5.5335  -5.5146  -5.5032
    -5.4793  -5.4668  -5.4487  -5.4240  -5.4161  -5.3757  -5.3518  -5.3212
    -5.2996  -5.2823  -5.2446  -5.2375  -5.2221  -5.2121  -5.1889  -5.1679
    -5.1530  -5.1270  -5.1185  -5.0950  -5.0814  -5.0784  -5.0574  -5.0306
    -5.0066  -4.9542  -4.9363  -4.9310  -4.9221  -4.8894  -4.8742  -4.8601
    -4.8417  -4.8233  -4.8142  -4.7914  -4.7028  -4.6876  -4.6724  -4.6712
    -4.6429  -4.6242  -4.5894  -4.5751  -4.5627  -4.5413  -4.4957  -4.4937
    -4.4857  -4.4687  -4.4450  -4.4435  -4.4241  -4.4092  -4.3940  -4.3437
    -4.3240  -4.3057  -4.2967  -4.2832  -4.2646  -4.2502  -4.2346  -4.2134
    -4.1745  -4.1587  -4.1526  -4.1260  -4.1059  -4.0882  -4.0833  -4.0608
    -4.0589  -4.0333  -4.0072  -3.9838  -3.9607  -3.9523  -3.9473  -3.9089
    -3.9021  -3.8663  -3.8335  -3.8103  -3.7741  -3.7674  -3.7062  -3.6394
    -1.5549  -1.5502  -1.5221  -1.5112  -1.4889  -1.4714  -1.4667  -1.4517
    -1.4356  -1.4206  -1.4005  -1.3847  -1.3774  -1.3583  -1.3520  -1.3308
    -1.3162  -1.3035  -1.2833  -1.2782  -1.2622  -1.2517  -1.2488  -1.2321
    -1.2204  -1.1999  -1.1877  -1.1797  -1.1695  -1.1574  -1.1477  -1.1375
    -1.1312  -1.1268  -1.1208  -1.1006  -1.0918  -1.0825  -1.0775  -1.0696
    -1.0542  -1.0477  -1.0335  -1.0267  -1.0264  -1.0199  -1.0044  -0.9977
    -0.9944  -0.9809  -0.9706  -0.9555  -0.9369  -0.9258

     highest occupied, lowest unoccupied level (ev):    -3.3260   -1.5649

!    total energy              =  -24931.18928633 Ry
     total all-electron energy =    -24931.189286 Ry
     estimated scf accuracy    <          5.3E-11 Ry

     The total energy is the sum of the following terms:
     one-electron contribution =  -25177.31641341 Ry
     hartree contribution      =   12523.82328590 Ry
     xc contribution           =    -743.78669717 Ry
     ewald contribution        =    8913.20911809 Ry
     Hubbard energy            =      -0.01073098 Ry
     one-center paw contrib.   =  -20447.10784875 Ry

     total magnetization       =    54.00 Bohr mag/cell
     absolute magnetization    =    65.45 Bohr mag/cell

     convergence has been achieved in  12 iterations

     negative rho (up, down):  1.304E-01 1.475E-01

     Forces acting on atoms (cartesian axes, Ry/au):

     atom    1 type  1   force =    -0.00111034   -0.00194421    0.00011874
     atom    2 type  3   force =    -0.00245411   -0.00776975    0.00226471
     atom    3 type  3   force =    -0.00550259   -0.00601659    0.00226493
     atom    4 type  2   force =     0.00486994   -0.02270535   -0.00065676
     atom    5 type  2   force =    -0.00320451   -0.00555907   -0.00949170
     atom    6 type  2   force =    -0.02210337   -0.00713702   -0.00065748
     atom    7 type  2   force =     0.00731123   -0.02442594   -0.00194456
     atom    8 type  2   force =     0.00247507    0.00427286    0.00888658
     atom    9 type  2   force =    -0.02481265   -0.00588308   -0.00194374
     atom   10 type  3   force =    -0.00176094   -0.00209470    0.00022888
     atom   11 type  3   force =    -0.00562136   -0.00546406    0.00214583
     atom   12 type  2   force =     0.00494643    0.00062748   -0.00970603
     atom   13 type  2   force =    -0.00290019   -0.00482884   -0.00926309
     atom   14 type  2   force =    -0.02182060   -0.00648148   -0.00078089
     atom   15 type  2   force =    -0.00560972    0.00087637    0.00924563
     atom   16 type  2   force =     0.00235566    0.00469178    0.00945636
     atom   17 type  2   force =    -0.02497471   -0.00541913   -0.00195969
     atom   18 type  3   force =    -0.00134499   -0.00139014   -0.00052529
     atom   19 type  3   force =    -0.01444188    0.02876784    0.00308827
     atom   20 type  2   force =     0.00466501    0.00073089   -0.00975775
     atom   21 type  2   force =    -0.00418141    0.00236458   -0.00760093
     atom   22 type  2   force =    -0.01977180   -0.00451688    0.00137870
     atom   23 type  2   force =    -0.00560576    0.00077180    0.00953183
     atom   24 type  2   force =    -0.00279674    0.01174656    0.00748458
     atom   25 type  2   force =    -0.02316295    0.00012022   -0.00335667
     atom   26 type  3   force =    -0.00192602   -0.00759385    0.00214560
     atom   27 type  3   force =    -0.00093010   -0.00250146    0.00022797
     atom   28 type  2   force =     0.00529760   -0.02213265   -0.00078018
     atom   29 type  2   force =    -0.00272223   -0.00492434   -0.00926049
     atom   30 type  2   force =    -0.00194659    0.00457334   -0.00970646
     atom   31 type  2   force =     0.00779666   -0.02433396   -0.00196055
     atom   32 type  2   force =     0.00289887    0.00436570    0.00945495
     atom   33 type  2   force =     0.00355372   -0.00441858    0.00924391
     atom   34 type  3   force =    -0.00108217   -0.00199454    0.00012240
     atom   35 type  2   force =     0.00569702    0.00068490   -0.01017703
     atom   36 type  2   force =    -0.00303319   -0.00429049   -0.00950284
     atom   37 type  2   force =    -0.00171985    0.00532354   -0.00986208
     atom   38 type  2   force =    -0.00535174    0.00047971    0.00959806
     atom   39 type  2   force =     0.00248474    0.00527110    0.01030300
     atom   40 type  2   force =     0.00338389   -0.00395343    0.00928401
     atom   41 type  3   force =    -0.00067460   -0.00121823   -0.00063970
     atom   42 type  3   force =    -0.00990695    0.03240304    0.00109807
     atom   43 type  2   force =     0.00516019    0.00124868   -0.00990184
     atom   44 type  2   force =    -0.00376788    0.00281028   -0.00757536
     atom   45 type  2   force =    -0.00022072    0.00755296   -0.00794240
     atom   46 type  2   force =    -0.00512949    0.00081737    0.00956387
     atom   47 type  2   force =    -0.00238163    0.01193016    0.00802070
     atom   48 type  2   force =     0.00497952    0.00145635    0.00795488
     atom   49 type  3   force =     0.03213171    0.00187541    0.00308775
     atom   50 type  3   force =    -0.00053376   -0.00185858   -0.00052492
     atom   51 type  2   force =     0.00597306   -0.01937534    0.00137964
     atom   52 type  2   force =     0.00414537   -0.00244291   -0.00760061
     atom   53 type  2   force =    -0.00170901    0.00439997   -0.00975534
     atom   54 type  2   force =     0.01168588   -0.01999523   -0.00335798
     atom   55 type  2   force =     0.01157701    0.00344719    0.00748445
     atom   56 type  2   force =     0.00346438   -0.00447246    0.00953133
     atom   57 type  3   force =     0.03300632    0.00762114    0.00109677
     atom   58 type  3   force =    -0.00076861   -0.00122526   -0.00063915
     atom   59 type  2   force =     0.00665115    0.00359400   -0.00794198
     atom   60 type  2   force =     0.00434158   -0.00185981   -0.00757304
     atom   61 type  2   force =    -0.00121936    0.00552020   -0.01021534
     atom   62 type  2   force =    -0.00122910    0.00505045    0.00795302
     atom   63 type  2   force =     0.01152536    0.00389348    0.00801840
     atom   64 type  2   force =     0.00379388   -0.00399424    0.00987675
     atom   65 type  3   force =     0.03345631    0.00836814    0.00038895
     atom   66 type  3   force =    -0.00947775    0.03316350    0.00038874
     atom   67 type  2   force =     0.00635362    0.00365256   -0.00799066
     atom   68 type  2   force =     0.00304871    0.00526822   -0.00612705
     atom   69 type  2   force =    -0.00002299    0.00732833   -0.00799302
     atom   70 type  2   force =    -0.00130073    0.00479746    0.00826185
     atom   71 type  2   force =     0.00641496    0.01110420    0.00583020
     atom   72 type  2   force =     0.00479028    0.00124984    0.00826231

     Total force =     0.137584     Total SCF correction =     0.000010


     Computing stress (Cartesian axis) and pressure


     negative rho (up, down):  1.304E-01 1.475E-01
          total   stress  (Ry/bohr**3)                   (kbar)     P=        1.85
   0.00001247  -0.00000122   0.00000070            1.83       -0.18        0.10
  -0.00000122   0.00001106   0.00000121           -0.18        1.63        0.18
   0.00000070   0.00000121   0.00001425            0.10        0.18        2.10


     Writing all to output data dir ./Cr_0_-0.05/Cr_0_0.save/ :
     XML data file, charge density, pseudopotentials, collected wavefunctions

     init_run     :    170.85s CPU    100.48s WALL (       1 calls)
     electrons    :   3483.34s CPU   1889.21s WALL (       1 calls)
     forces       :    143.94s CPU     76.23s WALL (       1 calls)
     stress       :    854.50s CPU    451.95s WALL (       1 calls)

     Called by init_run:
     wfcinit      :    152.04s CPU     80.42s WALL (       1 calls)
     potinit      :      3.82s CPU      4.26s WALL (       1 calls)
     hinit0       :      2.44s CPU      2.73s WALL (       1 calls)

     Called by electrons:
     c_bands      :   3032.32s CPU   1618.87s WALL (      13 calls)
     sum_band     :    400.58s CPU    226.58s WALL (      13 calls)
     v_of_rho     :     17.23s CPU     14.51s WALL (      13 calls)
     newd         :     23.64s CPU     23.35s WALL (      13 calls)
     PAW_pot      :      8.60s CPU      6.07s WALL (      13 calls)
     mix_rho      :      2.41s CPU      1.89s WALL (      13 calls)

     Called by c_bands:
     init_us_2    :     22.65s CPU     11.68s WALL (     256 calls)
     init_us_2:cp :     22.65s CPU     11.68s WALL (     256 calls)
     cegterg      :   3005.71s CPU   1602.71s WALL (     104 calls)

     Called by *egterg:
     cdiaghg      :    331.77s CPU    190.15s WALL (     588 calls)
     h_psi        :   1784.08s CPU    927.23s WALL (     604 calls)
     s_psi        :    213.68s CPU    108.49s WALL (     628 calls)
     g_psi        :      6.21s CPU      3.17s WALL (     492 calls)

     Called by h_psi:
     h_psi:calbec :    223.58s CPU    116.40s WALL (     604 calls)
     vloc_psi     :   1335.06s CPU    688.45s WALL (     604 calls)
     add_vuspsi   :    193.62s CPU     98.40s WALL (     604 calls)
     vhpsi        :     26.50s CPU     14.61s WALL (     604 calls)

     General routines
     calbec       :    751.70s CPU    397.00s WALL (   29216 calls)
     fft          :     18.97s CPU     18.86s WALL (     365 calls)
     ffts         :      2.30s CPU      2.08s WALL (      52 calls)
     fftw         :   1163.77s CPU    604.04s WALL (  261640 calls)
     interpolate  :      2.72s CPU      2.33s WALL (      26 calls)

     Parallel routines

     Hubbard U routines
     new_ns       :      5.98s CPU      4.25s WALL (      13 calls)
     vhpsi        :     26.50s CPU     14.61s WALL (     604 calls)
     force_hub    :    111.78s CPU     57.97s WALL (       1 calls)
                                        0.00s GPU  (       1 calls)
     stres_hub    :    319.85s CPU    167.77s WALL (       1 calls)
                                        0.00s GPU  (       1 calls)

     PWSCF        :      1h18m CPU  42m37.80s WALL


   This run was terminated on:  11:46:10  11Sep2025            

=------------------------------------------------------------------------------=
   JOB DONE.
=------------------------------------------------------------------------------=
[1757587570.825179] [node149:3065235:0]          mpool.c:43   UCX  WARN  object 0x66ad480 was not returned to mpool ucp_requests
[1757587570.825193] [node149:3065235:0]          mpool.c:43   UCX  WARN  object 0x66b1fc0 was not returned to mpool ucp_requests
[1757587570.825195] [node149:3065235:0]          mpool.c:43   UCX  WARN  object 0x66b2f80 was not returned to mpool ucp_requests
[1757587570.825196] [node149:3065235:0]          mpool.c:43   UCX  WARN  object 0x66b3300 was not returned to mpool ucp_requests
[1757587570.825197] [node149:3065235:0]          mpool.c:43   UCX  WARN  object 0x66b4f00 was not returned to mpool ucp_requests
[1757587570.825198] [node149:3065235:0]          mpool.c:43   UCX  WARN  object 0x66b6e80 was not returned to mpool ucp_requests
[1757587570.825200] [node149:3065235:0]          mpool.c:43   UCX  WARN  object 0x3ad0bc0 was not returned to mpool ucp_requests
[1757587570.825201] [node149:3065235:0]          mpool.c:43   UCX  WARN  object 0x3ad1800 was not returned to mpool ucp_requests
[1757587570.818344] [node149:3065239:0]          mpool.c:43   UCX  WARN  object 0x703d140 was not returned to mpool ucp_requests
[1757587570.818365] [node149:3065239:0]          mpool.c:43   UCX  WARN  object 0x703dd80 was not returned to mpool ucp_requests
[1757587570.818367] [node149:3065239:0]          mpool.c:43   UCX  WARN  object 0x703f440 was not returned to mpool ucp_requests
[1757587570.818368] [node149:3065239:0]          mpool.c:43   UCX  WARN  object 0x7040400 was not returned to mpool ucp_requests
[1757587570.818370] [node149:3065239:0]          mpool.c:43   UCX  WARN  object 0x7029940 was not returned to mpool ucp_requests
[1757587570.818371] [node149:3065239:0]          mpool.c:43   UCX  WARN  object 0x702d840 was not returned to mpool ucp_requests
[1757587570.818372] [node149:3065239:0]          mpool.c:43   UCX  WARN  object 0x7035800 was not returned to mpool ucp_requests
[1757587570.818373] [node149:3065239:0]          mpool.c:43   UCX  WARN  object 0x7037080 was not returned to mpool ucp_requests
[1757587570.818375] [node149:3065239:0]          mpool.c:43   UCX  WARN  object 0x444e300 was not returned to mpool ucp_requests
[1757587570.818376] [node149:3065239:0]          mpool.c:43   UCX  WARN  object 0x4453000 was not returned to mpool ucp_requests
[1757587570.818377] [node149:3065239:0]          mpool.c:43   UCX  WARN  object 0x4458780 was not returned to mpool ucp_requests
[1757587570.818378] [node149:3065239:0]          mpool.c:43   UCX  WARN  object 0x445aa80 was not returned to mpool ucp_requests
[1757587570.818379] [node149:3065239:0]          mpool.c:43   UCX  WARN  object 0x445bdc0 was not returned to mpool ucp_requests
[1757587570.826871] [node149:3065223:0]          mpool.c:43   UCX  WARN  object 0x5d0b780 was not returned to mpool ucp_requests
[1757587570.826891] [node149:3065223:0]          mpool.c:43   UCX  WARN  object 0x5d0b940 was not returned to mpool ucp_requests
[1757587570.826892] [node149:3065223:0]          mpool.c:43   UCX  WARN  object 0x5d0d700 was not returned to mpool ucp_requests
[1757587570.826894] [node149:3065223:0]          mpool.c:43   UCX  WARN  object 0x5d0ea40 was not returned to mpool ucp_requests
[1757587570.826895] [node149:3065223:0]          mpool.c:43   UCX  WARN  object 0x5cf4d00 was not returned to mpool ucp_requests
[1757587570.826896] [node149:3065223:0]          mpool.c:43   UCX  WARN  object 0x5cf7700 was not returned to mpool ucp_requests
[1757587570.826898] [node149:3065223:0]          mpool.c:43   UCX  WARN  object 0x5cf9d80 was not returned to mpool ucp_requests
[1757587570.826899] [node149:3065223:0]          mpool.c:43   UCX  WARN  object 0x5cfcb00 was not returned to mpool ucp_requests
[1757587570.826900] [node149:3065223:0]          mpool.c:43   UCX  WARN  object 0x5cfce80 was not returned to mpool ucp_requests
[1757587570.826901] [node149:3065223:0]          mpool.c:43   UCX  WARN  object 0x5cff340 was not returned to mpool ucp_requests
[1757587570.826902] [node149:3065223:0]          mpool.c:43   UCX  WARN  object 0x5cff880 was not returned to mpool ucp_requests
[1757587570.826903] [node149:3065223:0]          mpool.c:43   UCX  WARN  object 0x5d012c0 was not returned to mpool ucp_requests
[1757587570.826904] [node149:3065223:0]          mpool.c:43   UCX  WARN  object 0x310ff40 was not returned to mpool ucp_requests
[1757587570.826906] [node149:3065223:0]          mpool.c:43   UCX  WARN  object 0x3111b40 was not returned to mpool ucp_requests
[1757587570.826907] [node149:3065223:0]          mpool.c:43   UCX  WARN  object 0x3113200 was not returned to mpool ucp_requests
[1757587570.826908] [node149:3065223:0]          mpool.c:43   UCX  WARN  object 0x3116a00 was not returned to mpool ucp_requests
[1757587570.826909] [node149:3065223:0]          mpool.c:43   UCX  WARN  object 0x311b8c0 was not returned to mpool ucp_requests
