
     Program PWSCF v.7.3.1 starts on 24Oct2025 at 10:48:57 

     This program is part of the open-source Quantum ESPRESSO suite
     for quantum simulation of materials; please cite
         "P. Giannozzi et al., J. Phys.:Condens. Matter 21 395502 (2009);
         "P. Giannozzi et al., J. Phys.:Condens. Matter 29 465901 (2017);
         "P. Giannozzi et al., J. Chem. Phys. 152 154105 (2020);
          URL http://www.quantum-espresso.org", 
     in publications or presentations arising from this work. More details at
     http://www.quantum-espresso.org/quote

     Parallel version (MPI), running on   128 processors

     MPI processes distributed on     2 nodes
     240324 MiB available memory on the printing compute node when the environment starts

     Reading input from Fe3_O_piv_6_H2O_3_HighSpin.in

     Current dimensions of program PWSCF are:
     Max number of different atomic species (ntypx) = 10
     Max number of k-points (npk) =  40000
     Max angular momentum in pseudopotentials (lmaxx) =  4
read_pp_mesh; mismatch in mesh size, discarding the one in header
read_pp_mesh; mismatch in mesh size, discarding the one in header
read_pp_mesh; mismatch in mesh size, discarding the one in header
read_pp_mesh; mismatch in mesh size, discarding the one in header
     file Fe.GGA-PBE-paw.UPF: wavefunction(s)  4S 3P 4P 3D 4D renormalized
     file O.GGA-PBE-paw.UPF: wavefunction(s)  3S 2P 3P renormalized
     file H.GGA-PBE-paw.UPF: wavefunction(s)  2S 2P renormalized
     file C.GGA-PBE-paw.UPF: wavefunction(s)  3S 3P renormalized
     Message from routine setup:
     the system is metallic, specify occupations

     R & G space division:  proc/nbgrp/npool/nimage =     128
     Subspace diagonalization in iterative solution of the eigenvalue problem:
     one sub-group per band group will be used
     custom distributed-memory algorithm (size of sub-group:  2*  2 procs)


     Parallelization info
     --------------------
     sticks:   dense  smooth     PW     G-vecs:    dense   smooth      PW
     Min         542     542    135               100828   100828   12601
     Max         543     543    136               100837   100837   12608
     Sum       69493   69493  17367             12906675 12906675 1613349

     Using Slab Decomposition



     bravais-lattice index     =            0
     lattice parameter (alat)  =      61.4318  a.u.
     unit-cell volume          =  211893.4902 (a.u.)^3
     number of atoms/cell      =          109
     number of atomic types    =            4
     number of electrons       =       323.00 (up: 169.00, down: 154.00)
     number of Kohn-Sham states=          169
     kinetic-energy cutoff     =      58.8000  Ry
     charge density cutoff     =     235.2000  Ry
     scf convergence threshold =      1.0E-09
     mixing beta               =       0.3000
     number of iterations used =            8  plain     mixing
     Exchange-correlation= SLA PW PBX PBC
                           (   1   4   3   4   0   0   0)

     celldm(1)=  61.431848  celldm(2)=   0.000000  celldm(3)=   0.000000
     celldm(4)=   0.000000  celldm(5)=   0.000000  celldm(6)=   0.000000

     crystal axes: (cart. coord. in units of alat)
               a(1) = (   1.000000   0.000000   0.000000 )  
               a(2) = (   0.000000   0.983954   0.000000 )  
               a(3) = (   0.000000   0.000000   0.928885 )  

     reciprocal axes: (cart. coord. in units 2 pi/alat)
               b(1) = (  1.000000  0.000000  0.000000 )  
               b(2) = (  0.000000  1.016308  0.000000 )  
               b(3) = (  0.000000  0.000000  1.076559 )  


     PseudoPot. # 1 for Fe read from file:
     /work/e89/e89/phsmea/CASTEP_TO_QS_ARCHER_PBE/Fe.GGA-PBE-paw.UPF
     MD5 check sum: 2d46233e65fd0c9f60bb7b941dda812a
     Pseudo is Projector augmented-wave + core cor, Zval = 16.0
     Generated using ATOMPAW code
     Shape of augmentation charge: SINC**2
     Using radial grid of 2342 points,  6 beta functions with: 
                l(1) =   0
                l(2) =   0
                l(3) =   1
                l(4) =   1
                l(5) =   2
                l(6) =   2
     Q(r) pseudized with 0 coefficients 


     PseudoPot. # 2 for O  read from file:
     /work/e89/e89/phsmea/CASTEP_TO_QS_ARCHER_PBE/O.GGA-PBE-paw.UPF
     MD5 check sum: 75cebe6e27812ecd511c7c5e5b8738d8
     Pseudo is Projector augmented-wave + core cor, Zval =  6.0
     Generated using ATOMPAW code
     Shape of augmentation charge: SINC**2
     Using radial grid of 2342 points,  4 beta functions with: 
                l(1) =   0
                l(2) =   0
                l(3) =   1
                l(4) =   1
     Q(r) pseudized with 0 coefficients 


     PseudoPot. # 3 for H  read from file:
     /work/e89/e89/phsmea/CASTEP_TO_QS_ARCHER_PBE/H.GGA-PBE-paw.UPF
     MD5 check sum: b9d592600ff6b56d2e28875790887365
     Pseudo is Projector augmented-wave + core cor, Zval =  1.0
     Generated using ATOMPAW code
     Shape of augmentation charge: SINC**2
     Using radial grid of 2342 points,  3 beta functions with: 
                l(1) =   0
                l(2) =   0
                l(3) =   1
     Q(r) pseudized with 0 coefficients 


     PseudoPot. # 4 for C  read from file:
     /work/e89/e89/phsmea/CASTEP_TO_QS_ARCHER_PBE/C.GGA-PBE-paw.UPF
     MD5 check sum: 4aa9e32dab6042a76c944283fa01cc46
     Pseudo is Projector augmented-wave + core cor, Zval =  4.0
     Generated using ATOMPAW code
     Shape of augmentation charge: SINC**2
     Using radial grid of 2342 points,  4 beta functions with: 
                l(1) =   0
                l(2) =   0
                l(3) =   1
                l(4) =   1
     Q(r) pseudized with 0 coefficients 


     atomic species   valence    mass     pseudopotential
     Fe               16.00    55.84500     Fe( 1.00)
     O                 6.00    16.00000     O ( 1.00)
     H                 1.00     1.00800     H ( 1.00)
     C                 4.00    12.01100     C ( 1.00)

     Starting magnetic structure 
     atomic species   magnetization
     Fe              0.312
     O               0.000
     H               0.000
     C               0.000

     No symmetry found



   Cartesian axes

     site n.     atom                  positions (alat units)
         1        Fe     tau(   1) = (   0.5339877   0.4530735   0.4734192  )
         2        Fe     tau(   2) = (   0.5059010   0.4973119   0.3865703  )
         3        Fe     tau(   3) = (   0.4616292   0.5239900   0.4739621  )
         4        O      tau(   4) = (   0.5002216   0.4912537   0.4445097  )
         5        O      tau(   5) = (   0.5746154   0.4093125   0.5028391  )
         6        H      tau(   6) = (   0.5802858   0.3878163   0.4831816  )
         7        H      tau(   7) = (   0.6005106   0.4221346   0.5094964  )
         8        O      tau(   8) = (   0.5097534   0.5084191   0.3209634  )
         9        H      tau(   9) = (   0.5094926   0.5379557   0.3178732  )
        10        H      tau(  10) = (   0.4853477   0.4981564   0.3076134  )
        11        O      tau(  11) = (   0.4180849   0.5590590   0.5103948  )
        12        H      tau(  12) = (   0.4067417   0.5403957   0.5304998  )
        13        H      tau(  13) = (   0.4323383   0.5802927   0.5253876  )
        14        O      tau(  14) = (   0.5867006   0.4740920   0.4469997  )
        15        O      tau(  15) = (   0.5668188   0.5032456   0.3883297  )
        16        O      tau(  16) = (   0.5313992   0.4076959   0.4311016  )
        17        O      tau(  17) = (   0.5099391   0.4373170   0.3732665  )
        18        O      tau(  18) = (   0.5014911   0.5601000   0.3861378  )
        19        O      tau(  19) = (   0.4743746   0.5773228   0.4465760  )
        20        O      tau(  20) = (   0.4447183   0.4938718   0.3754437  )
        21        O      tau(  21) = (   0.4157319   0.5123732   0.4346726  )
        22        O      tau(  22) = (   0.5018106   0.5403493   0.5192085  )
        23        O      tau(  23) = (   0.5471536   0.4891179   0.5215587  )
        24        O      tau(  24) = (   0.4409377   0.4781653   0.5107294  )
        25        O      tau(  25) = (   0.4868020   0.4277912   0.5038214  )
        26        C      tau(  26) = (   0.5936324   0.4946784   0.4150054  )
        27        C      tau(  27) = (   0.6369305   0.5111515   0.4075349  )
        28        C      tau(  28) = (   0.6512247   0.4971056   0.3649317  )
        29        H      tau(  29) = (   0.6301521   0.5074851   0.3410016  )
        30        H      tau(  30) = (   0.6535368   0.4636089   0.3632141  )
        31        H      tau(  31) = (   0.6816679   0.5098299   0.3586058  )
        32        C      tau(  32) = (   0.6341491   0.5582294   0.4085348  )
        33        H      tau(  33) = (   0.6127756   0.5695186   0.3852661  )
        34        H      tau(  34) = (   0.6644718   0.5713133   0.4023591  )
        35        H      tau(  35) = (   0.6240819   0.5693010   0.4386547  )
        36        C      tau(  36) = (   0.6667561   0.4961566   0.4403811  )
        37        H      tau(  37) = (   0.6692404   0.4626640   0.4403589  )
        38        H      tau(  38) = (   0.6572799   0.5059517   0.4710604  )
        39        H      tau(  39) = (   0.6973182   0.5087385   0.4343605  )
        40        C      tau(  40) = (   0.5209514   0.4064312   0.3937498  )
        41        C      tau(  41) = (   0.5202540   0.3644788   0.3728082  )
        42        C      tau(  42) = (   0.4785993   0.3451712   0.3839431  )
        43        H      tau(  43) = (   0.4531049   0.3637901   0.3724361  )
        44        H      tau(  44) = (   0.4753050   0.3417383   0.4171947  )
        45        H      tau(  45) = (   0.4763541   0.3147013   0.3699628  )
        46        C      tau(  46) = (   0.5550438   0.3375172   0.3891832  )
        47        H      tau(  47) = (   0.5851264   0.3512286   0.3830730  )
        48        H      tau(  48) = (   0.5541773   0.3076134   0.3739139  )
        49        H      tau(  49) = (   0.5520833   0.3323501   0.4221963  )
        50        C      tau(  50) = (   0.5238422   0.3691034   0.3262789  )
        51        H      tau(  51) = (   0.5526978   0.3839597   0.3175995  )
        52        H      tau(  52) = (   0.4986325   0.3873298   0.3137800  )
        53        H      tau(  53) = (   0.5230527   0.3387533   0.3118998  )
        54        C      tau(  54) = (   0.4894749   0.5862488   0.4119937  )
        55        C      tau(  55) = (   0.4927408   0.6318506   0.4014369  )
        56        C      tau(  56) = (   0.5137947   0.6383208   0.3600997  )
        57        H      tau(  57) = (   0.5165066   0.6712299   0.3539382  )
        58        H      tau(  58) = (   0.4961380   0.6246763   0.3349910  )
        59        H      tau(  59) = (   0.5446493   0.6250939   0.3597462  )
        60        C      tau(  60) = (   0.4489262   0.6492358   0.4001516  )
        61        H      tau(  61) = (   0.4501183   0.6820473   0.3930419  )
        62        H      tau(  62) = (   0.4334026   0.6453226   0.4296305  )
        63        H      tau(  63) = (   0.4304896   0.6342248   0.3763716  )
        64        C      tau(  64) = (   0.5173147   0.6531059   0.4355437  )
        65        H      tau(  65) = (   0.5188822   0.6860799   0.4293166  )
        66        H      tau(  66) = (   0.5487992   0.6414031   0.4370249  )
        67        H      tau(  67) = (   0.5029057   0.6485890   0.4654837  )
        68        C      tau(  68) = (   0.4138339   0.4995644   0.3982442  )
        69        C      tau(  69) = (   0.3716829   0.4894705   0.3802524  )
        70        C      tau(  70) = (   0.3700473   0.4426319   0.3747011  )
        71        H      tau(  71) = (   0.3405670   0.4340235   0.3610761  )
        72        H      tau(  72) = (   0.3727758   0.4267436   0.4042031  )
        73        H      tau(  73) = (   0.3946136   0.4319406   0.3544771  )
        74        C      tau(  74) = (   0.3674130   0.5105349   0.3383993  )
        75        H      tau(  75) = (   0.3375433   0.5029086   0.3250606  )
        76        H      tau(  76) = (   0.3912628   0.5003951   0.3171012  )
        77        H      tau(  77) = (   0.3691391   0.5439859   0.3412715  )
        78        C      tau(  78) = (   0.3373435   0.5034112   0.4088997  )
        79        H      tau(  79) = (   0.3076134   0.4957062   0.3952770  )
        80        H      tau(  80) = (   0.3382527   0.5365805   0.4140055  )
        81        H      tau(  81) = (   0.3393985   0.4883526   0.4388100  )
        82        C      tau(  82) = (   0.5326607   0.5226663   0.5344687  )
        83        C      tau(  83) = (   0.5528189   0.5423577   0.5720001  )
        84        C      tau(  84) = (   0.5522921   0.5891475   0.5679748  )
        85        H      tau(  85) = (   0.5698594   0.5993699   0.5412060  )
        86        H      tau(  86) = (   0.5661434   0.6029265   0.5952996  )
        87        H      tau(  87) = (   0.5210253   0.6008738   0.5649833  )
        88        C      tau(  88) = (   0.5267943   0.5292189   0.6091645  )
        89        H      tau(  89) = (   0.5264197   0.4957914   0.6126142  )
        90        H      tau(  90) = (   0.4951332   0.5400906   0.6063616  )
        91        H      tau(  91) = (   0.5398692   0.5423745   0.6371797  )
        92        C      tau(  92) = (   0.5968075   0.5270300   0.5773847  )
        93        H      tau(  93) = (   0.6105409   0.5416373   0.6043389  )
        94        H      tau(  94) = (   0.6157994   0.5345817   0.5507147  )
        95        H      tau(  95) = (   0.5977730   0.4938102   0.5818793  )
        96        C      tau(  96) = (   0.4533804   0.4419294   0.5171184  )
        97        C      tau(  97) = (   0.4252941   0.4131333   0.5412201  )
        98        C      tau(  98) = (   0.3944838   0.3959014   0.5098108  )
        99        H      tau(  99) = (   0.3731140   0.3752064   0.5254263  )
       100        H      tau( 100) = (   0.4101610   0.3784418   0.4857532  )
       101        H      tau( 101) = (   0.3766945   0.4205254   0.4954693  )
       102        C      tau( 102) = (   0.4022744   0.4368903   0.5745675  )
       103        H      tau( 103) = (   0.3825623   0.4157912   0.5917290  )
       104        H      tau( 104) = (   0.3828207   0.4608487   0.5614262  )
       105        H      tau( 105) = (   0.4235009   0.4511245   0.5964137  )
       106        C      tau( 106) = (   0.4498339   0.3780296   0.5602962  )
       107        H      tau( 107) = (   0.4289534   0.3573707   0.5765989  )
       108        H      tau( 108) = (   0.4724756   0.3894092   0.5823574  )
       109        H      tau( 109) = (   0.4661544   0.3603327   0.5369697  )

     number of k points=     1
                       cart. coord. in units 2pi/alat
        k(    1) = (   0.0000000   0.0000000   0.0000000), wk =   1.0000000

     Dense  grid: 12906675 G-vectors     FFT dimensions: ( 300, 300, 288)

     Estimated max dynamical RAM per process >       1.13 GB

     Estimated total dynamical RAM >     144.36 GB

     Check: negative core charge=   -0.000002
     Generating pointlists ...
     new r_m :   0.0241 (alat units)  1.4832 (a.u.) for type    1
     new r_m :   0.0122 (alat units)  0.7512 (a.u.) for type    2
     new r_m :   0.0122 (alat units)  0.7512 (a.u.) for type    3
     new r_m :   0.0138 (alat units)  0.8494 (a.u.) for type    4

     Initial potential from superposition of free atoms

     starting charge     323.9959, renormalised to     323.0000

     negative rho (up, down):  5.075E-02 3.490E-02
     Starting wfcs are  722 randomized atomic wfcs
     Checking if some PAW data can be deallocated... 

     total cpu time spent up to now is       78.3 secs

     per-process dynamical memory:   403.0 Mb

     Self-consistent Calculation

     iteration #  1     ecut=    58.80 Ry     beta= 0.30
     Davidson diagonalization with overlap
     ethr =  1.00E-02,  avg # of iterations =  2.0

     negative rho (up, down):  5.276E-02 3.727E-02

     total cpu time spent up to now is      109.0 secs

     total energy              =   -2276.41490825 Ry
     estimated scf accuracy    <      18.89848461 Ry

     total magnetization       =    15.00 Bohr mag/cell
     absolute magnetization    =    15.42 Bohr mag/cell

     iteration #  2     ecut=    58.80 Ry     beta= 0.30
     Davidson diagonalization with overlap
     ethr =  5.85E-03,  avg # of iterations =  4.0

     negative rho (up, down):  5.475E-02 3.821E-02

     total cpu time spent up to now is      137.9 secs

     total energy              =   -2278.40434891 Ry
     estimated scf accuracy    <       2.38329593 Ry

     total magnetization       =    15.00 Bohr mag/cell
     absolute magnetization    =    15.26 Bohr mag/cell

     iteration #  3     ecut=    58.80 Ry     beta= 0.30
     Davidson diagonalization with overlap
     ethr =  7.38E-04,  avg # of iterations =  2.0

     negative rho (up, down):  5.637E-02 3.918E-02

     total cpu time spent up to now is      162.7 secs

     total energy              =   -2278.52472704 Ry
     estimated scf accuracy    <       0.84123871 Ry

     total magnetization       =    15.00 Bohr mag/cell
     absolute magnetization    =    15.21 Bohr mag/cell

     iteration #  4     ecut=    58.80 Ry     beta= 0.30
     Davidson diagonalization with overlap
     ethr =  2.60E-04,  avg # of iterations =  2.0

     negative rho (up, down):  5.867E-02 4.042E-02

     total cpu time spent up to now is      186.4 secs

     total energy              =   -2278.62539943 Ry
     estimated scf accuracy    <       0.25905852 Ry

     total magnetization       =    15.00 Bohr mag/cell
     absolute magnetization    =    15.12 Bohr mag/cell

     iteration #  5     ecut=    58.80 Ry     beta= 0.30
     Davidson diagonalization with overlap
     ethr =  8.02E-05,  avg # of iterations =  2.0

     negative rho (up, down):  5.891E-02 4.057E-02

     total cpu time spent up to now is      212.3 secs

     total energy              =   -2278.66242611 Ry
     estimated scf accuracy    <       0.05558447 Ry

     total magnetization       =    15.00 Bohr mag/cell
     absolute magnetization    =    15.14 Bohr mag/cell

     iteration #  6     ecut=    58.80 Ry     beta= 0.30
     Davidson diagonalization with overlap
     ethr =  1.72E-05,  avg # of iterations =  2.0

     negative rho (up, down):  5.909E-02 4.065E-02

     total cpu time spent up to now is      236.6 secs

     total energy              =   -2278.67257784 Ry
     estimated scf accuracy    <       0.00277563 Ry

     total magnetization       =    15.00 Bohr mag/cell
     absolute magnetization    =    15.11 Bohr mag/cell

     iteration #  7     ecut=    58.80 Ry     beta= 0.30
     Davidson diagonalization with overlap
     ethr =  8.59E-07,  avg # of iterations =  3.0

     negative rho (up, down):  5.917E-02 4.065E-02

     total cpu time spent up to now is      269.4 secs

     total energy              =   -2278.67393093 Ry
     estimated scf accuracy    <       0.00172676 Ry

     total magnetization       =    15.00 Bohr mag/cell
     absolute magnetization    =    15.10 Bohr mag/cell

     iteration #  8     ecut=    58.80 Ry     beta= 0.30
     Davidson diagonalization with overlap
     ethr =  5.35E-07,  avg # of iterations =  1.5

     negative rho (up, down):  5.922E-02 4.065E-02

     total cpu time spent up to now is      292.9 secs

     total energy              =   -2278.67437508 Ry
     estimated scf accuracy    <       0.00030070 Ry

     total magnetization       =    15.00 Bohr mag/cell
     absolute magnetization    =    15.10 Bohr mag/cell

     iteration #  9     ecut=    58.80 Ry     beta= 0.30
     Davidson diagonalization with overlap
     ethr =  9.31E-08,  avg # of iterations =  2.5

     negative rho (up, down):  5.927E-02 4.065E-02

     total cpu time spent up to now is      318.9 secs

     total energy              =   -2278.67452927 Ry
     estimated scf accuracy    <       0.00012428 Ry

     total magnetization       =    15.00 Bohr mag/cell
     absolute magnetization    =    15.10 Bohr mag/cell

     iteration # 10     ecut=    58.80 Ry     beta= 0.30
     Davidson diagonalization with overlap
     ethr =  3.85E-08,  avg # of iterations =  2.5

     negative rho (up, down):  5.928E-02 4.064E-02

     total cpu time spent up to now is      344.7 secs

     total energy              =   -2278.67457015 Ry
     estimated scf accuracy    <       0.00002138 Ry

     total magnetization       =    15.00 Bohr mag/cell
     absolute magnetization    =    15.11 Bohr mag/cell

     iteration # 11     ecut=    58.80 Ry     beta= 0.30
     Davidson diagonalization with overlap
     ethr =  6.62E-09,  avg # of iterations =  3.0

     negative rho (up, down):  5.929E-02 4.064E-02

     total cpu time spent up to now is      374.1 secs

     total energy              =   -2278.67457932 Ry
     estimated scf accuracy    <       0.00000755 Ry

     total magnetization       =    15.00 Bohr mag/cell
     absolute magnetization    =    15.11 Bohr mag/cell

     iteration # 12     ecut=    58.80 Ry     beta= 0.30
     Davidson diagonalization with overlap
     ethr =  2.34E-09,  avg # of iterations =  3.0

     negative rho (up, down):  5.929E-02 4.063E-02

     total cpu time spent up to now is      404.1 secs

     total energy              =   -2278.67458221 Ry
     estimated scf accuracy    <       0.00000203 Ry

     total magnetization       =    15.00 Bohr mag/cell
     absolute magnetization    =    15.11 Bohr mag/cell

     iteration # 13     ecut=    58.80 Ry     beta= 0.30
     Davidson diagonalization with overlap
     ethr =  6.29E-10,  avg # of iterations =  3.5

     negative rho (up, down):  5.929E-02 4.063E-02

     total cpu time spent up to now is      436.2 secs

     total energy              =   -2278.67458307 Ry
     estimated scf accuracy    <       0.00000037 Ry

     total magnetization       =    15.00 Bohr mag/cell
     absolute magnetization    =    15.11 Bohr mag/cell

     iteration # 14     ecut=    58.80 Ry     beta= 0.30
     Davidson diagonalization with overlap
     ethr =  1.13E-10,  avg # of iterations =  3.0

     negative rho (up, down):  5.929E-02 4.063E-02

     total cpu time spent up to now is      462.6 secs

     total energy              =   -2278.67458323 Ry
     estimated scf accuracy    <       0.00000015 Ry

     total magnetization       =    15.00 Bohr mag/cell
     absolute magnetization    =    15.11 Bohr mag/cell

     iteration # 15     ecut=    58.80 Ry     beta= 0.30
     Davidson diagonalization with overlap
     ethr =  4.78E-11,  avg # of iterations =  2.5

     negative rho (up, down):  5.929E-02 4.062E-02

     total cpu time spent up to now is      486.8 secs

     total energy              =   -2278.67458332 Ry
     estimated scf accuracy    <       0.00000006 Ry

     total magnetization       =    15.00 Bohr mag/cell
     absolute magnetization    =    15.11 Bohr mag/cell

     iteration # 16     ecut=    58.80 Ry     beta= 0.30
     Davidson diagonalization with overlap
     ethr =  1.71E-11,  avg # of iterations =  4.0

     negative rho (up, down):  5.929E-02 4.062E-02

     total cpu time spent up to now is      519.4 secs

     total energy              =   -2278.67458333 Ry
     estimated scf accuracy    <          6.6E-09 Ry

     total magnetization       =    15.00 Bohr mag/cell
     absolute magnetization    =    15.11 Bohr mag/cell

     iteration # 17     ecut=    58.80 Ry     beta= 0.30
     Davidson diagonalization with overlap
     ethr =  2.05E-12,  avg # of iterations =  3.0

     negative rho (up, down):  5.929E-02 4.062E-02

     total cpu time spent up to now is      549.4 secs

     total energy              =   -2278.67458333 Ry
     estimated scf accuracy    <          1.5E-09 Ry

     total magnetization       =    15.00 Bohr mag/cell
     absolute magnetization    =    15.11 Bohr mag/cell

     iteration # 18     ecut=    58.80 Ry     beta= 0.30
     Davidson diagonalization with overlap
     ethr =  4.78E-13,  avg # of iterations =  2.5

     negative rho (up, down):  5.929E-02 4.062E-02

     Magnetic moment per site  (integrated on atomic sphere of radius R)
     atom   1 (R=0.024)  charge= 12.7296  magn=  3.7271
     atom   2 (R=0.024)  charge= 12.7280  magn=  3.7259
     atom   3 (R=0.024)  charge= 12.7280  magn=  3.7264
     atom   4 (R=0.012)  charge=  1.8920  magn=  0.2388
     atom   5 (R=0.012)  charge=  1.9179  magn=  0.0219
     atom   6 (R=0.012)  charge=  0.3940  magn=  0.0004
     atom   7 (R=0.012)  charge=  0.3946  magn=  0.0005
     atom   8 (R=0.012)  charge=  1.9103  magn=  0.0221
     atom   9 (R=0.012)  charge=  0.3921  magn=  0.0004
     atom  10 (R=0.012)  charge=  0.3967  magn=  0.0005
     atom  11 (R=0.012)  charge=  1.9238  magn=  0.0217
     atom  12 (R=0.012)  charge=  0.3930  magn=  0.0004
     atom  13 (R=0.012)  charge=  0.3953  magn=  0.0005
     atom  14 (R=0.012)  charge=  1.9188  magn=  0.0492
     atom  15 (R=0.012)  charge=  1.9190  magn=  0.0534
     atom  16 (R=0.012)  charge=  1.9237  magn=  0.0482
     atom  17 (R=0.012)  charge=  1.9137  magn=  0.0510
     atom  18 (R=0.012)  charge=  1.9204  magn=  0.0457
     atom  19 (R=0.012)  charge=  1.9155  magn=  0.0507
     atom  20 (R=0.012)  charge=  1.9233  magn=  0.0495
     atom  21 (R=0.012)  charge=  1.9161  magn=  0.0529
     atom  22 (R=0.012)  charge=  1.9205  magn=  0.0471
     atom  23 (R=0.012)  charge=  1.9110  magn=  0.0503
     atom  24 (R=0.012)  charge=  1.9164  magn=  0.0480
     atom  25 (R=0.012)  charge=  1.9146  magn=  0.0522
     atom  26 (R=0.014)  charge=  0.8370  magn=  0.0034
     atom  27 (R=0.014)  charge=  0.8339  magn=  0.0051
     atom  28 (R=0.014)  charge=  0.8525  magn=  0.0004
     atom  29 (R=0.012)  charge=  0.3862  magn=  0.0001
     atom  30 (R=0.012)  charge=  0.3879  magn=  0.0000
     atom  31 (R=0.012)  charge=  0.3875  magn=  0.0004
     atom  32 (R=0.014)  charge=  0.8534  magn=  0.0003
     atom  33 (R=0.012)  charge=  0.3878  magn=  0.0000
     atom  34 (R=0.012)  charge=  0.3856  magn=  0.0004
     atom  35 (R=0.012)  charge=  0.3876  magn=  0.0000
     atom  36 (R=0.014)  charge=  0.8566  magn=  0.0005
     atom  37 (R=0.012)  charge=  0.3876  magn=  0.0001
     atom  38 (R=0.012)  charge=  0.3866  magn=  0.0001
     atom  39 (R=0.012)  charge=  0.3854  magn=  0.0004
     atom  40 (R=0.014)  charge=  0.8353  magn=  0.0037
     atom  41 (R=0.014)  charge=  0.8332  magn=  0.0050
     atom  42 (R=0.014)  charge=  0.8524  magn=  0.0002
     atom  43 (R=0.012)  charge=  0.3855  magn=  0.0000
     atom  44 (R=0.012)  charge=  0.3871  magn=  0.0000
     atom  45 (R=0.012)  charge=  0.3839  magn=  0.0003
     atom  46 (R=0.014)  charge=  0.8553  magn=  0.0004
     atom  47 (R=0.012)  charge=  0.3880  magn=  0.0001
     atom  48 (R=0.012)  charge=  0.3852  magn=  0.0004
     atom  49 (R=0.012)  charge=  0.3892  magn=  0.0001
     atom  50 (R=0.014)  charge=  0.8548  magn=  0.0005
     atom  51 (R=0.012)  charge=  0.3864  magn=  0.0000
     atom  52 (R=0.012)  charge=  0.3884  magn=  0.0001
     atom  53 (R=0.012)  charge=  0.3869  magn=  0.0004
     atom  54 (R=0.014)  charge=  0.8356  magn=  0.0035
     atom  55 (R=0.014)  charge=  0.8326  magn=  0.0050
     atom  56 (R=0.014)  charge=  0.8559  magn=  0.0004
     atom  57 (R=0.012)  charge=  0.3874  magn=  0.0004
     atom  58 (R=0.012)  charge=  0.3876  magn=  0.0001
     atom  59 (R=0.012)  charge=  0.3888  magn=  0.0000
     atom  60 (R=0.014)  charge=  0.8534  magn=  0.0003
     atom  61 (R=0.012)  charge=  0.3853  magn=  0.0004
     atom  62 (R=0.012)  charge=  0.3861  magn=  0.0000
     atom  63 (R=0.012)  charge=  0.3873  magn=  0.0000
     atom  64 (R=0.014)  charge=  0.8529  magn=  0.0004
     atom  65 (R=0.012)  charge=  0.3853  magn=  0.0003
     atom  66 (R=0.012)  charge=  0.3884  magn=  0.0000
     atom  67 (R=0.012)  charge=  0.3866  magn=  0.0001
     atom  68 (R=0.014)  charge=  0.8368  magn=  0.0034
     atom  69 (R=0.014)  charge=  0.8327  magn=  0.0051
     atom  70 (R=0.014)  charge=  0.8548  magn=  0.0003
     atom  71 (R=0.012)  charge=  0.3851  magn=  0.0004
     atom  72 (R=0.012)  charge=  0.3859  magn=  0.0000
     atom  73 (R=0.012)  charge=  0.3875  magn=  0.0000
     atom  74 (R=0.014)  charge=  0.8536  magn=  0.0004
     atom  75 (R=0.012)  charge=  0.3865  magn=  0.0004
     atom  76 (R=0.012)  charge=  0.3897  magn=  0.0001
     atom  77 (R=0.012)  charge=  0.3867  magn=  0.0001
     atom  78 (R=0.014)  charge=  0.8555  magn=  0.0005
     atom  79 (R=0.012)  charge=  0.3872  magn=  0.0004
     atom  80 (R=0.012)  charge=  0.3885  magn=  0.0001
     atom  81 (R=0.012)  charge=  0.3866  magn=  0.0001
     atom  82 (R=0.014)  charge=  0.8364  magn=  0.0034
     atom  83 (R=0.014)  charge=  0.8333  magn=  0.0050
     atom  84 (R=0.014)  charge=  0.8535  magn=  0.0004
     atom  85 (R=0.012)  charge=  0.3862  magn=  0.0000
     atom  86 (R=0.012)  charge=  0.3868  magn=  0.0003
     atom  87 (R=0.012)  charge=  0.3886  magn=  0.0001
     atom  88 (R=0.014)  charge=  0.8536  magn=  0.0002
     atom  89 (R=0.012)  charge=  0.3861  magn=  0.0000
     atom  90 (R=0.012)  charge=  0.3890  magn=  0.0000
     atom  91 (R=0.012)  charge=  0.3858  magn=  0.0003
     atom  92 (R=0.014)  charge=  0.8549  magn=  0.0004
     atom  93 (R=0.012)  charge=  0.3854  magn=  0.0004
     atom  94 (R=0.012)  charge=  0.3866  magn=  0.0000
     atom  95 (R=0.012)  charge=  0.3890  magn=  0.0001
     atom  96 (R=0.014)  charge=  0.8373  magn=  0.0035
     atom  97 (R=0.014)  charge=  0.8325  magn=  0.0050
     atom  98 (R=0.014)  charge=  0.8524  magn=  0.0002
     atom  99 (R=0.012)  charge=  0.3849  magn=  0.0003
     atom 100 (R=0.012)  charge=  0.3871  magn=  0.0000
     atom 101 (R=0.012)  charge=  0.3856  magn=  0.0000
     atom 102 (R=0.014)  charge=  0.8539  magn=  0.0005
     atom 103 (R=0.012)  charge=  0.3862  magn=  0.0004
     atom 104 (R=0.012)  charge=  0.3884  magn=  0.0001
     atom 105 (R=0.012)  charge=  0.3863  magn=  0.0001
     atom 106 (R=0.014)  charge=  0.8567  magn=  0.0005
     atom 107 (R=0.012)  charge=  0.3865  magn=  0.0004
     atom 108 (R=0.012)  charge=  0.3877  magn=  0.0000
     atom 109 (R=0.012)  charge=  0.3868  magn=  0.0001

     total cpu time spent up to now is      574.1 secs

     End of self-consistent calculation

 ------ SPIN UP ------------


          k = 0.0000 0.0000 0.0000 (****** PWs)   bands (ev):

   -97.1413 -97.1326 -97.1305 -63.1376 -63.1348 -63.1305 -63.1271 -63.1248
   -63.1205 -63.1057 -63.0972 -63.0892 -28.6342 -28.5519 -28.5437 -28.4701
   -28.4466 -28.4450 -27.8084 -27.8022 -27.7827 -26.2537 -26.2488 -26.1567
   -26.1355 -26.1237 -26.0981 -24.6713 -21.3578 -21.3391 -21.3339 -21.3175
   -21.2983 -21.2959 -17.8999 -17.8740 -17.8646 -17.8453 -17.8359 -17.8131
   -17.7833 -17.7664 -17.7386 -17.7265 -17.7062 -17.6920 -16.7702 -16.5323
   -16.5204 -16.4687 -16.4510 -16.4434 -15.6284 -15.6144 -15.5880 -14.5156
   -14.4997 -14.4891 -14.1354 -14.1251 -14.1051 -13.9485 -13.9085 -13.9045
   -13.6334 -13.6164 -13.4741 -13.0402 -13.0339 -12.9914 -12.9087 -12.8700
   -12.8406 -12.8293 -12.8020 -12.7888 -12.5815 -12.5741 -12.4921 -12.3566
   -12.2693 -12.2606 -11.7822 -11.7694 -11.5704 -11.5467 -11.5357 -11.5339
   -11.5212 -11.4983 -11.4753 -11.4273 -11.3642 -11.3487 -11.2344 -11.2118
   -11.0699 -10.9388 -10.8665 -10.8346 -10.7162 -10.6593 -10.6445 -10.6059
   -10.5767 -10.4286 -10.3883 -10.3348 -10.2850 -10.2681 -10.2099 -10.1816
   -10.1483 -10.1418 -10.0943 -10.0815 -10.0488 -10.0257 -10.0109  -9.9746
    -9.9483  -9.9315  -9.8706  -9.7880  -9.6659  -9.6439  -9.6390  -9.6229
    -9.6090  -9.6023  -9.5763  -9.5716  -9.5168  -9.5038  -9.3086  -9.2337
    -9.0281  -9.0117  -8.9682  -8.9363  -8.9293  -8.9147  -8.9016  -8.8797
    -8.8670  -8.8621  -8.8564  -8.8231  -8.7991  -8.7616  -8.6221  -8.5557
    -8.5466  -8.4081  -8.3786  -8.3385  -8.2154  -8.1676  -8.1435  -8.0060
    -7.9244  -7.9128  -7.5347  -7.5118  -6.9244  -6.4582  -6.4521  -6.3676
    -6.3605

 ------ SPIN DOWN ----------


          k = 0.0000 0.0000 0.0000 (****** PWs)   bands (ev):

   -92.2890 -92.2804 -92.2792 -58.4049 -58.3952 -58.3942 -58.3901 -58.3868
   -58.3814 -58.3766 -58.3695 -58.3634 -28.4805 -28.4018 -28.3953 -28.3195
   -28.2947 -28.2933 -27.7338 -27.7276 -27.7069 -26.0661 -26.0630 -25.9751
   -25.9511 -25.9350 -25.9088 -23.6601 -21.3332 -21.3143 -21.3104 -21.2934
   -21.2736 -21.2716 -17.8962 -17.8701 -17.8606 -17.8415 -17.8321 -17.8089
   -17.7767 -17.7599 -17.7320 -17.7199 -17.6996 -17.6854 -16.6161 -16.4269
   -16.4154 -16.3641 -16.3168 -16.3064 -15.5748 -15.5619 -15.5356 -14.3528
   -14.2734 -14.2576 -13.9574 -13.8712 -13.8678 -13.6834 -13.6773 -13.3103
   -13.2984 -13.2897 -13.2263 -12.8993 -12.8680 -12.8554 -12.8282 -12.7723
   -12.7581 -12.6544 -12.4595 -12.4502 -12.3627 -12.2032 -12.1953 -12.1196
   -12.0919 -12.0250 -11.5357 -11.5098 -11.4997 -11.4867 -11.4703 -11.4628
   -11.3270 -11.2746 -11.2703 -11.2475 -11.1680 -11.1522 -10.9400 -10.9247
   -10.6091 -10.4055 -10.3649 -10.3208 -10.2646 -10.2292 -10.2147 -10.1891
   -10.1797 -10.1497 -10.1139 -10.1119 -10.0846 -10.0735 -10.0536 -10.0425
   -10.0001  -9.9934  -9.8824  -9.7156  -9.7072  -9.6586  -9.6274  -9.6239
    -9.6050  -9.5771  -9.5709  -9.2432  -9.2250  -9.0522  -9.0007  -8.9528
    -8.9415  -8.9301  -8.9134  -8.9083  -8.8937  -8.8707  -8.8644  -8.8550
    -8.8373  -8.8160  -8.6295  -8.5422  -8.5225  -8.5098  -8.4115  -8.4037
    -8.3439  -8.3109  -8.2237  -8.0196  -8.0041  -7.9683  -7.9089  -7.8553
    -7.8504  -7.5561  -6.0010  -5.8070  -5.7981  -5.7877  -5.7782  -5.4980
    -5.4859  -5.4710  -4.8835  -4.4285  -4.2072  -3.9147  -3.9040  -3.5249
    -3.5145

     highest occupied, lowest unoccupied level (ev):    -6.3605   -6.0010

!    total energy              =   -2278.67458333 Ry
     total all-electron energy =     -2278.674583 Ry
     estimated scf accuracy    <          6.6E-10 Ry

     The total energy is the sum of the following terms:
     one-electron contribution =  -16398.62221093 Ry
     hartree contribution      =    8157.56845278 Ry
     xc contribution           =    -361.25552012 Ry
     ewald contribution        =    6872.56450228 Ry
     one-center paw contrib.   =    -548.92980734 Ry

     total magnetization       =    15.00 Bohr mag/cell
     absolute magnetization    =    15.11 Bohr mag/cell

     convergence has been achieved in  18 iterations

     negative rho (up, down):  5.929E-02 4.062E-02

     Forces acting on atoms (cartesian axes, Ry/au):

     atom    1 type  1   force =     0.00678371   -0.01064509    0.00746961
     atom    2 type  1   force =     0.00253334    0.00308663   -0.01462490
     atom    3 type  1   force =    -0.01003143    0.00868931    0.00699603
     atom    4 type  2   force =     0.00058010    0.00029824    0.00080791
     atom    5 type  2   force =    -0.01418457   -0.00036277    0.01298403
     atom    6 type  3   force =     0.00372401   -0.01402020   -0.01234138
     atom    7 type  3   force =     0.01675710    0.00759231    0.00409155
     atom    8 type  2   force =     0.01686636   -0.01119818    0.00113124
     atom    9 type  3   force =    -0.00053206    0.01897083   -0.00231344
     atom   10 type  3   force =    -0.01578917   -0.00609791   -0.00904500
     atom   11 type  2   force =    -0.00856093    0.00309582   -0.01766810
     atom   12 type  3   force =    -0.00735391   -0.01169977    0.01306785
     atom   13 type  3   force =     0.00879548    0.01361905    0.01021947
     atom   14 type  2   force =     0.00264368   -0.01269948    0.02246099
     atom   15 type  2   force =    -0.01387295    0.00841576   -0.02146586
     atom   16 type  2   force =     0.00768922   -0.00617207    0.02516954
     atom   17 type  2   force =    -0.00974436    0.01751058   -0.01948082
     atom   18 type  2   force =     0.00993230   -0.01245270   -0.02156909
     atom   19 type  2   force =    -0.01035989    0.00093425    0.02476910
     atom   20 type  2   force =     0.01569654   -0.00609156   -0.01928355
     atom   21 type  2   force =    -0.00490529    0.00843772    0.02533144
     atom   22 type  2   force =    -0.01957631    0.01763785   -0.00641368
     atom   23 type  2   force =     0.01394872   -0.02242430   -0.00402905
     atom   24 type  2   force =    -0.01332951    0.02099809   -0.00016886
     atom   25 type  2   force =     0.02143646   -0.01565379   -0.00787232
     atom   26 type  4   force =     0.02142475    0.00607070   -0.00343707
     atom   27 type  4   force =     0.00361968   -0.00044662    0.00025814
     atom   28 type  4   force =     0.00145165   -0.00155265   -0.00096346
     atom   29 type  3   force =    -0.00472861    0.00233506   -0.00605073
     atom   30 type  3   force =     0.00058101   -0.00784512   -0.00068361
     atom   31 type  3   force =     0.00725723    0.00282752   -0.00191400
     atom   32 type  4   force =     0.00127513    0.00276562   -0.00026782
     atom   33 type  3   force =    -0.00488604    0.00328622   -0.00544919
     atom   34 type  3   force =     0.00709720    0.00362715   -0.00129586
     atom   35 type  3   force =    -0.00241466    0.00284392    0.00688018
     atom   36 type  4   force =     0.00110418    0.00075216    0.00072183
     atom   37 type  3   force =     0.00081785   -0.00797631    0.00032662
     atom   38 type  3   force =    -0.00175688    0.00205136    0.00744424
     atom   39 type  3   force =     0.00743566    0.00287907   -0.00101562
     atom   40 type  4   force =     0.00199673   -0.02009230   -0.00843428
     atom   41 type  4   force =     0.00116286   -0.00173389   -0.00230429
     atom   42 type  4   force =    -0.00216220    0.00028665    0.00046899
     atom   43 type  3   force =    -0.00648542    0.00402413   -0.00244494
     atom   44 type  3   force =    -0.00131868   -0.00110161    0.00776584
     atom   45 type  3   force =    -0.00084396   -0.00736709   -0.00328936
     atom   46 type  4   force =     0.00150658   -0.00158966   -0.00036183
     atom   47 type  3   force =     0.00709879    0.00292521   -0.00117685
     atom   48 type  3   force =    -0.00005671   -0.00739006   -0.00345994
     atom   49 type  3   force =    -0.00032245   -0.00155209    0.00784978
     atom   50 type  4   force =     0.00107363   -0.00074950   -0.00109195
     atom   51 type  3   force =     0.00668330    0.00336330   -0.00240464
     atom   52 type  3   force =    -0.00599321    0.00419272   -0.00356994
     atom   53 type  3   force =    -0.00034580   -0.00699453   -0.00378131
     atom   54 type  4   force =     0.00104025    0.01970769   -0.00628295
     atom   55 type  4   force =    -0.00036160    0.00166183   -0.00109255
     atom   56 type  4   force =     0.00091897    0.00036114   -0.00149323
     atom   57 type  3   force =     0.00075156    0.00784310   -0.00194375
     atom   58 type  3   force =    -0.00380180   -0.00319147   -0.00623495
     atom   59 type  3   force =     0.00741774   -0.00293509   -0.00062089
     atom   60 type  4   force =    -0.00216904   -0.00000438    0.00008352
     atom   61 type  3   force =    -0.00005244    0.00799716   -0.00169069
     atom   62 type  3   force =    -0.00401579   -0.00076369    0.00686386
     atom   63 type  3   force =    -0.00466462   -0.00310642   -0.00548692
     atom   64 type  4   force =     0.00170489    0.00120882    0.00089043
     atom   65 type  3   force =     0.00052579    0.00802131   -0.00111595
     atom   66 type  3   force =     0.00750100   -0.00257770    0.00068103
     atom   67 type  3   force =    -0.00312864   -0.00057161    0.00741424
     atom   68 type  4   force =    -0.01793990   -0.00377568   -0.00979521
     atom   69 type  4   force =    -0.00265571    0.00052712   -0.00094092
     atom   70 type  4   force =     0.00017612   -0.00186765   -0.00002099
     atom   71 type  3   force =    -0.00704588   -0.00235176   -0.00328118
     atom   72 type  3   force =     0.00070604   -0.00415895    0.00675520
     atom   73 type  3   force =     0.00541887   -0.00299915   -0.00489370
     atom   74 type  4   force =     0.00038288    0.00053680   -0.00156326
     atom   75 type  3   force =    -0.00719124   -0.00145644   -0.00362920
     atom   76 type  3   force =     0.00553424   -0.00223685   -0.00541714
     atom   77 type  3   force =     0.00029984    0.00784472    0.00027523
     atom   78 type  4   force =    -0.00051868    0.00072932   -0.00016468
     atom   79 type  3   force =    -0.00734673   -0.00152532   -0.00270349
     atom   80 type  3   force =    -0.00029145    0.00786661    0.00132584
     atom   81 type  3   force =    -0.00004678   -0.00343021    0.00721585
     atom   82 type  4   force =     0.00876651    0.01041339    0.01615143
     atom   83 type  4   force =     0.00097183    0.00253465    0.00240839
     atom   84 type  4   force =    -0.00087105    0.00087161    0.00030980
     atom   85 type  3   force =     0.00412381    0.00268075   -0.00610057
     atom   86 type  3   force =     0.00323874    0.00365137    0.00640495
     atom   87 type  3   force =    -0.00737169    0.00349310   -0.00074493
     atom   88 type  4   force =    -0.00084409   -0.00051202    0.00128348
     atom   89 type  3   force =    -0.00035055   -0.00770714    0.00127062
     atom   90 type  3   force =    -0.00754764    0.00239392   -0.00032982
     atom   91 type  3   force =     0.00301617    0.00309251    0.00690565
     atom   92 type  4   force =     0.00193595   -0.00083823    0.00041608
     atom   93 type  3   force =     0.00362770    0.00324916    0.00638032
     atom   94 type  3   force =     0.00475248    0.00173939   -0.00608883
     atom   95 type  3   force =     0.00081199   -0.00796690    0.00113609
     atom   96 type  4   force =    -0.01364087   -0.01237652    0.01277810
     atom   97 type  4   force =    -0.00216299   -0.00172946    0.00201430
     atom   98 type  4   force =    -0.00039518   -0.00130357   -0.00102714
     atom   99 type  3   force =    -0.00549169   -0.00511574    0.00335088
     atom  100 type  3   force =     0.00307880   -0.00417952   -0.00588231
     atom  101 type  3   force =    -0.00468042    0.00533480   -0.00357844
     atom  102 type  4   force =    -0.00121570    0.00104081    0.00168320
     atom  103 type  3   force =    -0.00504962   -0.00471713    0.00428081
     atom  104 type  3   force =    -0.00493865    0.00596803   -0.00273918
     atom  105 type  3   force =     0.00459852    0.00327680    0.00510398
     atom  106 type  4   force =     0.00043002   -0.00087807    0.00095937
     atom  107 type  3   force =    -0.00462205   -0.00522261    0.00401858
     atom  108 type  3   force =     0.00531234    0.00248632    0.00519222
     atom  109 type  3   force =     0.00395119   -0.00464093   -0.00523230

     Total force =     0.137789     Total SCF correction =     0.000028


     Computing stress (Cartesian axis) and pressure


     negative rho (up, down):  5.929E-02 4.062E-02
          total   stress  (Ry/bohr**3)                   (kbar)     P=        0.86
   0.00000558  -0.00000042  -0.00000001            0.82       -0.06       -0.00
  -0.00000042   0.00000585  -0.00000003           -0.06        0.86       -0.00
  -0.00000001  -0.00000003   0.00000621           -0.00       -0.00        0.91


     Writing all to output data dir ./out/Fe3_O_piv_6_H2O_3_HighSpin.save/ :
     XML data file, charge density, pseudopotentials, collected wavefunctions

     init_run     :     61.52s CPU     64.09s WALL (       1 calls)
     electrons    :    487.95s CPU    498.07s WALL (       1 calls)
     forces       :      9.73s CPU     10.08s WALL (       1 calls)
     stress       :    121.10s CPU    121.83s WALL (       1 calls)

     Called by init_run:
     wfcinit      :     45.50s CPU     45.97s WALL (       1 calls)
     potinit      :      0.94s CPU      1.06s WALL (       1 calls)
     hinit0       :      5.81s CPU      7.57s WALL (       1 calls)

     Called by electrons:
     c_bands      :    368.79s CPU    372.10s WALL (      18 calls)
     sum_band     :     82.83s CPU     86.24s WALL (      18 calls)
     v_of_rho     :      8.90s CPU      9.14s WALL (      19 calls)
     newd         :     17.44s CPU     19.33s WALL (      19 calls)
     PAW_pot      :      7.83s CPU      7.85s WALL (      19 calls)
     mix_rho      :      2.75s CPU      2.80s WALL (      18 calls)

     Called by c_bands:
     init_us_2    :      9.88s CPU      9.94s WALL (      78 calls)
     cegterg      :    358.07s CPU    361.33s WALL (      36 calls)

     Called by *egterg:
     cdiaghg      :     18.65s CPU     18.82s WALL (     132 calls)
     h_psi        :    259.13s CPU    260.40s WALL (     134 calls)
     s_psi        :     42.16s CPU     42.18s WALL (     134 calls)
     g_psi        :      0.68s CPU      0.68s WALL (      96 calls)

     Called by h_psi:
     h_psi:calbec :     44.89s CPU     44.93s WALL (     134 calls)
     vloc_psi     :    170.67s CPU    171.01s WALL (     134 calls)
     add_vuspsi   :     42.35s CPU     42.36s WALL (     134 calls)

     General routines
     calbec       :     65.60s CPU     65.64s WALL (     180 calls)
     fft          :      8.41s CPU     10.46s WALL (     441 calls)
     ffts         :      0.40s CPU      0.41s WALL (      36 calls)
     fftw         :    184.73s CPU    185.05s WALL (   39010 calls)

     Parallel routines

     PWSCF        :  11m30.15s CPU  12m23.95s WALL


   This run was terminated on:  11: 1:21  24Oct2025            

=------------------------------------------------------------------------------=
   JOB DONE.
=------------------------------------------------------------------------------=
