
     Program PWSCF v.7.3.1 starts on 24Oct2025 at 10:48:51 

     This program is part of the open-source Quantum ESPRESSO suite
     for quantum simulation of materials; please cite
         "P. Giannozzi et al., J. Phys.:Condens. Matter 21 395502 (2009);
         "P. Giannozzi et al., J. Phys.:Condens. Matter 29 465901 (2017);
         "P. Giannozzi et al., J. Chem. Phys. 152 154105 (2020);
          URL http://www.quantum-espresso.org", 
     in publications or presentations arising from this work. More details at
     http://www.quantum-espresso.org/quote

     Parallel version (MPI), running on    64 processors

     MPI processes distributed on     1 nodes
     244562 MiB available memory on the printing compute node when the environment starts

     Reading input from Fe_EtOH_3_HighSpin.in

     Current dimensions of program PWSCF are:
     Max number of different atomic species (ntypx) = 10
     Max number of k-points (npk) =  40000
     Max angular momentum in pseudopotentials (lmaxx) =  4
read_pp_mesh; mismatch in mesh size, discarding the one in header
read_pp_mesh; mismatch in mesh size, discarding the one in header
read_pp_mesh; mismatch in mesh size, discarding the one in header
read_pp_mesh; mismatch in mesh size, discarding the one in header
     file Fe.GGA-PBE-paw.UPF: wavefunction(s)  4S 3P 4P 3D 4D renormalized
     file O.GGA-PBE-paw.UPF: wavefunction(s)  3S 2P 3P renormalized
     file H.GGA-PBE-paw.UPF: wavefunction(s)  2S 2P renormalized
     file C.GGA-PBE-paw.UPF: wavefunction(s)  3S 3P renormalized
     Message from routine setup:
     the system is metallic, specify occupations

     R & G space division:  proc/nbgrp/npool/nimage =      64
     Subspace diagonalization in iterative solution of the eigenvalue problem:
     a serial algorithm will be used


     Parallelization info
     --------------------
     sticks:   dense  smooth     PW     G-vecs:    dense   smooth      PW
     Min         812     812    203               132812   132812   16599
     Max         813     813    204               132817   132817   16603
     Sum       52017   52017  12997              8500173  8500173 1062547

     Using Slab Decomposition



     bravais-lattice index     =            0
     lattice parameter (alat)  =      52.6122  a.u.
     unit-cell volume          =  139542.7664 (a.u.)^3
     number of atoms/cell      =           28
     number of atomic types    =            4
     number of electrons       =        73.00 (up:  39.00, down:  34.00)
     number of Kohn-Sham states=           39
     kinetic-energy cutoff     =      58.8000  Ry
     charge density cutoff     =     235.2000  Ry
     scf convergence threshold =      1.0E-09
     mixing beta               =       0.3000
     number of iterations used =            8  plain     mixing
     Exchange-correlation= SLA PW PBX PBC
                           (   1   4   3   4   0   0   0)

     celldm(1)=  52.612241  celldm(2)=   0.000000  celldm(3)=   0.000000
     celldm(4)=   0.000000  celldm(5)=   0.000000  celldm(6)=   0.000000

     crystal axes: (cart. coord. in units of alat)
               a(1) = (   1.000000   0.000000   0.000000 )  
               a(2) = (   0.000000   1.004173   0.000000 )  
               a(3) = (   0.000000   0.000000   0.954198 )  

     reciprocal axes: (cart. coord. in units 2 pi/alat)
               b(1) = (  1.000000  0.000000  0.000000 )  
               b(2) = (  0.000000  0.995844  0.000000 )  
               b(3) = (  0.000000  0.000000  1.048001 )  


     PseudoPot. # 1 for Fe read from file:
     /work/e89/e89/phsmea/CASTEP_TO_QS_ARCHER_PBE/Fe.GGA-PBE-paw.UPF
     MD5 check sum: 2d46233e65fd0c9f60bb7b941dda812a
     Pseudo is Projector augmented-wave + core cor, Zval = 16.0
     Generated using ATOMPAW code
     Shape of augmentation charge: SINC**2
     Using radial grid of 2342 points,  6 beta functions with: 
                l(1) =   0
                l(2) =   0
                l(3) =   1
                l(4) =   1
                l(5) =   2
                l(6) =   2
     Q(r) pseudized with 0 coefficients 


     PseudoPot. # 2 for O  read from file:
     /work/e89/e89/phsmea/CASTEP_TO_QS_ARCHER_PBE/O.GGA-PBE-paw.UPF
     MD5 check sum: 75cebe6e27812ecd511c7c5e5b8738d8
     Pseudo is Projector augmented-wave + core cor, Zval =  6.0
     Generated using ATOMPAW code
     Shape of augmentation charge: SINC**2
     Using radial grid of 2342 points,  4 beta functions with: 
                l(1) =   0
                l(2) =   0
                l(3) =   1
                l(4) =   1
     Q(r) pseudized with 0 coefficients 


     PseudoPot. # 3 for H  read from file:
     /work/e89/e89/phsmea/CASTEP_TO_QS_ARCHER_PBE/H.GGA-PBE-paw.UPF
     MD5 check sum: b9d592600ff6b56d2e28875790887365
     Pseudo is Projector augmented-wave + core cor, Zval =  1.0
     Generated using ATOMPAW code
     Shape of augmentation charge: SINC**2
     Using radial grid of 2342 points,  3 beta functions with: 
                l(1) =   0
                l(2) =   0
                l(3) =   1
     Q(r) pseudized with 0 coefficients 


     PseudoPot. # 4 for C  read from file:
     /work/e89/e89/phsmea/CASTEP_TO_QS_ARCHER_PBE/C.GGA-PBE-paw.UPF
     MD5 check sum: 4aa9e32dab6042a76c944283fa01cc46
     Pseudo is Projector augmented-wave + core cor, Zval =  4.0
     Generated using ATOMPAW code
     Shape of augmentation charge: SINC**2
     Using radial grid of 2342 points,  4 beta functions with: 
                l(1) =   0
                l(2) =   0
                l(3) =   1
                l(4) =   1
     Q(r) pseudized with 0 coefficients 


     atomic species   valence    mass     pseudopotential
     Fe               16.00    55.84500     Fe( 1.00)
     O                 6.00    16.00000     O ( 1.00)
     H                 1.00     1.00800     H ( 1.00)
     C                 4.00    12.01100     C ( 1.00)

     Starting magnetic structure 
     atomic species   magnetization
     Fe              0.312
     O               0.000
     H               0.000
     C               0.000

     No symmetry found



   Cartesian axes

     site n.     atom                  positions (alat units)
         1        Fe     tau(   1) = (   0.4731795   0.4936033   0.4536223  )
         2        O      tau(   2) = (   0.4485081   0.5465446   0.4207990  )
         3        O      tau(   3) = (   0.4317938   0.4611703   0.4948999  )
         4        O      tau(   4) = (   0.5369389   0.4735319   0.4474933  )
         5        H      tau(   5) = (   0.4138269   0.5503047   0.4169346  )
         6        C      tau(   6) = (   0.5795487   0.4840553   0.4095145  )
         7        H      tau(   7) = (   0.4024991   0.4765834   0.5065634  )
         8        C      tau(   8) = (   0.4709140   0.5933291   0.3934057  )
         9        H      tau(   9) = (   0.5513062   0.4519894   0.4711675  )
        10        C      tau(  10) = (   0.4307281   0.4075943   0.5206491  )
        11        H      tau(  11) = (   0.4816638   0.5776349   0.3591799  )
        12        H      tau(  12) = (   0.5012264   0.6021808   0.4165067  )
        13        C      tau(  13) = (   0.4328952   0.6302519   0.3904766  )
        14        H      tau(  14) = (   0.4022549   0.6193502   0.3684441  )
        15        H      tau(  15) = (   0.4497250   0.6604355   0.3710945  )
        16        H      tau(  16) = (   0.4217483   0.6441853   0.4253662  )
        17        H      tau(  17) = (   0.4494062   0.3860445   0.4938737  )
        18        C      tau(  18) = (   0.3801155   0.3946258   0.5292807  )
        19        H      tau(  19) = (   0.4522033   0.4146779   0.5526202  )
        20        H      tau(  20) = (   0.3591799   0.3895186   0.4965642  )
        21        H      tau(  21) = (   0.3619709   0.4181067   0.5550066  )
        22        H      tau(  22) = (   0.3822005   0.3591799   0.5470081  )
        23        H      tau(  23) = (   0.5962006   0.5159095   0.4251003  )
        24        H      tau(  24) = (   0.5595344   0.4919013   0.3768221  )
        25        C      tau(  25) = (   0.6107492   0.4410723   0.4071265  )
        26        H      tau(  26) = (   0.6290297   0.4332691   0.4410124  )
        27        H      tau(  27) = (   0.6393899   0.4507243   0.3815531  )
        28        H      tau(  28) = (   0.5927649   0.4094136   0.3926755  )

     number of k points=     1
                       cart. coord. in units 2pi/alat
        k(    1) = (   0.0000000   0.0000000   0.0000000), wk =   1.0000000

     Dense  grid:  8500173 G-vectors     FFT dimensions: ( 270, 270, 250)

     Estimated max dynamical RAM per process >     703.73 MB

     Estimated total dynamical RAM >      43.98 GB
     Generating pointlists ...
     new r_m :   0.0276 (alat units)  1.4507 (a.u.) for type    1
     new r_m :   0.0145 (alat units)  0.7614 (a.u.) for type    2
     new r_m :   0.0145 (alat units)  0.7614 (a.u.) for type    3
     new r_m :   0.0161 (alat units)  0.8490 (a.u.) for type    4

     Initial potential from superposition of free atoms

     starting charge      75.9988, renormalised to      73.0000

     negative rho (up, down):  2.535E-02 1.586E-02
     Starting wfcs are  180 randomized atomic wfcs
     Checking if some PAW data can be deallocated... 

     total cpu time spent up to now is       33.6 secs

     per-process dynamical memory:   175.5 Mb

     Self-consistent Calculation

     iteration #  1     ecut=    58.80 Ry     beta= 0.30
     Davidson diagonalization with overlap
     ethr =  1.00E-02,  avg # of iterations =  2.0

     negative rho (up, down):  2.698E-02 1.728E-02

     total cpu time spent up to now is       42.5 secs

     total energy              =    -583.71886745 Ry
     estimated scf accuracy    <       6.64809579 Ry

     total magnetization       =     5.00 Bohr mag/cell
     absolute magnetization    =     5.05 Bohr mag/cell

     iteration #  2     ecut=    58.80 Ry     beta= 0.30
     Davidson diagonalization with overlap
     ethr =  9.11E-03,  avg # of iterations =  2.0

     negative rho (up, down):  2.739E-02 1.809E-02

     total cpu time spent up to now is       50.6 secs

     total energy              =    -582.85021541 Ry
     estimated scf accuracy    <       6.56716293 Ry

     total magnetization       =     5.00 Bohr mag/cell
     absolute magnetization    =     5.07 Bohr mag/cell

     iteration #  3     ecut=    58.80 Ry     beta= 0.30
     Davidson diagonalization with overlap
     ethr =  9.00E-03,  avg # of iterations =  1.5

     negative rho (up, down):  2.798E-02 1.876E-02

     total cpu time spent up to now is       58.3 secs

     total energy              =    -584.34447995 Ry
     estimated scf accuracy    <       1.82572910 Ry

     total magnetization       =     5.00 Bohr mag/cell
     absolute magnetization    =     5.12 Bohr mag/cell

     iteration #  4     ecut=    58.80 Ry     beta= 0.30
     Davidson diagonalization with overlap
     ethr =  2.50E-03,  avg # of iterations =  1.5

     negative rho (up, down):  2.869E-02 1.890E-02

     total cpu time spent up to now is       66.0 secs

     total energy              =    -584.07213963 Ry
     estimated scf accuracy    <       0.93851014 Ry

     total magnetization       =     5.00 Bohr mag/cell
     absolute magnetization    =     5.08 Bohr mag/cell

     iteration #  5     ecut=    58.80 Ry     beta= 0.30
     Davidson diagonalization with overlap
     ethr =  1.29E-03,  avg # of iterations =  2.0

     negative rho (up, down):  2.925E-02 1.898E-02

     total cpu time spent up to now is       74.0 secs

     total energy              =    -584.19329278 Ry
     estimated scf accuracy    <       0.06769502 Ry

     total magnetization       =     5.00 Bohr mag/cell
     absolute magnetization    =     5.04 Bohr mag/cell

     iteration #  6     ecut=    58.80 Ry     beta= 0.30
     Davidson diagonalization with overlap
     ethr =  9.27E-05,  avg # of iterations =  3.0

     negative rho (up, down):  3.021E-02 1.939E-02

     total cpu time spent up to now is       82.7 secs

     total energy              =    -584.17324467 Ry
     estimated scf accuracy    <       0.12531883 Ry

     total magnetization       =     5.00 Bohr mag/cell
     absolute magnetization    =     5.03 Bohr mag/cell

     iteration #  7     ecut=    58.80 Ry     beta= 0.30
     Davidson diagonalization with overlap
     ethr =  9.27E-05,  avg # of iterations =  3.0

     negative rho (up, down):  3.066E-02 1.948E-02

     total cpu time spent up to now is       90.9 secs

     total energy              =    -584.19358472 Ry
     estimated scf accuracy    <       0.07266543 Ry

     total magnetization       =     5.00 Bohr mag/cell
     absolute magnetization    =     5.05 Bohr mag/cell

     iteration #  8     ecut=    58.80 Ry     beta= 0.30
     Davidson diagonalization with overlap
     ethr =  9.27E-05,  avg # of iterations =  1.0

     negative rho (up, down):  3.072E-02 1.942E-02

     total cpu time spent up to now is       98.6 secs

     total energy              =    -584.20111960 Ry
     estimated scf accuracy    <       0.00129561 Ry

     total magnetization       =     5.00 Bohr mag/cell
     absolute magnetization    =     5.04 Bohr mag/cell

     iteration #  9     ecut=    58.80 Ry     beta= 0.30
     Davidson diagonalization with overlap
     ethr =  1.77E-06,  avg # of iterations =  3.0

     negative rho (up, down):  3.085E-02 1.943E-02

     total cpu time spent up to now is      107.8 secs

     total energy              =    -584.20167527 Ry
     estimated scf accuracy    <       0.00085644 Ry

     total magnetization       =     5.00 Bohr mag/cell
     absolute magnetization    =     5.04 Bohr mag/cell

     iteration # 10     ecut=    58.80 Ry     beta= 0.30
     Davidson diagonalization with overlap
     ethr =  1.17E-06,  avg # of iterations =  1.0

     negative rho (up, down):  3.095E-02 1.942E-02

     total cpu time spent up to now is      115.5 secs

     total energy              =    -584.20188770 Ry
     estimated scf accuracy    <       0.00025599 Ry

     total magnetization       =     5.00 Bohr mag/cell
     absolute magnetization    =     5.04 Bohr mag/cell

     iteration # 11     ecut=    58.80 Ry     beta= 0.30
     Davidson diagonalization with overlap
     ethr =  3.51E-07,  avg # of iterations =  1.5

     negative rho (up, down):  3.098E-02 1.942E-02

     total cpu time spent up to now is      123.4 secs

     total energy              =    -584.20187589 Ry
     estimated scf accuracy    <       0.00038713 Ry

     total magnetization       =     5.00 Bohr mag/cell
     absolute magnetization    =     5.04 Bohr mag/cell

     iteration # 12     ecut=    58.80 Ry     beta= 0.30
     Davidson diagonalization with overlap
     ethr =  3.51E-07,  avg # of iterations =  1.0

     negative rho (up, down):  3.101E-02 1.941E-02

     total cpu time spent up to now is      131.1 secs

     total energy              =    -584.20187415 Ry
     estimated scf accuracy    <       0.00008920 Ry

     total magnetization       =     5.00 Bohr mag/cell
     absolute magnetization    =     5.04 Bohr mag/cell

     iteration # 13     ecut=    58.80 Ry     beta= 0.30
     Davidson diagonalization with overlap
     ethr =  1.22E-07,  avg # of iterations =  2.5

     negative rho (up, down):  3.102E-02 1.940E-02

     total cpu time spent up to now is      139.2 secs

     total energy              =    -584.20188754 Ry
     estimated scf accuracy    <       0.00000164 Ry

     total magnetization       =     5.00 Bohr mag/cell
     absolute magnetization    =     5.04 Bohr mag/cell

     iteration # 14     ecut=    58.80 Ry     beta= 0.30
     Davidson diagonalization with overlap
     ethr =  2.24E-09,  avg # of iterations =  3.0

     negative rho (up, down):  3.102E-02 1.940E-02

     total cpu time spent up to now is      148.5 secs

     total energy              =    -584.20188850 Ry
     estimated scf accuracy    <       0.00000062 Ry

     total magnetization       =     5.00 Bohr mag/cell
     absolute magnetization    =     5.04 Bohr mag/cell

     iteration # 15     ecut=    58.80 Ry     beta= 0.30
     Davidson diagonalization with overlap
     ethr =  8.54E-10,  avg # of iterations =  3.0

     negative rho (up, down):  3.102E-02 1.940E-02

     total cpu time spent up to now is      157.7 secs

     total energy              =    -584.20188871 Ry
     estimated scf accuracy    <       0.00000059 Ry

     total magnetization       =     5.00 Bohr mag/cell
     absolute magnetization    =     5.04 Bohr mag/cell

     iteration # 16     ecut=    58.80 Ry     beta= 0.30
     Davidson diagonalization with overlap
     ethr =  8.07E-10,  avg # of iterations =  2.0

     negative rho (up, down):  3.102E-02 1.940E-02

     total cpu time spent up to now is      165.9 secs

     total energy              =    -584.20188880 Ry
     estimated scf accuracy    <       0.00000010 Ry

     total magnetization       =     5.00 Bohr mag/cell
     absolute magnetization    =     5.04 Bohr mag/cell

     iteration # 17     ecut=    58.80 Ry     beta= 0.30
     Davidson diagonalization with overlap
     ethr =  1.34E-10,  avg # of iterations =  2.5

     negative rho (up, down):  3.102E-02 1.940E-02

     total cpu time spent up to now is      174.4 secs

     total energy              =    -584.20188883 Ry
     estimated scf accuracy    <       0.00000002 Ry

     total magnetization       =     5.00 Bohr mag/cell
     absolute magnetization    =     5.04 Bohr mag/cell

     iteration # 18     ecut=    58.80 Ry     beta= 0.30
     Davidson diagonalization with overlap
     ethr =  2.21E-11,  avg # of iterations =  3.0

     negative rho (up, down):  3.102E-02 1.940E-02

     total cpu time spent up to now is      183.5 secs

     total energy              =    -584.20188883 Ry
     estimated scf accuracy    <       0.00000002 Ry

     total magnetization       =     5.00 Bohr mag/cell
     absolute magnetization    =     5.04 Bohr mag/cell

     iteration # 19     ecut=    58.80 Ry     beta= 0.30
     Davidson diagonalization with overlap
     ethr =  2.21E-11,  avg # of iterations =  2.0

     negative rho (up, down):  3.102E-02 1.940E-02

     Magnetic moment per site  (integrated on atomic sphere of radius R)
     atom   1 (R=0.028)  charge= 12.6384  magn=  3.4170
     atom   2 (R=0.014)  charge=  1.9589  magn=  0.0857
     atom   3 (R=0.014)  charge=  1.9559  magn=  0.0905
     atom   4 (R=0.014)  charge=  1.9594  magn=  0.0827
     atom   5 (R=0.014)  charge=  0.3834  magn=  0.0047
     atom   6 (R=0.016)  charge=  0.8135  magn=  0.0064
     atom   7 (R=0.014)  charge=  0.3836  magn=  0.0048
     atom   8 (R=0.016)  charge=  0.8134  magn=  0.0062
     atom   9 (R=0.014)  charge=  0.3844  magn=  0.0043
     atom  10 (R=0.016)  charge=  0.8115  magn=  0.0060
     atom  11 (R=0.014)  charge=  0.3931  magn=  0.0066
     atom  12 (R=0.014)  charge=  0.3945  magn=  0.0038
     atom  13 (R=0.016)  charge=  0.8588  magn=  0.0057
     atom  14 (R=0.014)  charge=  0.3867  magn=  0.0012
     atom  15 (R=0.014)  charge=  0.3673  magn=  0.0069
     atom  16 (R=0.014)  charge=  0.3875  magn=  0.0010
     atom  17 (R=0.014)  charge=  0.3957  magn=  0.0030
     atom  18 (R=0.016)  charge=  0.8592  magn=  0.0062
     atom  19 (R=0.014)  charge=  0.3917  magn=  0.0064
     atom  20 (R=0.014)  charge=  0.3882  magn=  0.0010
     atom  21 (R=0.014)  charge=  0.3858  magn=  0.0011
     atom  22 (R=0.014)  charge=  0.3649  magn=  0.0079
     atom  23 (R=0.014)  charge=  0.3922  magn=  0.0072
     atom  24 (R=0.014)  charge=  0.3963  magn=  0.0028
     atom  25 (R=0.016)  charge=  0.8587  magn=  0.0061
     atom  26 (R=0.014)  charge=  0.3867  magn=  0.0010
     atom  27 (R=0.014)  charge=  0.3683  magn=  0.0068
     atom  28 (R=0.014)  charge=  0.3886  magn=  0.0011

     total cpu time spent up to now is      191.3 secs

     End of self-consistent calculation

 ------ SPIN UP ------------


          k = 0.0000 0.0000 0.0000 (****** PWs)   bands (ev):

  -105.5021 -71.6061 -71.5127 -71.4185 -34.9852 -34.8702 -34.8115 -26.2171
   -26.1955 -26.1506 -23.0434 -23.0195 -22.8320 -22.0009 -21.7648 -21.6710
   -20.0555 -19.8280 -19.6770 -19.4922 -19.4113 -18.9968 -18.5348 -18.4579
   -18.3412 -17.5306 -17.4784 -17.0343 -16.7937 -16.5369 -16.2954 -16.1629
   -16.0491 -15.7283 -15.5586 -15.4636 -15.1421 -15.1147 -15.0653

 ------ SPIN DOWN ----------


          k = 0.0000 0.0000 0.0000 (****** PWs)   bands (ev):

  -101.0223 -67.2800 -67.0797 -67.0508 -34.6676 -34.5492 -34.4721 -26.1435
   -26.1151 -26.0801 -22.8917 -22.8445 -22.7293 -21.5400 -21.2055 -21.1262
   -19.6352 -19.4270 -19.3661 -18.8971 -18.8263 -18.7924 -17.1888 -17.0947
   -16.8756 -16.4043 -16.3491 -16.2155 -15.7058 -15.6879 -15.5848 -15.1647
   -15.1373 -15.0702 -14.4072 -14.2885 -14.1875 -13.5623 -13.5278

     highest occupied, lowest unoccupied level (ev):   -15.0653  -14.4072

!    total energy              =    -584.20188884 Ry
     total all-electron energy =      -584.201889 Ry
     estimated scf accuracy    <          4.9E-10 Ry

     The total energy is the sum of the following terms:
     one-electron contribution =   -1808.32041756 Ry
     hartree contribution      =     865.65729837 Ry
     xc contribution           =     -82.71729449 Ry
     ewald contribution        =     575.56768789 Ry
     one-center paw contrib.   =    -134.38916305 Ry

     total magnetization       =     5.00 Bohr mag/cell
     absolute magnetization    =     5.04 Bohr mag/cell

     convergence has been achieved in  19 iterations

     negative rho (up, down):  3.102E-02 1.940E-02

     Forces acting on atoms (cartesian axes, Ry/au):

     atom    1 type  1   force =    -0.00006377   -0.00080608   -0.00053399
     atom    2 type  2   force =     0.01140639    0.01453606   -0.00903270
     atom    3 type  2   force =     0.00285373   -0.01927771    0.00815899
     atom    4 type  2   force =     0.01155450    0.00568300   -0.01367352
     atom    5 type  3   force =    -0.01834920    0.00162196   -0.00111635
     atom    6 type  4   force =    -0.00280186   -0.00679355    0.00223336
     atom    7 type  3   force =    -0.01567404    0.00833348    0.00498002
     atom    8 type  4   force =    -0.00760059   -0.00048685    0.00492386
     atom    9 type  3   force =     0.00675048   -0.01157071    0.01246280
     atom   10 type  4   force =    -0.00519242    0.00469552   -0.00340991
     atom   11 type  3   force =     0.00401297   -0.00343845   -0.00884881
     atom   12 type  3   force =     0.00833490    0.00124097    0.00447690
     atom   13 type  4   force =     0.00052045   -0.00613709    0.00336775
     atom   14 type  3   force =    -0.00726078   -0.00026612   -0.00546783
     atom   15 type  3   force =     0.00409753    0.00806272   -0.00595924
     atom   16 type  3   force =    -0.00264898    0.00354832    0.00725819
     atom   17 type  3   force =     0.00577021   -0.00483203   -0.00542453
     atom   18 type  4   force =     0.00262357    0.00620162   -0.00380077
     atom   19 type  3   force =     0.00603856    0.00081097    0.00814253
     atom   20 type  3   force =    -0.00490143   -0.00157854   -0.00669565
     atom   21 type  3   force =    -0.00530998    0.00358013    0.00647430
     atom   22 type  3   force =     0.00029677   -0.00956208    0.00573013
     atom   23 type  3   force =     0.00457142    0.00880017    0.00311231
     atom   24 type  3   force =    -0.00440660    0.00349210   -0.00732819
     atom   25 type  4   force =    -0.00515070    0.00103552    0.00310532
     atom   26 type  3   force =     0.00557320   -0.00271910    0.00653052
     atom   27 type  3   force =     0.00826521    0.00290509   -0.00640556
     atom   28 type  3   force =    -0.00330953   -0.00707932   -0.00325991

     Total force =     0.063152     Total SCF correction =     0.000029


     Computing stress (Cartesian axis) and pressure


     negative rho (up, down):  3.102E-02 1.940E-02
          total   stress  (Ry/bohr**3)                   (kbar)     P=        0.06
   0.00000080  -0.00000032  -0.00000008            0.12       -0.05       -0.01
  -0.00000032   0.00000015  -0.00000042           -0.05        0.02       -0.06
  -0.00000008  -0.00000042   0.00000026           -0.01       -0.06        0.04


     Writing all to output data dir ./out/Fe_EtOH_3_HighSpin.save/ :
     XML data file, charge density, pseudopotentials, collected wavefunctions

     init_run     :     15.81s CPU     16.54s WALL (       1 calls)
     electrons    :    151.21s CPU    159.45s WALL (       1 calls)
     forces       :      3.83s CPU      4.07s WALL (       1 calls)
     stress       :     18.22s CPU     18.68s WALL (       1 calls)

     Called by init_run:
     wfcinit      :      6.90s CPU      7.13s WALL (       1 calls)
     potinit      :      0.96s CPU      1.10s WALL (       1 calls)
     hinit0       :      1.82s CPU      1.95s WALL (       1 calls)

     Called by electrons:
     c_bands      :     62.65s CPU     63.73s WALL (      19 calls)
     sum_band     :     49.24s CPU     53.56s WALL (      19 calls)
     v_of_rho     :     10.59s CPU     10.74s WALL (      20 calls)
     newd         :     19.22s CPU     20.99s WALL (      20 calls)
     PAW_pot      :      6.40s CPU      6.41s WALL (      20 calls)
     mix_rho      :      3.93s CPU      3.94s WALL (      19 calls)

     Called by c_bands:
     init_us_2    :      3.82s CPU      3.84s WALL (      82 calls)
     cegterg      :     58.83s CPU     59.84s WALL (      38 calls)

     Called by *egterg:
     cdiaghg      :      0.44s CPU      0.54s WALL (     119 calls)
     h_psi        :     53.38s CPU     53.89s WALL (     121 calls)
     s_psi        :      3.98s CPU      4.01s WALL (     121 calls)
     g_psi        :      0.16s CPU      0.16s WALL (      81 calls)

     Called by h_psi:
     h_psi:calbec :      4.25s CPU      4.29s WALL (     121 calls)
     vloc_psi     :     44.80s CPU     44.92s WALL (     121 calls)
     add_vuspsi   :      3.98s CPU      3.98s WALL (     121 calls)

     General routines
     calbec       :      6.26s CPU      6.30s WALL (     169 calls)
     fft          :      7.74s CPU      8.06s WALL (     462 calls)
     ffts         :      0.44s CPU      0.45s WALL (      38 calls)
     fftw         :     48.85s CPU     48.96s WALL (    9304 calls)

     Parallel routines

     PWSCF        :   3m15.94s CPU   3m44.85s WALL


   This run was terminated on:  10:52:36  24Oct2025            

=------------------------------------------------------------------------------=
   JOB DONE.
=------------------------------------------------------------------------------=
