==================================================================================
It's Thu 16 May 2024 10:40:21 PM BST.
*** Starting onetep_launcher (node nid002334, PIDs 141577 141578 141579 141580 141581 141582 141583 141584 141585 141586 141587 141588 141589 141590 141591 141592)...
    - ONETEP arguments: hBN_66_C_N_nspT.dat
    - Current directory: /mnt/lustre/a2fs-work3/work/e89/e89/ndmh3/hBN_def/hBN_66_C_N_nspT
    - Launcher executable directory: /mnt/lustre/a2fs-work3/work/e89/e89/ndmh3/onetep/utils
    - (-e) ONETEP executable specified through command-line: /work/e89/e89/ndmh3/onetep/bin/onetep.archer2_2023_cray
      ... trying /work/e89/e89/ndmh3/onetep/bin/onetep.archer2_2023_cray
          -> looks OK
*** Setting up environment...
    - (-s) Process stack size: unlimited
    - (-t) OMP_NUM_THREADS: 8
    - (-o) OMP_STACKSIZE: 64M
    - (-c) Maximum core file size: 2048000
    - (-d) decfort_dump_flag: n
    - (-m) I_MPI_OFA_TRANSLATION_CACHE: 0
    - (-m) I_MPI_DAPL_TRANSLATION_CACHE: 0
    - (-m) I_MPI_DAPL_UD_TRANSLATION_CACHE: 0
*** Starting ONETEP...
    - /work/e89/e89/ndmh3/onetep/bin/onetep.archer2_2023_cray hBN_66_C_N_nspT.dat
=================================================================================
_________________________________________________________________________________
 +---------------------------------------------------------------+
 |                                                               |
 |        ####### #     # ####### ####### ####### ######         |
 |        #     # ##    # #          #    #       #     #        |
 |        #     # # #   # #          #    #       #     #        |
 |        #     # #  #  # #####      #    #####   ######         |
 |        #     # #   # # #          #    #       #              |
 |        #     # #    ## #          #    #       #              |
 |        ####### #     # #######    #    ####### #              |
 |                                                               |
 |        Linear-Scaling Ab Initio Total Energy Program          |
 |                                                               |
 |          Release for academic collaborators of ODG            |
 |                                             Version 7.1.29    |
 | Remote: git@github.com:onetep-devel/onetep.git                |
 | Local branch: master                                          |
 | Commit ID: 91e6f3e6b89d8869bed7d0d1b91ca8f87d72fd1f           |
 | Date: Tue May 14 12:35:29 2024 +0200                          |
 | Working tree clean                                            |
 |                                                               |
 +---------------------------------------------------------------+
 |                                                               |
 |  Authors:                                                     |
 |  Jacek Dziedzic, Peter D. Haynes, Nicholas D. M. Hine,        |
 |  Arash A. Mostofi, Mike C. Payne and Chris-Kriton Skylaris    |
 |                                                               |
 |  Contributors:                                                |
 |  J. Aarons, L. Andrinopoulos, P. W. Avraam, R. A. Bell,       |
 |  A. Bhandari, G. A. Bramley, R. J. Charlton, S. J. Clark,     |
 |  R. J. Clements, G. C. Constantinescu, F. Corsetti,           |
 |  N. Corsini, O. Dieguez, S. M. M. Dubois, K. K. B. Duff,      |
 |  J. M. Escartin, M. Escobar Azor, A. Greco,                   |
 |  H. Helal, Q. O. Hill, L. P. Lee, J.-H. Li,                   |
 |  E. B. Linscott, G. Moynihan, D. D. O`Regan,                  |
 |  O. K. Okan, M. J. S. Phipps, C. J. Pickard,                  |
 |  J. C. A. Prentice, M. I. J. Probert, L. E. Ratcliff,         |
 |  M. Robinson, A. Ruiz Serrano, M. dos Santos Dias,            |
 |  J. S. Spencer, E. W. Tait, G. Teobaldi, D. Turban,           |
 |  V. Vitale, K. A. Wilkinson, C. Weber, J. C. Womack,          |
 |  N. Yeung and T. J. Zuehlsdorff                               |
 |                                                               |
 |                                   Copyright (c) 2004-2024     |
 |                                                               |
 |  Please cite:                                                 |
 |  "The ONETEP linear-scaling density functional theory program"|
 |   J. Chem. Phys. 152(17) 174111 (2020)                        |
 |                                                               |
 |          in all publications arising from your use of ONETEP. |
 |                                                               |
 +---------------------------------------------------------------+
 |                                                               |
 |   ONETEP is based on developments described in the following  |
 |   publications:                                               |
 |                                                               |
 |  "Nonorthogonal generalized Wannier function pseudopotential  |
 |   plane-wave method".                                         |
 |   C.-K. Skylaris, A. A. Mostofi, P. D. Haynes, O. Dieguez,    |
 |   M. C. Payne.                                                |
 |   Phys. Rev. B 66 035119 (2002).                              |
 |                                                               |
 |  "Preconditioned iterative minimization for linear-scaling    |
 |   electronic structure calculations".                         |
 |   A. A. Mostofi, P. D. Haynes, C.-K. Skylaris, M. C. Payne.   |
 |   J. Chem. Phys. 119(17), pp.8842-8848 (2003).                |
 |                                                               |
 |  "Total-energy calculations on a real space grid with         |
 |   localized functions and a plane-wave basis".                |
 |   A. A. Mostofi, C.-K. Skylaris, P. D. Haynes, M. C. Payne.   |
 |   Comput. Phys. Commun. 147, pp.788-802 (2002).               |
 |                                                               |
 |  "Accurate kinetic energy evaluation in electronic structure  |
 |   calculations with localized functions on real space grids"  |
 |   C.-K. Skylaris, A. A. Mostofi, P. D. Haynes, C. J. Pickard, |
 |   M. C. Payne.                                                |
 |   Comput. Phys. Commun. 140, pp.315-322 (2001).               |
 |                                                               |
 |  "Accurate ionic forces and geometry optimization in linear-  |
 |   scaling density-functional theory with local orbitals"      |
 |   N. D. M. Hine, M. Robinson, P. D. Haynes, C.-K. Skylaris,   |
 |   M. C. Payne, and A. A. Mostofi.                             |
 |   Phys. Rev. B 83 195102 (2011).                              |
 |                                                               |
 +---------------------------------------------------------------+

Job started: 16-05-2024 22:40 (+0100)
 
Reading parameters from file "hBN_66_C_N_nspT.dat" ...... done

If your calculation crashes here, before "Checking processes and threads..."
is displayed, then your stack size is insufficient.
If so, use "ulimit -s unlimited" at runtime.
You can disable this check with "check_stack_size F".

Checking processes and threads...
   Running with 16 MPI processes.
   There are 16 MPI processes running on the same node as the root process.
   Each MPI process is using: 
               1 threads for simulation cell FFTs.
               1 threads for threaded FFT box operations.
               8 threads for loops over batched FFT box operations.
               8 threads in other parallel regions.
   MPI Interface: S1 (use mpi_f08) (-DMPI -DUSE_MPI_F08).
   MPI_ASYNC_PROTECTS_NONBLOCKING: Yes. MPI_SUBARRAYS_SUPPORTED: Yes.
   FFTW Interface: OMP-capable and MODERN. (-DUSE_MODERN_FFTW specified).
   GPU Interface: None.
... done

Basic input checks...... done

Reading geometry and species blocks from file "hBN_66_C_N_nspT.dat" ...
  <species_atomic_set> block not found: NGWF initialisation set to SOLVE
... done


--------------------------------------------------------------------------------
---------------------------------- INPUT FILE ----------------------------------
--------------------------------------------------------------------------------

charge : 0                                                                      
comms_group_size : 8                                                            
cutoff_energy : 800 eV                                                          
do_properties : T                                                               
edft : F                                                                        
edft_maxit : 15                                                                 
edft_spin_fix : 0                                                               
fast_density : F                                                                
fine_grid_scale : 2                                                             
forces_output_detail : VERBOSE                                                  
geom_continuation : F                                                           
geom_force_tol : 0.01 eV/Ang                                                    
homo_plot : 1                                                                   
lumo_plot : 1                                                                   
maxit_ngwf_cg : 30                                                              
ngwf_threshold_orig : 1e-06                                                     
ngwfs_spin_polarized : T                                                        
output_detail : BRIEF                                                           
paw : T                                                                         
pseudo_path : .                                                                 
read_denskern : F                                                               
read_hamiltonian : F                                                            
read_tightbox_ngwfs : F                                                         
run_time : 86000                                                                
task : GEOMETRYOPTIMIZATION                                                     
write_denskern : T                                                              
write_forces : T                                                                
write_hamiltonian : F                                                           
write_tightbox_ngwfs : T                                                        
xc_functional : PBE                                                             
%BLOCK LATTICE_CART                                                             
ang                                                                             
15.06648071       0.00000000       0.00000000                                   
-7.53324036      13.04795505       0.00000000                                   
0.00000000       0.00000000      16.00000008                                    
%ENDBLOCK LATTICE_CART                                                          
%BLOCK POSITIONS_ABS                                                            
ang                                                                             
B     0.000000     0.000000     8.000000                                        
N     1.255540     0.724886     8.000000                                        
B    -1.255540     2.174659     8.000000                                        
N     0.000000     2.899546     8.000000                                        
B    -2.511080     4.349318     8.000000                                        
N    -1.255540     5.074205     8.000000                                        
B    -3.766620     6.523978     8.000000                                        
N    -2.511080     7.248864     8.000000                                        
B    -5.022160     8.698637     8.000000                                        
N    -3.766620     9.423523     8.000000                                        
B    -6.277700    10.873296     8.000000                                        
N    -5.022160    11.598182     8.000000                                        
B     2.511080     0.000000     8.000000                                        
N     3.766620     0.724886     8.000000                                        
B     1.255540     2.174659     8.000000                                        
N     2.511080     2.899546     8.000000                                        
B     0.000000     4.349318     8.000000                                        
N     1.255540     5.074205     8.000000                                        
B    -1.255540     6.523978     8.000000                                        
N    -0.000000     7.248864     8.000000                                        
B    -2.511080     8.698637     8.000000                                        
N    -1.255540     9.423523     8.000000                                        
B    -3.766620    10.873296     8.000000                                        
N    -2.511080    11.598182     8.000000                                        
B     5.022160     0.000000     8.000000                                        
N     6.277700     0.724886     8.000000                                        
B     3.766620     2.174659     8.000000                                        
N     5.022160     2.899546     8.000000                                        
B     2.511080     4.349318     8.000000                                        
C     3.766620     5.074205     8.000000                                        
B     1.255540     6.523978     8.000000                                        
N     2.511080     7.248864     8.000000                                        
B     0.000000     8.698637     8.000000                                        
N     1.255540     9.423523     8.000000                                        
B    -1.255540    10.873296     8.000000                                        
N     0.000000    11.598182     8.000000                                        
B     7.533240     0.000000     8.000000                                        
N     8.788780     0.724886     8.000000                                        
B     6.277700     2.174659     8.000000                                        
N     7.533240     2.899546     8.000000                                        
B     5.022160     4.349318     8.000000                                        
N     6.277700     5.074205     8.000000                                        
B     3.766620     6.523978     8.000000                                        
N     5.022160     7.248864     8.000000                                        
B     2.511080     8.698637     8.000000                                        
N     3.766620     9.423523     8.000000                                        
B     1.255540    10.873296     8.000000                                        
N     2.511080    11.598182     8.000000                                        
B    10.044320     0.000000     8.000000                                        
N    11.299861     0.724886     8.000000                                        
B     8.788780     2.174659     8.000000                                        
N    10.044320     2.899546     8.000000                                        
B     7.533240     4.349318     8.000000                                        
N     8.788780     5.074205     8.000000                                        
B     6.277700     6.523978     8.000000                                        
N     7.533240     7.248864     8.000000                                        
B     5.022160     8.698637     8.000000                                        
N     6.277700     9.423523     8.000000                                        
B     3.766620    10.873296     8.000000                                        
N     5.022160    11.598182     8.000000                                        
B    12.555401     0.000000     8.000000                                        
N    13.810941     0.724886     8.000000                                        
B    11.299861     2.174659     8.000000                                        
N    12.555401     2.899546     8.000000                                        
B    10.044320     4.349318     8.000000                                        
N    11.299861     5.074205     8.000000                                        
B     8.788780     6.523978     8.000000                                        
N    10.044320     7.248864     8.000000                                        
B     7.533240     8.698637     8.000000                                        
N     8.788780     9.423523     8.000000                                        
B     6.277700    10.873296     8.000000                                        
N     7.533240    11.598182     8.000000                                        
%ENDBLOCK POSITIONS_ABS                                                         
%BLOCK SPECIES                                                                  
B B 5 -1 10.0                                                                   
C C 6 -1 10.0                                                                   
N N 7 -1 10.0                                                                   
%ENDBLOCK SPECIES                                                               
%BLOCK SPECIES_POT                                                              
B B.PBE-paw.abinit                                                              
C C.PBE-paw.abinit                                                              
N N.PBE-paw.abinit                                                              
%ENDBLOCK SPECIES_POT                                                           

--------------------------------------------------------------------------------
-------------------------------- END INPUT FILE --------------------------------
--------------------------------------------------------------------------------


 
 ESDF WARNING(1): "charge" (esdf_physical) has no units. Assume "e".
<<<<<<<<<<<<<<<<<<<<<<<<<<<<<<<<< Full system >>>>>>>>>>>>>>>>>>>>>>>>>>>>>>>>>>
<<<<<<<<<<<<<<<<<<<<<<<<<<< PAW Dataset information >>>>>>>>>>>>>>>>>>>>>>>>>>>
File: B.PBE-paw.abinit; rc = 1.70 bohr; shape type =  2; rshape = 1.61 bohr;
  Atomic number:  5;  ionic charge:  3.000000
    Partial Wave 1: l = 0
    Partial Wave 2: l = 0
    Partial Wave 3: l = 1
    Partial Wave 4: l = 1
  Core charge supplied for Nonlinear Core Corrections
File: N.PBE-paw.abinit; rc = 1.20 bohr; shape type =  2; rshape = 1.01 bohr;
  Atomic number:  7;  ionic charge:  5.000000
    Partial Wave 1: l = 0
    Partial Wave 2: l = 0
    Partial Wave 3: l = 1
    Partial Wave 4: l = 1
  Core charge supplied for Nonlinear Core Corrections
File: C.PBE-paw.abinit; rc = 1.51 bohr; shape type =  2; rshape = 1.30 bohr;
  Atomic number:  6;  ionic charge:  4.000000
    Partial Wave 1: l = 0
    Partial Wave 2: l = 0
    Partial Wave 3: l = 1
    Partial Wave 4: l = 1
  Core charge supplied for Nonlinear Core Corrections
<<<<<<<<<<<<<<<<<<<<<<<<<<<<<<<<<<<<<<< >>>>>>>>>>>>>>>>>>>>>>>>>>>>>>>>>>>>>>>

-------------------------- Atom counting information ---------------------------
Symbol    Natoms    Nngwfs    Nprojs
  B         36       144       288
  N         35       140       280
  C          1         4         8
.......   ......    ......    ......
Totals:     72       288       576
--------------------------------------------------------------------------------

=============================== PSINC grid sizes ===============================
                      Simulation cell:   63 x  63 x  63
                              FFT-box:   63 x  63 x  63
                                  PPD:    7 x   7 x   1
================================================================================

Atom SCF Calculation for B  : Z (AE atom) =   5 : Z (PS atom) =   3
Config String: 2s2.0 2p1.0
Orbitals (num,occ):  2     2.00 1.00
Orbitals   (num,l):  2        0    1
Atom SCF converged after  23 iterations to a total energy of     -2.61457988

Atom SCF Calculation for C  : Z (AE atom) =   6 : Z (PS atom) =   4
Config String: 2s2.0 2p2.0
Orbitals (num,occ):  2     2.00 2.00
Orbitals   (num,l):  2        0    1
Atom SCF converged after  22 iterations to a total energy of     -5.40758077

Atom SCF Calculation for N  : Z (AE atom) =   7 : Z (PS atom) =   5
Config String: 2s2.0 2p3.0
Orbitals (num,occ):  2     2.00 3.00
Orbitals   (num,l):  2        0    1
Atom SCF converged after  23 iterations to a total energy of     -9.72185112

================================================================================
<<<<<<<<<<<<<<<<<<<< Starting ONETEP Geometry Optimisation >>>>>>>>>>>>>>>>>>>>>
================================================================================

 Geometry Optimisation: output file is "hBN_66_C_N_nspT.geom"
 
Calculating Ewald energy ...             1143.931976 Hartree

============================= Charge Augmentation ==============================
                           Aug box size:   21 x  21 x  21
================================================================================

================================= Core Density =================================
               Core den box size:   33 x  33 x  25
================================================================================
Density kernel initialisation

################################################################################
###################### NGWF self-consistent optimisation #######################
################################################################################
|ITER|    RMS GRADIENT   |     TOTAL ENERGY    |   step   |     Epredicted      
   0     0.00049498005343   -459.91543612497048   1.476066   -462.48514012928058        
   1     0.00017545276130   -462.50974581477789   1.621629   -462.86774491613784        
   2     0.00007616822678   -462.87342690050599   1.621200   -462.94137217099285        
   3     0.00003948230711   -462.94243593309812   1.680623   -462.96133205505930        
   4     0.00002427443873   -462.96148527670977   1.190604   -462.96647030320980        
   5     0.00001494841409   -462.96647260117544   2.141291   -462.96987365302454        
   6     0.00001065848964   -462.96986341683356   1.925590   -462.97141065733007        
   7     0.00000664375231   -462.97137345471282   1.720461   -462.97189950248321        
   8     0.00000434430200   -462.97187597036771   1.557180   -462.97208479448312        
   9     0.00000339854880   -462.97208086610635   2.086728   -462.97224852621963        
  10     0.00000206387495   -462.97223212344750   1.093932   -462.97226220359738        

================================================================================
           ---------------- ENERGY COMPONENTS (Eh) ----------------
           | Kinetic                    :      281.08260059569415 |
           | Core Hartree               :    -3329.49003913960269 |
           | CoreHart (non-coul chg cor):        0.00000000000000
           | Hartree                    :     1530.25220314692524 |
           | Exchange-correlation       :     -136.97756933400672 |
           | Ewald                      :     1143.93197584407426 |
           | Dij0                       :       55.85833134908765 |
           | Dijhartree                 :        0.30277034441389 |
           | Exc [AE core]              :     -348.47134669029083 |
           | Exc DC [AE core]           :     -123.56465854381068 |
           | Exc [PS core]              :      -91.02520841613145 |
           | Exc DC [PS core]           :     -108.07381602203525 |
           | Exc [Core]                 :     -249.51360671547292 |
           | Total [Sphere]             :       48.22857013481502 |
           | Total                      :     -462.97225875210057 |
           --------------------------------------------------------
           Integrated compensation chrg.:        7.02353070397981
           Integrated density           :      286.99999999999955
           Integrated spin density      :        1.00000000000022
           Integrated |spin density|    :        1.04411360976235
================================================================================

  11     0.00000033758746   -462.97225875209512  <-- CG                                 

================================= Core Density =================================
               Core den box size:   33 x  33 x  25
================================================================================
 
********************* Unconstrained **********************
********************** Ewald forces **********************
*                                                        *
* Element  Atom         Cartesian components (Eh/a)      *
* ------------------------------------------------------ *
*                       x            y            z      *
*                                                        *
*    B       1      0.00675326   0.00817781   0.00000000 *
*    N       2      0.02143980   0.03713631  -0.00000000 *
*    B       3      0.01455030   0.00839943   0.00000000 *
*    N       4      0.05536381   0.03196099  -0.00000000 *
*    B       5      0.01045863   0.00175978  -0.00000000 *
*    N       6      0.04287869   0.00000053  -0.00000000 *
*    B       7     -0.00000243  -0.00221826  -0.00000000 *
*    N       8      0.01373439  -0.00650791  -0.00000000 *
*    B       9     -0.00515525  -0.00297598  -0.00000000 *
*    N      10     -0.00000120   0.00000017  -0.00000000 *
*    B      11     -0.00192130   0.00110892   0.00000000 *
*    N      12      0.00123119   0.01515033   0.00000000 *
*    B      13      0.00524196   0.02250571   0.00000000 *
*    N      14      0.00000001   0.06393097  -0.00000000 *
*    B      15      0.03389742   0.03904864  -0.00000000 *
*    N      16      0.10818789   0.18738334   0.00000000 *
*    B      17      0.05076645   0.00983358  -0.00000000 *
*    N      18      0.21637560   0.00000041  -0.00000000 *
*    B      19      0.02211197  -0.00671475   0.00000000 *
*    N      20      0.05536352  -0.03196424  -0.00000000 *
*    B      21      0.00515373  -0.00297709   0.00000000 *
*    N      22      0.01250355  -0.00864080   0.00000000 *
*    B      23     -0.00000043   0.00595065  -0.00000000 *
*    N      24     -0.00123187   0.01515096  -0.00000000 *
*    B      25     -0.00524266   0.02250601   0.00000000 *
*    N      26     -0.02143919   0.03713709  -0.00000000 *
*    B      27      0.00000005   0.09598337   0.00000000 *
*    N      28     -0.10818761   0.18738341  -0.00000000 *
*    B      29      0.34447133   0.19888305   0.00000000 *
*    C      30      0.00000011   0.00000032  -0.00000000 *
*    B      31      0.08312475  -0.04799378  -0.00000000 *
*    N      32      0.10818788  -0.18738674  -0.00000000 *
*    B      33      0.01686978  -0.01579428  -0.00000000 *
*    N      34      0.02143959  -0.03713337   0.00000000 *
*    B      35      0.00192035   0.00110811   0.00000000 *
*    N      36      0.00000045   0.00000192   0.00000000 *
*    B      37     -0.00675213   0.00817893   0.00000000 *
*    N      38     -0.01250210   0.00864472   0.00000000 *
*    B      39     -0.03389710   0.03904873  -0.00000000 *
*    N      40     -0.05536297   0.03196093  -0.00000000 *
*    B      41     -0.34447114   0.19888306  -0.00000000 *
*    N      42     -0.21637519   0.00000041  -0.00000000 *
*    B      43      0.00000009  -0.39776295   0.00000000 *
*    N      44     -0.10818756  -0.18738674  -0.00000000 *
*    B      45      0.01686922  -0.04888168  -0.00000000 *
*    N      46      0.00000011  -0.06392746   0.00000000 *
*    B      47      0.00370730  -0.00993751   0.00000000 *
*    N      48      0.00123252  -0.01514658   0.00000000 *
*    B      49     -0.00220775  -0.00127387  -0.00000000 *
*    N      50     -0.00000366   0.00000184  -0.00000000 *
*    B      51     -0.01454935   0.00839985  -0.00000000 *
*    N      52     -0.01373249   0.00650288   0.00000000 *
*    B      53     -0.05076605   0.00983354  -0.00000000 *
*    N      54     -0.04287737   0.00000043   0.00000000 *
*    B      55     -0.08312451  -0.04799377  -0.00000000 *
*    N      56     -0.05536294  -0.03196412   0.00000000 *
*    B      57     -0.01686902  -0.04888170  -0.00000000 *
*    N      58     -0.02143897  -0.03713338   0.00000000 *
*    B      59     -0.00000002  -0.01680151  -0.00000000 *
*    N      60     -0.00123265  -0.01514745   0.00000000 *
*    B      61      0.00220952  -0.00127607  -0.00000000 *
*    N      62      0.01250275   0.00864441   0.00000000 *
*    B      63     -0.00000296   0.00255262   0.00000000 *
*    N      64      0.01373312   0.00650497   0.00000000 *
*    B      65     -0.01045690   0.00176187  -0.00000000 *
*    N      66     -0.00000428  -0.00000103   0.00000000 *
*    B      67     -0.02211146  -0.00671483   0.00000000 *
*    N      68     -0.01373431  -0.00650935   0.00000000 *
*    B      69     -0.01686928  -0.01579415   0.00000000 *
*    N      70     -0.01250227  -0.00864173  -0.00000000 *
*    B      71     -0.00370678  -0.00993783  -0.00000000 *
*    N      72      0.00000205  -0.00000010   0.00000000 *
*                                                        *
**********************************************************
TOTAL:              0.00000000  -0.00000000  -0.00000000
 
********************* Unconstrained **********************
***************** Local potential forces *****************
*                                                        *
* Element  Atom         Cartesian components (Eh/a)      *
* ------------------------------------------------------ *
*                       x            y            z      *
*                                                        *
*    B       1     -0.00504365  -0.00755424  -0.00000015 *
*    N       2     -0.02084847  -0.03343946   0.00000026 *
*    B       3     -0.01436121  -0.00829270  -0.00000015 *
*    N       4     -0.05105167  -0.02947971   0.00000020 *
*    B       5     -0.00906138  -0.00059417  -0.00000015 *
*    N       6     -0.03937705  -0.00135196  -0.00000014 *
*    B       7      0.00000529   0.00157797  -0.00000015 *
*    N       8     -0.01290170   0.00569768   0.00000025 *
*    B       9      0.00439475   0.00253447  -0.00000015 *
*    N      10      0.00001127  -0.00000409   0.00000024 *
*    B      11      0.00137069  -0.00079049  -0.00000015 *
*    N      12     -0.00150921  -0.01403633   0.00000026 *
*    B      13     -0.00702523  -0.02173086  -0.00000015 *
*    N      14      0.00001504  -0.05729498   0.00000017 *
*    B      15     -0.02598744  -0.03666701  -0.00000011 *
*    N      16     -0.10148775  -0.15059116  -0.00000001 *
*    B      17     -0.04474687  -0.00417586  -0.00000007 *
*    N      18     -0.18114419  -0.01260745  -0.00000169 *
*    B      19     -0.02233150   0.00477909  -0.00000014 *
*    N      20     -0.04960143   0.02864715   0.00000020 *
*    B      21     -0.00438824   0.00253529  -0.00000015 *
*    N      22     -0.01137776   0.00833140   0.00000024 *
*    B      23      0.00000202  -0.00507025  -0.00000015 *
*    N      24      0.00153521  -0.01403392   0.00000024 *
*    B      25      0.00703134  -0.02173073  -0.00000015 *
*    N      26      0.02086894  -0.03344273   0.00000026 *
*    B      27      0.00000137  -0.08881162  -0.00000021 *
*    N      28      0.10150939  -0.15057909   0.00000000 *
*    B      29     -0.29252046  -0.16890151  -0.00000051 *
*    C      30      0.00000983   0.00000106  -0.00000022 *
*    B      31     -0.07691199   0.04440747  -0.00000013 *
*    N      32     -0.07964985   0.16318890   0.00000042 *
*    B      33     -0.01530183   0.01695236  -0.00000015 *
*    N      34     -0.01851650   0.03477779   0.00000026 *
*    B      35     -0.00136369  -0.00078939  -0.00000014 *
*    N      36      0.00030255   0.00016468   0.00000025 *
*    B      37      0.00504769  -0.00755598  -0.00000016 *
*    N      38      0.01166576  -0.00834958   0.00000025 *
*    B      39      0.02598988  -0.03666744  -0.00000017 *
*    N      40      0.05107649  -0.02947680   0.00000018 *
*    B      41      0.29253285  -0.16889389   0.00000008 *
*    N      42      0.18116900  -0.01261248   0.00000202 *
*    B      43      0.00001205   0.33778072  -0.00000008 *
*    N      44      0.07967966   0.16320290   0.00000052 *
*    B      45     -0.01875797   0.04084077  -0.00000015 *
*    N      46      0.00001520   0.05895859   0.00000017 *
*    B      47     -0.00401814   0.00814668  -0.00000015 *
*    N      48     -0.00138628   0.01426190   0.00000025 *
*    B      49      0.00146425   0.00084192  -0.00000015 *
*    N      50      0.00001314  -0.00000651   0.00000024 *
*    B      51      0.01436637  -0.00829334  -0.00000015 *
*    N      52      0.01306056  -0.00591614   0.00000025 *
*    B      53      0.04475168  -0.00417473  -0.00000022 *
*    N      54      0.03939529  -0.00135152   0.00000069 *
*    B      55      0.07691453   0.04440726  -0.00000018 *
*    N      56      0.04962339   0.02864223   0.00000016 *
*    B      57      0.01876274   0.04084140  -0.00000019 *
*    N      58      0.01853436   0.03477537   0.00000026 *
*    B      59      0.00000282   0.01658566  -0.00000014 *
*    N      60      0.00141165   0.01425975   0.00000026 *
*    B      61     -0.00146078   0.00084370  -0.00000015 *
*    N      62     -0.01163627  -0.00834920   0.00000025 *
*    B      63      0.00000438  -0.00169136  -0.00000015 *
*    N      64     -0.01303562  -0.00591487   0.00000024 *
*    B      65      0.00906494  -0.00059675  -0.00000016 *
*    N      66      0.00001928  -0.00033783   0.00000027 *
*    B      67      0.02233344   0.00477971  -0.00000016 *
*    N      68      0.01292633   0.00570191   0.00000025 *
*    B      69      0.01530684   0.01695105  -0.00000015 *
*    N      70      0.01140595   0.00833198   0.00000026 *
*    B      71      0.00402069   0.00814666  -0.00000015 *
*    N      72     -0.00027969   0.00016964   0.00000024 *
*                                                        *
**********************************************************
TOTAL:              0.00054510  -0.00009302   0.00000239
 
********************* Unconstrained **********************
************** Compensation density forces ***************
*                                                        *
* Element  Atom         Cartesian components (Eh/a)      *
* ------------------------------------------------------ *
*                       x            y            z      *
*                                                        *
*    B       1      0.00003170   0.00001517   0.00000045 *
*    N       2     -0.00000326  -0.00006765   0.00000154 *
*    B       3      0.00001982   0.00001201   0.00000045 *
*    N       4     -0.00009735  -0.00005572   0.00000157 *
*    B       5      0.00002850   0.00002067   0.00000045 *
*    N       6     -0.00006115   0.00003190   0.00000156 *
*    B       7     -0.00000061  -0.00000168   0.00000045 *
*    N       8     -0.00002114   0.00001623   0.00000156 *
*    B       9     -0.00001331  -0.00000715   0.00000045 *
*    N      10     -0.00000005   0.00000048   0.00000157 *
*    B      11     -0.00000224   0.00000114   0.00000045 *
*    N      12      0.00000313  -0.00002570   0.00000155 *
*    B      13     -0.00000823   0.00002242   0.00000045 *
*    N      14     -0.00000028  -0.00016193   0.00000158 *
*    B      15      0.00023189   0.00010725   0.00000045 *
*    N      16     -0.00004963  -0.00076300   0.00000152 *
*    B      17      0.00020835   0.00014809   0.00000045 *
*    N      18     -0.00068996   0.00033987   0.00000161 *
*    B      19      0.00001472  -0.00001744   0.00000045 *
*    N      20     -0.00014089   0.00008109   0.00000158 *
*    B      21      0.00001251  -0.00000689   0.00000045 *
*    N      22     -0.00002456   0.00001049   0.00000156 *
*    B      23     -0.00000029   0.00001518   0.00000045 *
*    N      24     -0.00000367  -0.00002601   0.00000156 *
*    B      25      0.00000742   0.00002219   0.00000045 *
*    N      26      0.00000346  -0.00006806   0.00000154 *
*    B      27     -0.00000066   0.00019157   0.00000046 *
*    N      28      0.00005161  -0.00076592   0.00000152 *
*    B      29      0.00425907   0.00245880   0.00000053 *
*    C      30     -0.00000099   0.00000068  -0.00000059 *
*    B      31      0.00016507  -0.00009547   0.00000046 *
*    N      32     -0.00063918   0.00042753   0.00000152 *
*    B      33      0.00002245  -0.00000383   0.00000045 *
*    N      34     -0.00005752   0.00003753   0.00000154 *
*    B      35      0.00000101   0.00000115   0.00000045 *
*    N      36     -0.00000520  -0.00000243   0.00000155 *
*    B      37     -0.00003251   0.00001537   0.00000045 *
*    N      38      0.00001663  -0.00000801   0.00000155 *
*    B      39     -0.00023249   0.00010724   0.00000045 *
*    N      40      0.00009674  -0.00005611   0.00000157 *
*    B      41     -0.00426137   0.00246020   0.00000048 *
*    N      42      0.00068934   0.00033853   0.00000143 *
*    B      43      0.00000044  -0.00491741   0.00000047 *
*    N      44      0.00063610   0.00042427   0.00000151 *
*    B      45     -0.00002387  -0.00025402   0.00000045 *
*    N      46     -0.00000040   0.00011234   0.00000157 *
*    B      47     -0.00000350  -0.00003492   0.00000045 *
*    N      48      0.00000094   0.00001889   0.00000155 *
*    B      49     -0.00001466  -0.00000792   0.00000045 *
*    N      50     -0.00000003   0.00000050   0.00000157 *
*    B      51     -0.00002108   0.00001202   0.00000045 *
*    N      52      0.00001545  -0.00001021   0.00000155 *
*    B      53     -0.00020915   0.00014789   0.00000045 *
*    N      54      0.00006075   0.00003164   0.00000152 *
*    B      55     -0.00016638  -0.00009544   0.00000046 *
*    N      56      0.00014030   0.00008137   0.00000158 *
*    B      57      0.00002305  -0.00025428   0.00000045 *
*    N      58      0.00005736   0.00003748   0.00000154 *
*    B      59     -0.00000062  -0.00002341   0.00000045 *
*    N      60     -0.00000154   0.00001914   0.00000155 *
*    B      61      0.00001383  -0.00000766   0.00000045 *
*    N      62     -0.00001729  -0.00000796   0.00000155 *
*    B      63     -0.00000028   0.00001668   0.00000045 *
*    N      64     -0.00001601  -0.00001050   0.00000155 *
*    B      65     -0.00002935   0.00002094   0.00000045 *
*    N      66     -0.00000022   0.00000597   0.00000155 *
*    B      67     -0.00001530  -0.00001744   0.00000045 *
*    N      68      0.00002057   0.00001598   0.00000156 *
*    B      69     -0.00002326  -0.00000357   0.00000045 *
*    N      70      0.00002390   0.00001042   0.00000156 *
*    B      71      0.00000293  -0.00003498   0.00000045 *
*    N      72      0.00000457  -0.00000279   0.00000155 *
*                                                        *
**********************************************************
TOTAL:             -0.00002584   0.00002279   0.00007010
 
********************* Unconstrained **********************
*************** Non-local potential forces ***************
*                                                        *
* Element  Atom         Cartesian components (Eh/a)      *
* ------------------------------------------------------ *
*                       x            y            z      *
*                                                        *
*    B       1     -0.00079003  -0.00041450  -0.00000026 *
*    N       2     -0.00165542  -0.00557579  -0.00000133 *
*    B       3     -0.00044071  -0.00028376  -0.00000027 *
*    N       4     -0.00470441  -0.00269481  -0.00000127 *
*    B       5     -0.00072928  -0.00051944  -0.00000027 *
*    N       6     -0.00567529   0.00138818  -0.00000139 *
*    B       7      0.00002731   0.00003714  -0.00000026 *
*    N       8     -0.00063543   0.00114181  -0.00000131 *
*    B       9      0.00039906   0.00020203  -0.00000026 *
*    N      10     -0.00002809   0.00000630  -0.00000129 *
*    B      11      0.00007098  -0.00003869  -0.00000026 *
*    N      12      0.00065185  -0.00108803  -0.00000131 *
*    B      13      0.00031910  -0.00066261  -0.00000027 *
*    N      14     -0.00002729  -0.00562303  -0.00000121 *
*    B      15     -0.00557352  -0.00262107  -0.00000026 *
*    N      16     -0.01667607  -0.04366564  -0.00000093 *
*    B      17     -0.00503229  -0.00355961  -0.00000029 *
*    N      18     -0.04616081   0.00742277  -0.00000086 *
*    B      19     -0.00038875   0.00056349  -0.00000027 *
*    N      20     -0.00490195   0.00282148  -0.00000128 *
*    B      21     -0.00035167   0.00019774  -0.00000026 *
*    N      22     -0.00131481  -0.00003443  -0.00000130 *
*    B      23      0.00002085  -0.00044754  -0.00000026 *
*    N      24     -0.00070700  -0.00108741  -0.00000130 *
*    B      25     -0.00027145  -0.00065845  -0.00000025 *
*    N      26      0.00159871  -0.00557576  -0.00000131 *
*    B      27      0.00002844  -0.00575220  -0.00000025 *
*    N      28      0.01661971  -0.04366136  -0.00000082 *
*    B      29     -0.09628434  -0.05560931  -0.00000114 *
*    C      30     -0.00000616  -0.00000785  -0.00000147 *
*    B      31     -0.00494111   0.00285520  -0.00000025 *
*    N      32     -0.02951867   0.03625216  -0.00000154 *
*    B      33     -0.00068115   0.00005105  -0.00000025 *
*    N      34     -0.00404947   0.00420621  -0.00000132 *
*    B      35     -0.00001653  -0.00003897  -0.00000026 *
*    N      36     -0.00054481  -0.00029235  -0.00000130 *
*    B      37      0.00083774  -0.00041849  -0.00000026 *
*    N      38      0.00115987  -0.00012280  -0.00000130 *
*    B      39      0.00561547  -0.00262192  -0.00000026 *
*    N      40      0.00464850  -0.00269426  -0.00000118 *
*    B      41      0.09633230  -0.05562279  -0.00000025 *
*    N      42      0.04611122   0.00742064  -0.00000131 *
*    B      43      0.00001324   0.11118820   0.00000023 *
*    N      44      0.02946793   0.03626346  -0.00000155 *
*    B      45      0.00056239   0.00612976  -0.00000028 *
*    N      46     -0.00002870   0.00540762  -0.00000121 *
*    B      47      0.00008150   0.00089031  -0.00000026 *
*    N      48      0.00045349   0.00110056  -0.00000130 *
*    B      49      0.00043503   0.00022258  -0.00000026 *
*    N      50     -0.00002861   0.00000691  -0.00000129 *
*    B      51      0.00049585  -0.00028390  -0.00000025 *
*    N      52      0.00067946  -0.00095787  -0.00000129 *
*    B      53      0.00508005  -0.00355540  -0.00000024 *
*    N      54      0.00561900   0.00138765  -0.00000122 *
*    B      55      0.00499787   0.00285520  -0.00000023 *
*    N      56      0.00484915   0.00282147  -0.00000116 *
*    B      57     -0.00051490   0.00613335  -0.00000025 *
*    N      58      0.00399305   0.00420675  -0.00000131 *
*    B      59      0.00002739   0.00052721  -0.00000026 *
*    N      60     -0.00050775   0.00109932  -0.00000132 *
*    B      61     -0.00038703   0.00021822  -0.00000025 *
*    N      62     -0.00121468  -0.00012267  -0.00000130 *
*    B      63      0.00002057  -0.00048797  -0.00000026 *
*    N      64     -0.00073411  -0.00095734  -0.00000130 *
*    B      65      0.00077742  -0.00052339  -0.00000026 *
*    N      66     -0.00002793   0.00060382  -0.00000134 *
*    B      67      0.00043052   0.00056358  -0.00000024 *
*    N      68      0.00058169   0.00114269  -0.00000129 *
*    B      69      0.00072887   0.00004683  -0.00000026 *
*    N      70      0.00126033  -0.00003412  -0.00000131 *
*    B      71     -0.00003976   0.00089056  -0.00000026 *
*    N      72      0.00049063  -0.00029147  -0.00000130 *
*                                                        *
**********************************************************
TOTAL:             -0.00010343  -0.00033471  -0.00005557
 
********************* Unconstrained **********************
************ NGWF non self-consistent forces *************
*                                                        *
* Element  Atom         Cartesian components (Eh/a)      *
* ------------------------------------------------------ *
*                       x            y            z      *
*                                                        *
*    B       1      0.00000004   0.00000208   0.00000003 *
*    N       2     -0.00001427   0.00001979   0.00000009 *
*    B       3     -0.00000089   0.00000141   0.00000003 *
*    N       4     -0.00000186   0.00001568   0.00000010 *
*    B       5      0.00000180  -0.00000008   0.00000002 *
*    N       6     -0.00000110  -0.00000145   0.00000004 *
*    B       7     -0.00000590   0.00000064   0.00000003 *
*    N       8     -0.00001170   0.00000803   0.00000010 *
*    B       9      0.00000010   0.00000075   0.00000003 *
*    N      10     -0.00001130   0.00000775   0.00000010 *
*    B      11     -0.00000418  -0.00000252   0.00000003 *
*    N      12     -0.00001374   0.00001149   0.00000009 *
*    B      13      0.00000158   0.00000649   0.00000003 *
*    N      14     -0.00001224   0.00003788   0.00000011 *
*    B      15      0.00001311  -0.00002171   0.00000004 *
*    N      16      0.00000216   0.00000701  -0.00000003 *
*    B      17     -0.00001342   0.00002328   0.00000001 *
*    N      18     -0.00000848   0.00001866   0.00000014 *
*    B      19      0.00000649  -0.00000020   0.00000003 *
*    N      20      0.00001320  -0.00000913   0.00000012 *
*    B      21     -0.00000235   0.00000614   0.00000003 *
*    N      22     -0.00001009   0.00000475   0.00000010 *
*    B      23      0.00000444  -0.00000332   0.00000004 *
*    N      24     -0.00001336   0.00000845   0.00000010 *
*    B      25     -0.00000380   0.00000078   0.00000004 *
*    N      26     -0.00000799   0.00002124   0.00000008 *
*    B      27     -0.00000584   0.00000866   0.00000002 *
*    N      28     -0.00003402   0.00000790  -0.00000002 *
*    B      29     -0.00004565  -0.00002631   0.00000010 *
*    C      30     -0.00001240   0.00000831  -0.00000016 *
*    B      31      0.00000128  -0.00000616   0.00000004 *
*    N      32     -0.00002358  -0.00000461   0.00000007 *
*    B      33     -0.00000168  -0.00000253   0.00000004 *
*    N      34      0.00000216   0.00000297   0.00000008 *
*    B      35     -0.00000751  -0.00000236   0.00000003 *
*    N      36     -0.00000766   0.00001287   0.00000009 *
*    B      37     -0.00000251   0.00000786   0.00000003 *
*    N      38     -0.00000991   0.00000589   0.00000010 *
*    B      39     -0.00000379  -0.00002167   0.00000003 *
*    N      40     -0.00002451   0.00001461   0.00000010 *
*    B      41      0.00004242  -0.00002019  -0.00000010 *
*    N      42     -0.00001771   0.00002763  -0.00000012 *
*    B      43      0.00000413   0.00004870  -0.00000011 *
*    N      44      0.00000012  -0.00001049   0.00000012 *
*    B      45     -0.00002331   0.00000694   0.00000003 *
*    N      46     -0.00001012  -0.00000869   0.00000011 *
*    B      47      0.00000613  -0.00000414   0.00000003 *
*    N      48     -0.00001216   0.00000854   0.00000009 *
*    B      49     -0.00000204  -0.00000045   0.00000003 *
*    N      50     -0.00001098   0.00000774   0.00000010 *
*    B      51     -0.00001103   0.00000189   0.00000003 *
*    N      52     -0.00001308   0.00000696   0.00000009 *
*    B      53      0.00001178   0.00001702   0.00000002 *
*    N      54     -0.00002015   0.00000005   0.00000010 *
*    B      55     -0.00001330  -0.00000601   0.00000002 *
*    N      56     -0.00004184  -0.00000680   0.00000011 *
*    B      57      0.00002068   0.00000234   0.00000003 *
*    N      58     -0.00002296   0.00000430   0.00000008 *
*    B      59     -0.00000564  -0.00000746   0.00000003 *
*    N      60     -0.00001574   0.00001112   0.00000009 *
*    B      61     -0.00000032   0.00000501   0.00000003 *
*    N      62     -0.00001482   0.00000638   0.00000009 *
*    B      63      0.00000443  -0.00000092   0.00000004 *
*    N      64     -0.00001432   0.00000387   0.00000009 *
*    B      65     -0.00000403   0.00000536   0.00000005 *
*    N      66     -0.00001208  -0.00000171   0.00000010 *
*    B      67      0.00000272  -0.00000023   0.00000004 *
*    N      68     -0.00001527   0.00000581   0.00000009 *
*    B      69     -0.00000058   0.00000295   0.00000003 *
*    N      70     -0.00001360   0.00000468   0.00000009 *
*    B      71      0.00000323  -0.00000381   0.00000003 *
*    N      72     -0.00001994   0.00001026   0.00000009 *
*                                                        *
**********************************************************
TOTAL:             -0.00048873   0.00028593   0.00000364
 
********************* Unconstrained **********************
********************** NLCC forces ***********************
*                                                        *
* Element  Atom         Cartesian components (Eh/a)      *
* ------------------------------------------------------ *
*                       x            y            z      *
*                                                        *
*    B       1      0.00000200   0.00000051  -0.00000004 *
*    N       2      0.00004262   0.00011008  -0.00011471 *
*    B       3      0.00000087   0.00000043  -0.00000004 *
*    N       4      0.00012040   0.00003679  -0.00011475 *
*    B       5      0.00000150   0.00000137  -0.00000004 *
*    N       6      0.00015548  -0.00006772  -0.00011800 *
*    B       7      0.00000009  -0.00000043  -0.00000004 *
*    N       8      0.00002529  -0.00005459  -0.00011477 *
*    B       9     -0.00000046  -0.00000034  -0.00000004 *
*    N      10      0.00000881  -0.00002821  -0.00011477 *
*    B      11     -0.00000027   0.00000018  -0.00000004 *
*    N      12     -0.00000624  -0.00000026  -0.00011477 *
*    B      13     -0.00000077   0.00000042  -0.00000004 *
*    N      14      0.00000848   0.00012072  -0.00011485 *
*    B      15      0.00001210   0.00000322  -0.00000004 *
*    N      16      0.00037316   0.00105684  -0.00011474 *
*    B      17      0.00000892   0.00000876  -0.00000004 *
*    N      18      0.00108699  -0.00026105  -0.00012258 *
*    B      19      0.00000004  -0.00000099  -0.00000004 *
*    N      20      0.00013792  -0.00010226  -0.00011479 *
*    B      21      0.00000065  -0.00000034  -0.00000004 *
*    N      22      0.00004000  -0.00002954  -0.00011478 *
*    B      23      0.00000010   0.00000062  -0.00000004 *
*    N      24      0.00002354   0.00000000  -0.00011475 *
*    B      25      0.00000096   0.00000041  -0.00000004 *
*    N      26     -0.00003484   0.00012145  -0.00011440 *
*    B      27      0.00000008   0.00000429  -0.00000003 *
*    N      28     -0.00033409   0.00101941  -0.00011510 *
*    B      29      0.00016962   0.00009778  -0.00000004 *
*    C      30      0.00001575  -0.00008410  -0.00032617 *
*    B      31      0.00000383  -0.00000219  -0.00000004 *
*    N      32      0.00075120  -0.00082969  -0.00011494 *
*    B      33      0.00000090   0.00000051  -0.00000004 *
*    N      34      0.00011361  -0.00013970  -0.00011463 *
*    B      35      0.00000044   0.00000018  -0.00000004 *
*    N      36      0.00002622  -0.00001874  -0.00011498 *
*    B      37     -0.00000181   0.00000050  -0.00000004 *
*    N      38     -0.00001966  -0.00002377  -0.00011482 *
*    B      39     -0.00001192   0.00000323  -0.00000004 *
*    N      40     -0.00010293   0.00003616  -0.00011470 *
*    B      41     -0.00016947   0.00009786  -0.00000007 *
*    N      42     -0.00104690  -0.00024656  -0.00010596 *
*    B      43      0.00000011  -0.00019578  -0.00000004 *
*    N      44     -0.00074912  -0.00088647  -0.00011401 *
*    B      45     -0.00000310  -0.00001206  -0.00000004 *
*    N      46      0.00000847  -0.00015707  -0.00011480 *
*    B      47     -0.00000040  -0.00000192  -0.00000004 *
*    N      48     -0.00000157  -0.00005475  -0.00011478 *
*    B      49     -0.00000049  -0.00000036  -0.00000004 *
*    N      50      0.00000884  -0.00002814  -0.00011476 *
*    B      51     -0.00000070   0.00000043  -0.00000004 *
*    N      52     -0.00000908  -0.00000566  -0.00011475 *
*    B      53     -0.00000873   0.00000875  -0.00000004 *
*    N      54     -0.00014268  -0.00006990  -0.00011169 *
*    B      55     -0.00000366  -0.00000218  -0.00000004 *
*    N      56     -0.00012068  -0.00010258  -0.00011469 *
*    B      57      0.00000329  -0.00001204  -0.00000004 *
*    N      58     -0.00009417  -0.00012663  -0.00011481 *
*    B      59      0.00000009  -0.00000092  -0.00000004 *
*    N      60      0.00001912  -0.00005427  -0.00011475 *
*    B      61      0.00000067  -0.00000035  -0.00000004 *
*    N      62      0.00003662  -0.00002416  -0.00011478 *
*    B      63      0.00000010   0.00000064  -0.00000004 *
*    N      64      0.00002631  -0.00000584  -0.00011476 *
*    B      65     -0.00000132   0.00000136  -0.00000004 *
*    N      66      0.00001089  -0.00004363  -0.00011486 *
*    B      67      0.00000015  -0.00000099  -0.00000004 *
*    N      68     -0.00000803  -0.00005493  -0.00011477 *
*    B      69     -0.00000071   0.00000052  -0.00000004 *
*    N      70     -0.00002274  -0.00002913  -0.00011479 *
*    B      71      0.00000059  -0.00000194  -0.00000004 *
*    N      72     -0.00000516  -0.00002015  -0.00011477 *
*                                                        *
**********************************************************
TOTAL:              0.00034508  -0.00104891  -0.00434313
 
********************* Unconstrained **********************
****** Correction to ensure the total force is zero ******
*                                                        *
* Element  Atom         Cartesian components (Eh/a)      *
* ------------------------------------------------------ *
*                       x            y            z      *
*                                                        *
*    B       1     -0.00000378   0.00001622   0.00006004 *
*    N       2     -0.00000378   0.00001622   0.00006004 *
*    B       3     -0.00000378   0.00001622   0.00006004 *
*    N       4     -0.00000378   0.00001622   0.00006004 *
*    B       5     -0.00000378   0.00001622   0.00006004 *
*    N       6     -0.00000378   0.00001622   0.00006004 *
*    B       7     -0.00000378   0.00001622   0.00006004 *
*    N       8     -0.00000378   0.00001622   0.00006004 *
*    B       9     -0.00000378   0.00001622   0.00006004 *
*    N      10     -0.00000378   0.00001622   0.00006004 *
*    B      11     -0.00000378   0.00001622   0.00006004 *
*    N      12     -0.00000378   0.00001622   0.00006004 *
*    B      13     -0.00000378   0.00001622   0.00006004 *
*    N      14     -0.00000378   0.00001622   0.00006004 *
*    B      15     -0.00000378   0.00001622   0.00006004 *
*    N      16     -0.00000378   0.00001622   0.00006004 *
*    B      17     -0.00000378   0.00001622   0.00006004 *
*    N      18     -0.00000378   0.00001622   0.00006004 *
*    B      19     -0.00000378   0.00001622   0.00006004 *
*    N      20     -0.00000378   0.00001622   0.00006004 *
*    B      21     -0.00000378   0.00001622   0.00006004 *
*    N      22     -0.00000378   0.00001622   0.00006004 *
*    B      23     -0.00000378   0.00001622   0.00006004 *
*    N      24     -0.00000378   0.00001622   0.00006004 *
*    B      25     -0.00000378   0.00001622   0.00006004 *
*    N      26     -0.00000378   0.00001622   0.00006004 *
*    B      27     -0.00000378   0.00001622   0.00006004 *
*    N      28     -0.00000378   0.00001622   0.00006004 *
*    B      29     -0.00000378   0.00001622   0.00006004 *
*    C      30     -0.00000378   0.00001622   0.00006004 *
*    B      31     -0.00000378   0.00001622   0.00006004 *
*    N      32     -0.00000378   0.00001622   0.00006004 *
*    B      33     -0.00000378   0.00001622   0.00006004 *
*    N      34     -0.00000378   0.00001622   0.00006004 *
*    B      35     -0.00000378   0.00001622   0.00006004 *
*    N      36     -0.00000378   0.00001622   0.00006004 *
*    B      37     -0.00000378   0.00001622   0.00006004 *
*    N      38     -0.00000378   0.00001622   0.00006004 *
*    B      39     -0.00000378   0.00001622   0.00006004 *
*    N      40     -0.00000378   0.00001622   0.00006004 *
*    B      41     -0.00000378   0.00001622   0.00006004 *
*    N      42     -0.00000378   0.00001622   0.00006004 *
*    B      43     -0.00000378   0.00001622   0.00006004 *
*    N      44     -0.00000378   0.00001622   0.00006004 *
*    B      45     -0.00000378   0.00001622   0.00006004 *
*    N      46     -0.00000378   0.00001622   0.00006004 *
*    B      47     -0.00000378   0.00001622   0.00006004 *
*    N      48     -0.00000378   0.00001622   0.00006004 *
*    B      49     -0.00000378   0.00001622   0.00006004 *
*    N      50     -0.00000378   0.00001622   0.00006004 *
*    B      51     -0.00000378   0.00001622   0.00006004 *
*    N      52     -0.00000378   0.00001622   0.00006004 *
*    B      53     -0.00000378   0.00001622   0.00006004 *
*    N      54     -0.00000378   0.00001622   0.00006004 *
*    B      55     -0.00000378   0.00001622   0.00006004 *
*    N      56     -0.00000378   0.00001622   0.00006004 *
*    B      57     -0.00000378   0.00001622   0.00006004 *
*    N      58     -0.00000378   0.00001622   0.00006004 *
*    B      59     -0.00000378   0.00001622   0.00006004 *
*    N      60     -0.00000378   0.00001622   0.00006004 *
*    B      61     -0.00000378   0.00001622   0.00006004 *
*    N      62     -0.00000378   0.00001622   0.00006004 *
*    B      63     -0.00000378   0.00001622   0.00006004 *
*    N      64     -0.00000378   0.00001622   0.00006004 *
*    B      65     -0.00000378   0.00001622   0.00006004 *
*    N      66     -0.00000378   0.00001622   0.00006004 *
*    B      67     -0.00000378   0.00001622   0.00006004 *
*    N      68     -0.00000378   0.00001622   0.00006004 *
*    B      69     -0.00000378   0.00001622   0.00006004 *
*    N      70     -0.00000378   0.00001622   0.00006004 *
*    B      71     -0.00000378   0.00001622   0.00006004 *
*    N      72     -0.00000378   0.00001622   0.00006004 *
*                                                        *
**********************************************************
TOTAL:             -0.00027218   0.00116792   0.00432256

********************* Unconstrained **********************
************************* Forces *************************
*                                                        *
* Element  Atom         Cartesian components (Eh/a)      *
* ------------------------------------------------------ *
*                       x            y            z      *
*                                                        *
*    B       1      0.00094954   0.00024305   0.00006008 *
*    N       2     -0.00104278  -0.00180050  -0.00005410 *
*    B       3     -0.00023559  -0.00014697   0.00006007 *
*    N       4     -0.00037486  -0.00020056  -0.00005411 *
*    B       5      0.00069599   0.00068435   0.00006005 *
*    N       6     -0.00208420   0.00001571  -0.00005789 *
*    B       7      0.00001997  -0.00058841   0.00006007 *
*    N       8      0.00018592   0.00031747  -0.00005415 *
*    B       9     -0.00037889  -0.00023000   0.00006007 *
*    N      10     -0.00002433  -0.00000139  -0.00005412 *
*    B      11     -0.00049010   0.00029475   0.00006007 *
*    N      12      0.00035321   0.00002773  -0.00005415 *
*    B      13     -0.00147538   0.00015780   0.00006007 *
*    N      14     -0.00002006   0.00102586  -0.00005418 *
*    B      15      0.00258978  -0.00013446   0.00006012 *
*    N      16     -0.00965402  -0.00655638  -0.00005415 *
*    B      17      0.00118737   0.00229446   0.00006009 *
*    N      18     -0.01054464  -0.00507056  -0.00006334 *
*    B      19     -0.00059080  -0.00137459   0.00006008 *
*    N      20      0.00086659  -0.00050968  -0.00005414 *
*    B      21      0.00042086  -0.00022893   0.00006008 *
*    N      22     -0.00018744  -0.00034192  -0.00005415 *
*    B      23      0.00002290   0.00046157   0.00006008 *
*    N      24     -0.00040094   0.00002829  -0.00005412 *
*    B      25      0.00151804   0.00015644   0.00006008 *
*    N      26      0.00098531  -0.00179054  -0.00005380 *
*    B      27      0.00001967   0.00164030   0.00006003 *
*    N      28      0.00962121  -0.00657941  -0.00005438 *
*    B      29     -0.03995421  -0.02308127   0.00005898 *
*    C      30      0.00000237  -0.00006537  -0.00026858 *
*    B      31      0.00143804  -0.00081870   0.00006013 *
*    N      32     -0.00089598   0.01166377  -0.00005444 *
*    B      33      0.00090470   0.00121950   0.00006008 *
*    N      34     -0.00107191   0.00176765  -0.00005404 *
*    B      35      0.00053029   0.00029493   0.00006008 *
*    N      36     -0.00023223  -0.00011783  -0.00005435 *
*    B      37     -0.00090732   0.00024442   0.00006006 *
*    N      38      0.00030682   0.00016267  -0.00005419 *
*    B      39     -0.00254374  -0.00013560   0.00006005 *
*    N      40      0.00032753  -0.00019925  -0.00005400 *
*    B      41      0.04000181  -0.02307953   0.00006018 *
*    N      42      0.01052597  -0.00505561  -0.00004391 *
*    B      43      0.00002628   0.04615771   0.00006050 *
*    N      44      0.00084336   0.01162316  -0.00005337 *
*    B      45     -0.00138043  -0.00215407   0.00006006 *
*    N      46     -0.00001921   0.00040155  -0.00005413 *
*    B      47     -0.00023089  -0.00092528   0.00006007 *
*    N      48      0.00028317   0.00020478  -0.00005415 *
*    B      49     -0.00032943  -0.00020188   0.00006007 *
*    N      50     -0.00002508  -0.00000145  -0.00005411 *
*    B      51      0.00027628  -0.00014684   0.00006008 *
*    N      52     -0.00000296  -0.00036382  -0.00005412 *
*    B      53     -0.00114420   0.00229329   0.00006000 *
*    N      54      0.00203105   0.00001455  -0.00005058 *
*    B      55     -0.00139922  -0.00081872   0.00006006 *
*    N      56     -0.00091640  -0.00051222  -0.00005398 *
*    B      57      0.00142206  -0.00215471   0.00006003 *
*    N      58      0.00102488   0.00178010  -0.00005421 *
*    B      59      0.00002023   0.00029579   0.00006008 *
*    N      60     -0.00033069   0.00020384  -0.00005413 *
*    B      61      0.00037210  -0.00020092   0.00006008 *
*    N      62     -0.00034747   0.00016302  -0.00005415 *
*    B      63      0.00002246   0.00040592   0.00006008 *
*    N      64     -0.00004442  -0.00036348  -0.00005413 *
*    B      65     -0.00065302   0.00068562   0.00006007 *
*    N      66     -0.00001812   0.00024180  -0.00005424 *
*    B      67      0.00063630  -0.00137398   0.00006008 *
*    N      68     -0.00023281   0.00031833  -0.00005414 *
*    B      69     -0.00086190   0.00121986   0.00006008 *
*    N      70      0.00014780  -0.00034169  -0.00005416 *
*    B      71      0.00027712  -0.00092512   0.00006007 *
*    N      72      0.00018869  -0.00011839  -0.00005415 *
*                                                        *
**********************************************************
* TOTAL:            0.00000000  -0.00000000   0.00000000 *
**********************************************************
 
 
***********************************************************
********** Summary of Forces (values in Eh/a) *************
*                                                         *
* ---------------------- Minimum ------------------------ *
* Atom:        10, |F|min =    0.00005936                 *
* Components:     Fx|min       Fy|min       Fz|min        *
*              -0.00002433  -0.00000139  -0.00005412      *
*                                                         *
* ---------------------- Maximum ------------------------ *
* Atom:        41, |F|max =    0.04618239                 *
* Components:     Fx|max       Fy|max       Fz|max        *
*               0.04000181  -0.02307953   0.00006018      *
*                                                         *
* ---------------- Root Mean Square Force --------------- *
*                  |F|rms =    0.01007676                 *
* Components:     Fx|rms       Fy|rms       Fz|rms        *
*               0.00712574   0.00712466   0.00006505      *
***********************************************************
 
 Geometry Optimisation: read_denskern parameter over-ridden to T
 Geometry Optimisation: read_tightbox_ngwfs parameter over-ridden to TRUE

BFGS: continuation file name is "hBN_66_C_N_nspT.continuation"
 BFGS: finished iteration   0  with enthalpy= -4.629722587521E+002 Eh
  
 +-----------+-----------------+-----------------+------------+-----+ <-- BFGS
 | Parameter |      value      |    tolerance    |    units   | OK? | <-- BFGS
 +-----------+-----------------+-----------------+------------+-----+ <-- BFGS
 |  dE/ion   |   0.000000E+000 |   1.000000E-006 |         Eh | No  | <-- BFGS
 |  |F|max   |   4.618239E-002 |   1.944690E-004 |    Eh/Bohr | No  | <-- BFGS
 |  |dR|max  |   0.000000E+000 |   5.000000E-003 |       Bohr | No  | <-- BFGS
 +-----------+-----------------+-----------------+------------+-----+ <-- BFGS
  

================================================================================
 Starting BFGS iteration    1 ...
================================================================================

 Writing continuation file "hBN_66_C_N_nspT.continuation" ...done
 Backing up NGWFs to file "hBN_66_C_N_nspT.tightbox_ngwfs.bfgs_back" ... done
 Backing up density kernel to file "hBN_66_C_N_nspT.dkn.bfgs_back" ... done
  
 +------------+-------------+-------------+-----------------+ <-- min BFGS
 |    Step    |   lambda    |   F.delta   |    enthalpy     | <-- min BFGS
 +------------+-------------+-------------+-----------------+ <-- min BFGS
 |  previous  |    0.000000 |    0.005608 |     -462.972259 | <-- min BFGS
 +------------+-------------+-------------+-----------------+ <-- min BFGS
  

--------------------------------------------------------------------------------
 BFGS: starting iteration   1 with trial guess (lambda=    1.000000)
--------------------------------------------------------------------------------
Calculating Ewald energy ...             1143.989636 Hartree

============================= Charge Augmentation ==============================
                           Aug box size:   21 x  21 x  21
================================================================================

Reading NGWFs from file "hBN_66_C_N_nspT.tightbox_ngwfs" ... done

================================= Core Density =================================
               Core den box size:   33 x  33 x  25
================================================================================

Reading density kernel from file "hBN_66_C_N_nspT.dkn" ... done

################################################################################
###################### NGWF self-consistent optimisation #######################
################################################################################
|ITER|    RMS GRADIENT   |     TOTAL ENERGY    |   step   |     Epredicted      
   0     0.00000871674974   -462.97603854443207   1.041530   -462.97660086343643        
   1     0.00000238996488   -462.97661480183410   1.081250   -462.97665868781621        

================================================================================
           ---------------- ENERGY COMPONENTS (Eh) ----------------
           | Kinetic                    :      281.08507347541268 |
           | Core Hartree               :    -3329.58895099801293 |
           | CoreHart (non-coul chg cor):        0.00000000000000
           | Hartree                    :     1530.28735059555538 |
           | Exchange-correlation       :     -136.97753389356259 |
           | Ewald                      :     1143.98963564822861 |
           | Dij0                       :       55.85752280191011 |
           | Dijhartree                 :        0.30266495056233 |
           | Exc [AE core]              :     -348.45890193314767 |
           | Exc DC [AE core]           :     -123.54875069907968 |
           | Exc [PS core]              :      -91.01287178760276 |
           | Exc DC [PS core]           :     -108.05761644061603 |
           | Exc [Core]                 :     -249.51360671547292 |
           | Total [Sphere]             :       48.22776432240050 |
           | Total                      :     -462.97666084997843 |
           --------------------------------------------------------
           Integrated compensation chrg.:        7.02428088264796
           Integrated density           :      286.99999999999966
           Integrated spin density      :        1.00000000000014
           Integrated |spin density|    :        1.04090982408585
================================================================================

   2     0.00000057473035   -462.97666084997564  <-- CG                                 

================================= Core Density =================================
               Core den box size:   33 x  33 x  25
================================================================================
 
********************* Unconstrained **********************
********************** Ewald forces **********************
*                                                        *
* Element  Atom         Cartesian components (Eh/a)      *
* ------------------------------------------------------ *
*                       x            y            z      *
*                                                        *
*    B       1      0.00249318   0.00690805   0.00025799 *
*    N       2      0.02210852   0.03835393  -0.00025270 *
*    B       3      0.01435345   0.00831397   0.00025851 *
*    N       4      0.05038637   0.02904445  -0.00024856 *
*    B       5      0.00720644  -0.00124494   0.00026008 *
*    N       6      0.04426753  -0.00006665  -0.00026594 *
*    B       7     -0.00005841   0.00006792   0.00025762 *
*    N       8      0.01376608  -0.00562893  -0.00025415 *
*    B       9     -0.00429533  -0.00244821   0.00025743 *
*    N      10      0.00005768   0.00000720  -0.00025522 *
*    B      11      0.00000764  -0.00004151   0.00025754 *
*    N      12      0.00204335   0.01467709  -0.00025489 *
*    B      13      0.00999321   0.02267717   0.00025849 *
*    N      14      0.00004029   0.06480273  -0.00025094 *
*    B      15      0.01922422   0.02766622   0.00026244 *
*    N      16      0.16033723   0.18721735  -0.00022575 *
*    B      17      0.03353216   0.00284217   0.00026892 *
*    N      18      0.24242070   0.04524034  -0.00026168 *
*    B      19      0.02459909  -0.00263567   0.00026113 *
*    N      20      0.05617122  -0.03241089  -0.00024864 *
*    B      21      0.00418776  -0.00244612   0.00025772 *
*    N      22      0.01177208  -0.00904904  -0.00025468 *
*    B      23     -0.00005810   0.00489567   0.00025757 *
*    N      24     -0.00192697   0.01467466  -0.00025480 *
*    B      25     -0.01010264   0.02266288   0.00025829 *
*    N      26     -0.02196825   0.03832044  -0.00025201 *
*    B      27     -0.00006436   0.11551258   0.00026648 *
*    N      28     -0.16025310   0.18726317  -0.00023027 *
*    B      29      0.41131579   0.23758098   0.00033787 *
*    C      30      0.00000200   0.00011605  -0.00084340 *
*    B      31      0.10002893  -0.05778265   0.00027202 *
*    N      32      0.08208844  -0.23255179  -0.00022782 *
*    B      33      0.01454801  -0.02003726   0.00025877 *
*    N      34      0.02223139  -0.03822449  -0.00025241 *
*    B      35     -0.00011588  -0.00003950   0.00025770 *
*    N      36      0.00158928   0.00087925  -0.00025588 *
*    B      37     -0.00261403   0.00691555   0.00025773 *
*    N      38     -0.01321893   0.00728690  -0.00025532 *
*    B      39     -0.01930860   0.02766985   0.00026072 *
*    N      40     -0.05026509   0.02903847  -0.00025260 *
*    B      41     -0.41136520   0.23751932   0.00033066 *
*    N      42     -0.24234295   0.04520075  -0.00018941 *
*    B      43     -0.00011604  -0.47509743   0.00033672 *
*    N      44     -0.08196535  -0.23245156  -0.00022654 *
*    B      45      0.01428541  -0.03048710   0.00026179 *
*    N      46      0.00005535  -0.05810007  -0.00025091 *
*    B      47      0.00465181  -0.00567636   0.00025799 *
*    N      48     -0.00027587  -0.01514008  -0.00025490 *
*    B      49     -0.00181402  -0.00101511   0.00025750 *
*    N      50      0.00005729   0.00000846  -0.00025520 *
*    B      51     -0.01446253   0.00831162   0.00025758 *
*    N      52     -0.01287431   0.00784511  -0.00025553 *
*    B      53     -0.03363411   0.00281994   0.00025365 *
*    N      54     -0.04412409  -0.00006424  -0.00024118 *
*    B      55     -0.10012157  -0.05775065   0.00026010 *
*    N      56     -0.05605306  -0.03238606  -0.00025258 *
*    B      57     -0.01437465  -0.03053713   0.00026089 *
*    N      58     -0.02212487  -0.03826051  -0.00025380 *
*    B      59     -0.00005677  -0.01664499   0.00025809 *
*    N      60      0.00038822  -0.01513668  -0.00025483 *
*    B      61      0.00170734  -0.00101312   0.00025756 *
*    N      62      0.01331736   0.00728880  -0.00025470 *
*    B      63     -0.00005920   0.00203255   0.00025751 *
*    N      64      0.01299144   0.00784466  -0.00025406 *
*    B      65     -0.00730923  -0.00123351   0.00025582 *
*    N      66      0.00004164  -0.00176732  -0.00025537 *
*    B      67     -0.02470547  -0.00263244   0.00025579 *
*    N      68     -0.01365221  -0.00563277  -0.00025563 *
*    B      69     -0.01466496  -0.02003523   0.00025805 *
*    N      70     -0.01167403  -0.00905328  -0.00025520 *
*    B      71     -0.00476674  -0.00566122   0.00025786 *
*    N      72     -0.00148098   0.00087826  -0.00025505 *
*                                                        *
**********************************************************
TOTAL:              0.00000000  -0.00000000   0.00000000
 
********************* Unconstrained **********************
***************** Local potential forces *****************
*                                                        *
* Element  Atom         Cartesian components (Eh/a)      *
* ------------------------------------------------------ *
*                       x            y            z      *
*                                                        *
*    B       1     -0.00120140  -0.00640051  -0.00027026 *
*    N       2     -0.02202277  -0.03430574   0.00019617 *
*    B       3     -0.01421217  -0.00823309  -0.00027078 *
*    N       4     -0.04690756  -0.02704725   0.00019227 *
*    B       5     -0.00611999   0.00210928  -0.00027248 *
*    N       6     -0.04070973  -0.00190236   0.00020752 *
*    B       7      0.00005884  -0.00068679  -0.00026983 *
*    N       8     -0.01313566   0.00500252   0.00019681 *
*    B       9      0.00372728   0.00211971  -0.00026963 *
*    N      10     -0.00004301  -0.00001130   0.00019839 *
*    B      11     -0.00054286   0.00035031  -0.00026974 *
*    N      12     -0.00226140  -0.01383339   0.00019773 *
*    B      13     -0.01181219  -0.02223098  -0.00027072 *
*    N      14     -0.00001800  -0.05935550   0.00019456 *
*    B      15     -0.01308227  -0.02678847  -0.00027417 *
*    N      16     -0.15069224  -0.15415711   0.00016933 *
*    B      17     -0.02970176   0.00203919  -0.00028117 *
*    N      18     -0.20895599  -0.05343623   0.00020140 *
*    B      19     -0.02512269   0.00083665  -0.00027352 *
*    N      20     -0.05143371   0.02969052   0.00019168 *
*    B      21     -0.00362150   0.00211672  -0.00026987 *
*    N      22     -0.01090271   0.00882563   0.00019772 *
*    B      23      0.00005547  -0.00424097  -0.00026972 *
*    N      24      0.00217920  -0.01382731   0.00019786 *
*    B      25      0.01192063  -0.02221440  -0.00027050 *
*    N      26      0.02191025  -0.03427209   0.00019510 *
*    B      27      0.00006554  -0.11006872  -0.00027976 *
*    N      28      0.15063955  -0.15419802   0.00016985 *
*    B      29     -0.35258394  -0.20368571  -0.00036378 *
*    C      30      0.00001375  -0.00011000   0.00084005 *
*    B      31     -0.09531678   0.05506391  -0.00028579 *
*    N      32     -0.05825490   0.20768749   0.00016813 *
*    B      33     -0.01325074   0.02138684  -0.00027092 *
*    N      34     -0.01874449   0.03613111   0.00019569 *
*    B      35      0.00065185   0.00034826  -0.00026991 *
*    N      36     -0.00090430  -0.00049438   0.00019887 *
*    B      37      0.00132014  -0.00640836  -0.00026993 *
*    N      38      0.01248895  -0.00706463   0.00019803 *
*    B      39      0.01315746  -0.02679130  -0.00027195 *
*    N      40      0.04682401  -0.02703719   0.00019699 *
*    B      41      0.35264076  -0.20361721  -0.00035532 *
*    N      42      0.20891311  -0.05339764   0.00013428 *
*    B      43      0.00012362   0.40727609  -0.00036197 *
*    N      44      0.05816880   0.20759355   0.00016759 *
*    B      45     -0.01659944   0.02472310  -0.00027320 *
*    N      46     -0.00003447   0.05410125   0.00019516 *
*    B      47     -0.00486012   0.00430242  -0.00027023 *
*    N      48      0.00011447   0.01438127   0.00019763 *
*    B      49      0.00125227   0.00069038  -0.00026966 *
*    N      50     -0.00004304  -0.00001298   0.00019845 *
*    B      51      0.01432021  -0.00822939  -0.00026983 *
*    N      52      0.01231996  -0.00730867   0.00019858 *
*    B      53      0.02980040   0.00206578  -0.00026437 *
*    N      54      0.04059269  -0.00190614   0.00018577 *
*    B      55      0.09540910   0.05502798  -0.00027275 *
*    N      56      0.05134456   0.02965492   0.00019745 *
*    B      57      0.01668628   0.02477535  -0.00027226 *
*    N      58      0.01866497   0.03616846   0.00019633 *
*    B      59      0.00005726   0.01648037  -0.00027034 *
*    N      60     -0.00019194   0.01437223   0.00019782 *
*    B      61     -0.00114774   0.00068717  -0.00026976 *
*    N      62     -0.01254784  -0.00706519   0.00019762 *
*    B      63      0.00005617  -0.00138481  -0.00026970 *
*    N      64     -0.01240298  -0.00730665   0.00019687 *
*    B      65      0.00622007   0.00209742  -0.00026790 *
*    N      66     -0.00002140   0.00099337   0.00019823 *
*    B      67      0.02522229   0.00083281  -0.00026785 *
*    N      68      0.01305514   0.00500936   0.00019873 *
*    B      69      0.01336689   0.02138230  -0.00027032 *
*    N      70      0.01084401   0.00882999   0.00019813 *
*    B      71      0.00497004   0.00428745  -0.00027006 *
*    N      72      0.00083158  -0.00049027   0.00019797 *
*                                                        *
**********************************************************
TOTAL:              0.00058383  -0.00007958  -0.00247922
 
********************* Unconstrained **********************
************** Compensation density forces ***************
*                                                        *
* Element  Atom         Cartesian components (Eh/a)      *
* ------------------------------------------------------ *
*                       x            y            z      *
*                                                        *
*    B       1      0.00006094   0.00002615   0.00000050 *
*    N       2      0.00000769  -0.00007567   0.00000271 *
*    B       3      0.00001338   0.00000798   0.00000051 *
[...]
*    N      72     -0.00003874  -0.00000728  -0.00012196 *
*                                                        *
**********************************************************
TOTAL:              0.00018862  -0.00088578  -0.00463239
 
********************* Unconstrained **********************
****** Correction to ensure the total force is zero ******
*                                                        *
* Element  Atom         Cartesian components (Eh/a)      *
* ------------------------------------------------------ *
*                       x            y            z      *
*                                                        *
*    B       1     -0.00000246   0.00001367   0.00006117 *
*    N       2     -0.00000246   0.00001367   0.00006117 *
*    B       3     -0.00000246   0.00001367   0.00006117 *
*    N       4     -0.00000246   0.00001367   0.00006117 *
*    B       5     -0.00000246   0.00001367   0.00006117 *
*    N       6     -0.00000246   0.00001367   0.00006117 *
*    B       7     -0.00000246   0.00001367   0.00006117 *
*    N       8     -0.00000246   0.00001367   0.00006117 *
*    B       9     -0.00000246   0.00001367   0.00006117 *
*    N      10     -0.00000246   0.00001367   0.00006117 *
*    B      11     -0.00000246   0.00001367   0.00006117 *
*    N      12     -0.00000246   0.00001367   0.00006117 *
*    B      13     -0.00000246   0.00001367   0.00006117 *
*    N      14     -0.00000246   0.00001367   0.00006117 *
*    B      15     -0.00000246   0.00001367   0.00006117 *
*    N      16     -0.00000246   0.00001367   0.00006117 *
*    B      17     -0.00000246   0.00001367   0.00006117 *
*    N      18     -0.00000246   0.00001367   0.00006117 *
*    B      19     -0.00000246   0.00001367   0.00006117 *
*    N      20     -0.00000246   0.00001367   0.00006117 *
*    B      21     -0.00000246   0.00001367   0.00006117 *
*    N      22     -0.00000246   0.00001367   0.00006117 *
*    B      23     -0.00000246   0.00001367   0.00006117 *
*    N      24     -0.00000246   0.00001367   0.00006117 *
*    B      25     -0.00000246   0.00001367   0.00006117 *
*    N      26     -0.00000246   0.00001367   0.00006117 *
*    B      27     -0.00000246   0.00001367   0.00006117 *
*    N      28     -0.00000246   0.00001367   0.00006117 *
*    B      29     -0.00000246   0.00001367   0.00006117 *
*    C      30     -0.00000246   0.00001367   0.00006117 *
*    B      31     -0.00000246   0.00001367   0.00006117 *
*    N      32     -0.00000246   0.00001367   0.00006117 *
*    B      33     -0.00000246   0.00001367   0.00006117 *
*    N      34     -0.00000246   0.00001367   0.00006117 *
*    B      35     -0.00000246   0.00001367   0.00006117 *
*    N      36     -0.00000246   0.00001367   0.00006117 *
*    B      37     -0.00000246   0.00001367   0.00006117 *
*    N      38     -0.00000246   0.00001367   0.00006117 *
*    B      39     -0.00000246   0.00001367   0.00006117 *
*    N      40     -0.00000246   0.00001367   0.00006117 *
*    B      41     -0.00000246   0.00001367   0.00006117 *
*    N      42     -0.00000246   0.00001367   0.00006117 *
*    B      43     -0.00000246   0.00001367   0.00006117 *
*    N      44     -0.00000246   0.00001367   0.00006117 *
*    B      45     -0.00000246   0.00001367   0.00006117 *
*    N      46     -0.00000246   0.00001367   0.00006117 *
*    B      47     -0.00000246   0.00001367   0.00006117 *
*    N      48     -0.00000246   0.00001367   0.00006117 *
*    B      49     -0.00000246   0.00001367   0.00006117 *
*    N      50     -0.00000246   0.00001367   0.00006117 *
*    B      51     -0.00000246   0.00001367   0.00006117 *
*    N      52     -0.00000246   0.00001367   0.00006117 *
*    B      53     -0.00000246   0.00001367   0.00006117 *
*    N      54     -0.00000246   0.00001367   0.00006117 *
*    B      55     -0.00000246   0.00001367   0.00006117 *
*    N      56     -0.00000246   0.00001367   0.00006117 *
*    B      57     -0.00000246   0.00001367   0.00006117 *
*    N      58     -0.00000246   0.00001367   0.00006117 *
*    B      59     -0.00000246   0.00001367   0.00006117 *
*    N      60     -0.00000246   0.00001367   0.00006117 *
*    B      61     -0.00000246   0.00001367   0.00006117 *
*    N      62     -0.00000246   0.00001367   0.00006117 *
*    B      63     -0.00000246   0.00001367   0.00006117 *
*    N      64     -0.00000246   0.00001367   0.00006117 *
*    B      65     -0.00000246   0.00001367   0.00006117 *
*    N      66     -0.00000246   0.00001367   0.00006117 *
*    B      67     -0.00000246   0.00001367   0.00006117 *
*    N      68     -0.00000246   0.00001367   0.00006117 *
*    B      69     -0.00000246   0.00001367   0.00006117 *
*    N      70     -0.00000246   0.00001367   0.00006117 *
*    B      71     -0.00000246   0.00001367   0.00006117 *
*    N      72     -0.00000246   0.00001367   0.00006117 *
*                                                        *
**********************************************************
TOTAL:             -0.00017689   0.00098406   0.00440429

********************* Unconstrained **********************
************************* Forces *************************
*                                                        *
* Element  Atom         Cartesian components (Eh/a)      *
* ------------------------------------------------------ *
*                       x            y            z      *
*                                                        *
*    B       1     -0.00002798   0.00000913   0.00000425 *
*    N       2      0.00003639   0.00002181   0.00001099 *
*    B       3      0.00000741   0.00000063  -0.00000184 *
*    N       4     -0.00002327  -0.00001609   0.00000106 *
*    B       5     -0.00000214  -0.00003475   0.00000032 *
*    N       6      0.00004116   0.00001505  -0.00000082 *
*    B       7     -0.00000086   0.00000684   0.00000338 *
*    N       8      0.00005311   0.00000682  -0.00000021 *
*    B       9      0.00000075   0.00000050   0.00000497 *
*    N      10      0.00000055  -0.00000073   0.00000192 *
*    B      11      0.00000516  -0.00000819   0.00000377 *
*    N      12      0.00003146   0.00003692   0.00000249 *
*    B      13     -0.00000688  -0.00002258   0.00000668 *
*    N      14     -0.00000242  -0.00010230  -0.00000066 *
*    B      15     -0.00003343   0.00003276   0.00001196 *
*    N      16     -0.00001555  -0.00001085   0.00000507 *
*    B      17      0.00001714  -0.00004951  -0.00000539 *
*    N      18     -0.00001381  -0.00000846  -0.00001458 *
*    B      19     -0.00001579   0.00000213  -0.00000063 *
*    N      20     -0.00008001   0.00004884  -0.00000406 *
*    B      21      0.00000202   0.00000295   0.00000064 *
*    N      22      0.00002415  -0.00004868  -0.00000307 *
*    B      23      0.00000200  -0.00000202   0.00000197 *
*    N      24     -0.00003071   0.00003952  -0.00000217 *
*    B      25      0.00000408  -0.00002179  -0.00000244 *
*    N      26     -0.00003702   0.00002617  -0.00000562 *
*    B      27     -0.00000068  -0.00009808  -0.00000608 *
*    N      28      0.00001080  -0.00000874  -0.00002487 *
*    B      29     -0.00003288  -0.00001872  -0.00001427 *
*    C      30     -0.00000406   0.00000350  -0.00002470 *
*    B      31     -0.00007854   0.00004993  -0.00000267 *
*    N      32      0.00000097   0.00002508   0.00000697 *
*    B      33     -0.00000977   0.00001480   0.00000369 *
*    N      34      0.00000945  -0.00003966   0.00001119 *
*    B      35     -0.00000233  -0.00000289  -0.00000021 *
*    N      36      0.00003855   0.00002178  -0.00000144 *
*    B      37      0.00002686   0.00001380   0.00000086 *
*    N      38     -0.00001816   0.00006173   0.00000770 *
*    B      39      0.00003080   0.00003833  -0.00001495 *
*    N      40      0.00002393  -0.00001456  -0.00000482 *
*    B      41      0.00002726  -0.00001647  -0.00001808 *
*    N      42      0.00001138  -0.00000553   0.00000561 *
*    B      43     -0.00000135   0.00004125  -0.00000836 *
*    N      44     -0.00000181   0.00002622  -0.00000317 *
*    B      45      0.00005449   0.00001836   0.00001269 *
*    N      46      0.00000201   0.00003841   0.00000716 *
*    B      47      0.00002759   0.00002008   0.00000412 *
*    N      48      0.00004821  -0.00004244  -0.00000007 *
*    B      49     -0.00002330  -0.00001186   0.00000391 *
*    N      50      0.00000083  -0.00000317   0.00000172 *
*    B      51     -0.00000569   0.00000213   0.00000292 *
*    N      52     -0.00006270  -0.00002032   0.00000548 *
*    B      53     -0.00001926  -0.00004638   0.00000482 *
*    N      54     -0.00004315   0.00001774   0.00000179 *
*    B      55      0.00007675   0.00004974   0.00000634 *
*    N      56      0.00007925   0.00004800   0.00000676 *
*    B      57     -0.00005068   0.00001841  -0.00000288 *
*    N      58     -0.00000562  -0.00003978  -0.00000785 *
*    B      59      0.00000248   0.00000100   0.00000326 *
*    N      60     -0.00004177  -0.00003980   0.00000175 *
*    B      61      0.00002327  -0.00001257   0.00000082 *
*    N      62      0.00001579   0.00005824  -0.00000342 *
*    B      63      0.00000140   0.00002169   0.00000174 *
*    N      64      0.00006496  -0.00002465  -0.00000479 *
*    B      65      0.00000133  -0.00003367   0.00000301 *
*    N      66     -0.00000036  -0.00004438   0.00000278 *
*    B      67      0.00001586   0.00000386   0.00000476 *
*    N      68     -0.00005554   0.00000677   0.00000614 *
*    B      69      0.00000922   0.00001329  -0.00000037 *
*    N      70     -0.00002159  -0.00005219   0.00000533 *
*    B      71     -0.00002408   0.00001975  -0.00000110 *
*    N      72     -0.00003567   0.00001784   0.00000281 *
*                                                        *
**********************************************************
* TOTAL:           -0.00000000  -0.00000000  -0.00000000 *
**********************************************************
 
 
***********************************************************
********** Summary of Forces (values in Eh/a) *************
*                                                         *
* ---------------------- Minimum ------------------------ *
* Atom:        10, |F|min =    0.00000213                 *
* Components:     Fx|min       Fy|min       Fz|min        *
*               0.00000055  -0.00000073   0.00000192      *
*                                                         *
* ---------------------- Maximum ------------------------ *
* Atom:        14, |F|max =    0.00010233                 *
* Components:     Fx|max       Fy|max       Fz|max        *
*              -0.00000242  -0.00010230  -0.00000066      *
*                                                         *
* ---------------- Root Mean Square Force --------------- *
*                  |F|rms =    0.00004604                 *
* Components:     Fx|rms       Fy|rms       Fz|rms        *
*               0.00003169   0.00003260   0.00000724      *
***********************************************************
 

------------------------------ TIMING INFORMATION ------------------------------
AVERAGE TIME:    2965.891s on     16 proc(s)                                    
TOTAL TIME:      2965.891s on     16 proc(s)                                    
==================== AVERAGE TIMINGS FROM ALL PROCS (CUMULATIVE) =====================
|| TAG                                         #calls     cpu time   %total  Gflops ||
|| linalg_invert_sym_matrix                   :     5        0.00s   0.000%  ------ || (1 procs only)
|| onetep.F90 main loop imbalance             :     1        0.00s   0.000%  ------ ||
|| hash_table_free                            :   127        0.00s   0.000%  ------ ||
|| sparse_blacstospam3_real_fast_imbal        :     8        0.00s   0.000%  ------ ||
|| sparse_spam3toblacs_real_fast_imbal        :     6        0.00s   0.000%  ------ ||
|| onetep.F90 final imbalance                 :     1        0.00s   0.000%  ------ ||
|| sparse_spam3toblacs_real_fast_B2           :    96        0.00s   0.000%  ------ ||
|| density_fftbox_interp_mult_imbal           : 25880        0.00s   0.000%  ------ ||
|| ewald_calculate_forces_realspace           :    17        0.01s   0.000%  ------ ||
|| sparse_spam3toblacs_real_fast_B1           :    96        0.01s   0.000%  ------ ||
|| sparse_set_to_garbage                      :  1218        0.01s   0.000%  ------ ||
|| sparse_spam3toblacs_real_fast              :     6        0.01s   0.000%  ------ ||
|| linalg_dgemv                               :    32        0.02s   0.001%  ------ ||
|| sparse_blacstospam3_real_fast              :     8        0.02s   0.001%  ------ ||
|| paw_dij_hartree                            :   690        0.03s   0.001%  ------ ||
|| restart_kernel_read                        :    15        0.05s   0.002%  ------ ||
|| paw_tcore_hartree_on_grid                  :    17        0.07s   0.002%  ------ ||
|| paw_sphere_density_on_grid                 :     1        0.07s   0.002%  ------ ||
|| ewald_calculate_energy                     :    17        0.07s   0.002%  ------ ||
|| pseudo_make_structure_factor               :    17        0.09s   0.003%  ------ ||
|| ewald_calculate_forces_recipspace          :    17        0.16s   0.005%  ------ ||
|| ewald_calculate_forces                     :    17        0.18s   0.006%  ------ ||
|| dense_eigensolve                           :     2        0.18s   0.006%  ------ ||
|| augmentation_density_forces                :    17        0.24s   0.008%  ------ ||
|| paw_tcore_density                          :    17        0.28s   0.009%  ------ ||
|| paw_tcore_hartree_calc_forces              :    17        0.28s   0.010%  ------ ||
|| restart_kernel_write                       :    62        0.34s   0.011%  ------ ||
|| palser_mano_kernel_optimise_spam3_embed    :     4        0.36s   0.012%  ------ ||
|| sparse_init                                :    17        0.40s   0.014%  ------ ||
|| basis_extract_function_from_box            :  4860        0.59s   0.020%  ------ ||
|| eigenstates_calculate                      :     1        1.00s   0.034%  ------ ||
|| paw_nlcc_calculate_forces                  :    17        1.14s   0.038%  ------ ||
|| paw_dataset_init                           :     3        1.31s   0.044%  ------ ||
|| ngwfs_initialise_from_radial               :     4        1.65s   0.056%  ------ ||
|| sparse_embed_array_hotelling_invert        :   110        1.74s   0.059%  ------ ||
|| density_init_guess_real                    :     4        1.91s   0.064%  ------ ||
|| hartree_on_grid_single                     :   631        2.58s   0.087%  ------ ||
|| energy_and_force_init_cell                 :     1        2.77s   0.093%  ------ ||
|| integrals_grad_spam3                       :    34        3.75s   0.127%  ------ ||
|| nonsc_forces_ngwfs_calc                    :    17        3.76s   0.127%  ------ ||
|| sparse_trace                               : 21454        3.88s   0.131%  ------ ||
|| kernel_purify                              :   954        4.78s   0.161%  ------ ||
|| kernel_fix                                 :   300        5.15s   0.174%  ------ ||
|| lnv_gradient_norm                          :   300        5.36s   0.181%  ------ ||
|| ngwf_gradient_coeffs                       :    60        6.63s   0.224%  ------ ||
|| augmentation_screen_dij_spam3              :   630        8.28s   0.279%  ------ ||
|| myself                                     :  6606        8.42s   0.284% 281.372 ||
|| basis_copy_function_to_box                 : 40572        9.63s   0.325%  ------ ||
|| cell_grid_deposit_box_real                 : 32645        9.63s   0.325%  ------ ||
|| paw_species_calc_proj_prec_mat             :    17        9.69s   0.327%  ------ ||
|| properties_calculate                       :     1       10.77s   0.363%  ------ ||
|| fourier_apply_cell_backward                :  5824       10.78s   0.363%  57.165 ||
|| fourier_apply_cell_forward                 :  5824       12.25s   0.413%  50.314 ||
|| cell_grid_extract_box_real                 : 21089       13.95s   0.470%  ------ ||
|| restart_ngwfs_tightbox_input               :    15       13.95s   0.470%  ------ ||
|| aug_density_on_grid_spam3                  :   647       16.16s   0.545%  ------ ||
|| function_ops_brappd_ketppd_spam3           :   220       25.64s   0.864%  ------ ||
|| sparse_product                             : 36018       28.01s   0.944%  ------ ||
|| hamiltonian_energy_components              :    17       30.08s   1.014%  ------ ||
|| density_fftbox_deposit_to_cell             : 25880       32.33s   1.090%  ------ ||
|| xc_energy_potential                        :   647       32.60s   1.099%  ------ ||
|| restart_ngwfs_tightbox_output              :    46       48.09s   1.621%  ------ ||
|| projectors_init_fftbox_recip               :   819       48.13s   1.623%  ------ ||
|| aug_nonlocal_mat_spam3_embed_array         :   613       48.82s   1.646%  ------ ||
|| paw_dij_xc                                 :   690       51.21s   1.727%  ------ ||
|| projectors_func_grad_ovlp_box_spam3        :   102       53.64s   1.809%  ------ ||
|| aug_nl_calculate_forces                    :    17       56.05s   1.890%  ------ ||
|| fourier_filter                             :  7614       66.73s   2.250%  ------ ||
|| integrals_kinetic_spam3                    :   220       84.74s   2.857%  ------ ||
|| projectors_func_ovlp_box_spam3             :   220      110.47s   3.725%  ------ ||
|| forces_calculate                           :    17      113.85s   3.839%  ------ ||
|| fourier_interpolate                        :  7614      117.16s   3.950%  ------ ||
|| projectors_gradient_batch                  :   240      140.17s   4.726%  ------ ||
|| projectors_grad_precond_batch              :   240      208.30s   7.023%  ------ ||
|| basis_dot_function_with_box                : 5.573M     226.40s   7.633%  ------ ||
|| integrals_locpot_mat_els_batch             :  1212      249.69s   8.419%  ------ ||
|| fourier_apply_box                          : 132.6k     274.15s   9.243% 556.525 ||
|| potential_apply_to_ngwf_batch              :  1212      275.51s   9.289%  ------ ||
|| fourier_interpolate_product                : 23292      335.41s  11.309%  ------ ||
|| density_fftbox_interpolate_multiply        : 25880      387.72s  13.072%  ------ ||
|| density_batch_row_sums                     :  2588      438.28s  14.777%  ------ ||
|| ngwf_gradient_build_batch                  :   240      446.75s  15.063%  ------ ||
|| basis_add_function_to_box                  : 9.196M     453.19s  15.280%  ------ ||
|| density_batch_interp_deposit               :  2588      516.58s  17.418%  ------ ||
|| integrals_locpot_dbl_grid                  :   606      525.87s  17.731%  ------ ||
|| ngwf_gradient_batch                        :   240      822.71s  27.739%  ------ ||
|| ngwf_gradient_lnv                          :    60      846.08s  28.527%  ------ ||
|| density_on_dbl_grid                        :  1294      968.56s  32.657%  ------ ||
|| hamiltonian_lhxc_calculate                 :   611     1024.75s  34.551%  ------ ||
|| lnv_denskernel_optimise_cg                 :    60     1501.56s  50.628%  ------ ||
|| ngwf_cg_optimise                           :    17     2753.73s  92.847%  ------ ||
|| energy_and_forces                          :    17     2945.82s  99.323%  ------ ||
|| total_time                                 :     1     2965.89s 100.000%  ------ ||
======================================================================================
Overhead of generating timer report: 
- 0 ms averaging over threads,
- 1 ms ensuring consistency across MPI ranks,
- 1 ms printing in order.

Job completed: 16-05-2024 23:29 (+0100)

onetep_launcher: ONETEP seems to have finished correctly (zero exit code).
                 Brought to you by PID 141577 on nid002334.
