==================================================================================
It's Fri 22 Dec 2023 04:34:12 PM GMT.
*** Starting onetep_launcher (node nid002790, PIDs 109596 109597 109598 109599 109600 109601 109602 109603 109604 109605 109606 109607 109608)...
    - ONETEP arguments: Co_cluster1_nspF.dat
    - Current directory: /mnt/lustre/a2fs-work3/work/e89/e89/ndmh3/Co_NPs/Co_cluster1_nspF
    - Launcher executable directory: /mnt/lustre/a2fs-work3/work/e89/e89/ndmh3/onetep_mea/utils
    - (-e) ONETEP executable specified through command-line: /work/e89/e89/ndmh3/onetep_mea/bin/onetep.archer2_2023_cray
      ... trying /work/e89/e89/ndmh3/onetep_mea/bin/onetep.archer2_2023_cray
          -> looks OK
*** Setting up environment...
    - (-s) Process stack size: unlimited
    - (-t) OMP_NUM_THREADS: 8
    - (-o) OMP_STACKSIZE: 64M
    - (-c) Maximum core file size: 2048000
    - (-d) decfort_dump_flag: n
    - (-m) I_MPI_OFA_TRANSLATION_CACHE: 0
    - (-m) I_MPI_DAPL_TRANSLATION_CACHE: 0
    - (-m) I_MPI_DAPL_UD_TRANSLATION_CACHE: 0
*** Starting ONETEP...
    - /work/e89/e89/ndmh3/onetep_mea/bin/onetep.archer2_2023_cray Co_cluster1_nspF.dat
=================================================================================
_________________________________________________________________________________
 +---------------------------------------------------------------+
 |                                                               |
 |        ####### #     # ####### ####### ####### ######         |
 |        #     # ##    # #          #    #       #     #        |
 |        #     # # #   # #          #    #       #     #        |
 |        #     # #  #  # #####      #    #####   ######         |
 |        #     # #   # # #          #    #       #              |
 |        #     # #    ## #          #    #       #              |
 |        ####### #     # #######    #    ####### #              |
 |                                                               |
 |        Linear-Scaling Ab Initio Total Energy Program          |
 |                                                               |
 |          Release for academic collaborators of ODG            |
 |                                             Version 7.1.2     |
 | Remote: git@github.com:Miesaz/onetep_mea.git                  |
 | Local branch: spin_polarised_ngwfs                            |
 | Commit ID: 7c696c95508db11e862ad6ab7bb9dc094f19dd1c           |
 | Date: Sun Dec 17 13:55:03 2023 +0000                          |
 | Locally modified files:                                       |
 |   config/conf.archer2_2023_cray                               |
 |                                                               |
 +---------------------------------------------------------------+
 |                                                               |
 |  Authors:                                                     |
 |  Jacek Dziedzic, Peter D. Haynes, Nicholas D. M. Hine,        |
 |  Arash A. Mostofi, Mike C. Payne and Chris-Kriton Skylaris    |
 |                                                               |
 |  Contributors:                                                |
 |  J. Aarons, L. Andrinopoulos, P. W. Avraam, R. A. Bell,       |
 |  A. Bhandari, G. A. Bramley, R. J. Charlton, S. J. Clark,     |
 |  R. J. Clements, G. C. Constantinescu, F. Corsetti,           |
 |  N. Corsini, O. Dieguez, S. M. M. Dubois, K. K. B. Duff,      |
 |  J. M. Escartin, M. Escobar Azor, A. Greco,                   |
 |  H. Helal, Q. O. Hill, L. P. Lee, J.-H. Li,                   |
 |  E. B. Linscott, G. Moynihan, D. D. O`Regan,                  |
 |  O. K. Okan, M. J. S. Phipps, C. J. Pickard,                  |
 |  J. C. A. Prentice, M. I. J. Probert, L. E. Ratcliff,         |
 |  M. Robinson, A. Ruiz Serrano, M. dos Santos Dias,            |
 |  J. S. Spencer, E. W. Tait, G. Teobaldi, D. Turban,           |
 |  V. Vitale, K. A. Wilkinson, C. Weber, J. C. Womack,          |
 |  N. Yeung and T. J. Zuehlsdorff                               |
 |                                                               |
 |                                   Copyright (c) 2004-2023     |
 |                                                               |
 |  Please cite:                                                 |
 |  "The ONETEP linear-scaling density functional theory program"|
 |   J. Chem. Phys. 152(17) 174111 (2020)                        |
 |                                                               |
 |          in all publications arising from your use of ONETEP. |
 |                                                               |
 +---------------------------------------------------------------+
 |                                                               |
 |   ONETEP is based on developments described in the following  |
 |   publications:                                               |
 |                                                               |
 |  "Nonorthogonal generalized Wannier function pseudopotential  |
 |   plane-wave method".                                         |
 |   C.-K. Skylaris, A. A. Mostofi, P. D. Haynes, O. Dieguez,    |
 |   M. C. Payne.                                                |
 |   Phys. Rev. B 66 035119 (2002).                              |
 |                                                               |
 |  "Preconditioned iterative minimization for linear-scaling    |
 |   electronic structure calculations".                         |
 |   A. A. Mostofi, P. D. Haynes, C.-K. Skylaris, M. C. Payne.   |
 |   J. Chem. Phys. 119(17), pp.8842-8848 (2003).                |
 |                                                               |
 |  "Total-energy calculations on a real space grid with         |
 |   localized functions and a plane-wave basis".                |
 |   A. A. Mostofi, C.-K. Skylaris, P. D. Haynes, M. C. Payne.   |
 |   Comput. Phys. Commun. 147, pp.788-802 (2002).               |
 |                                                               |
 |  "Accurate kinetic energy evaluation in electronic structure  |
 |   calculations with localized functions on real space grids"  |
 |   C.-K. Skylaris, A. A. Mostofi, P. D. Haynes, C. J. Pickard, |
 |   M. C. Payne.                                                |
 |   Comput. Phys. Commun. 140, pp.315-322 (2001).               |
 |                                                               |
 |  "Accurate ionic forces and geometry optimization in linear-  |
 |   scaling density-functional theory with local orbitals"      |
 |   N. D. M. Hine, M. Robinson, P. D. Haynes, C.-K. Skylaris,   |
 |   M. C. Payne, and A. A. Mostofi.                             |
 |   Phys. Rev. B 83 195102 (2011).                              |
 |                                                               |
 +---------------------------------------------------------------+

Job started: 22-12-2023 16:34 (+0000)
 
Reading parameters from file "Co_cluster1_nspF.dat" ...... done

If your calculation crashes here, before "Checking processes and threads..."
is displayed, then your stack size is insufficient.
If so, use "ulimit -s unlimited" at runtime.
You can disable this check with "check_stack_size F".

Checking processes and threads...
   Running with 13 MPI processes.
   There are 13 MPI processes running on the same node as the root process.
   Each MPI process is using: 
               1 threads for simulation cell FFTs.
               1 threads for parallel FFT box operations.
               8 threads for loops over batched FFT box operations.
               8 threads in other parallel regions.
   MPI Interface: S1 (use mpi_f08) (-DMPI -DUSE_MPI_F08).
   MPI_ASYNC_PROTECTS_NONBLOCKING: Yes. MPI_SUBARRAYS_SUPPORTED: Yes.
   GPU Interface: None.
... done

Basic input checks...
Resetting ngwf_cg_rotate to TRUE for EDFT calculations
... done

Reading geometry and species blocks from file "Co_cluster1_nspF.dat" ...... done


--------------------------------------------------------------------------------
---------------------------------- INPUT FILE ----------------------------------
--------------------------------------------------------------------------------

charge : 0                                                                      
cutoff_energy : 600 eV                                                          
do_properties : T                                                               
edft : T                                                                        
edft_spin_fix : 0                                                               
fine_grid_scale : 4                                                             
forces_output_detail : VERBOSE                                                  
maxit_ngwf_cg : 30                                                              
ngwf_threshold_orig : 1e-06                                                     
ngwfs_spin_polarized : F                                                        
output_detail : BRIEF                                                           
paw : T                                                                         
pseudo_path : .                                                                 
read_denskern : F                                                               
read_hamiltonian : F                                                            
read_tightbox_ngwfs : F                                                         
spin : 39                                                                       
task : GEOMETRYOPTIMIZATION                                                     
write_denskern : T                                                              
write_forces : T                                                                
write_hamiltonian : T                                                           
write_tightbox_ngwfs : T                                                        
xc_functional : PBE                                                             
%BLOCK LATTICE_CART                                                             
ang                                                                             
14.23456672       0.00000000       0.00000000                                   
0.00000000      14.23456672       0.00000000                                    
0.00000000       0.00000000      14.23456672                                    
%ENDBLOCK LATTICE_CART                                                          
%BLOCK POSITIONS_ABS                                                            
ang                                                                             
Co1     7.117283     7.117283     7.117283                                      
Co2     9.234567     7.117283     5.808730                                      
Co2     9.234567     7.117283     8.425836                                      
Co2     5.000000     7.117283     5.808730                                      
Co2     5.000000     7.117283     8.425836                                      
Co2     5.808730     9.234567     7.117283                                      
Co2     8.425836     9.234567     7.117283                                      
Co2     5.808730     5.000000     7.117283                                      
Co2     8.425836     5.000000     7.117283                                      
Co2     7.117283     5.808730     9.234567                                      
Co2     7.117283     8.425836     9.234567                                      
Co2     7.117283     5.808730     5.000000                                      
Co2     7.117283     8.425836     5.000000                                      
%ENDBLOCK POSITIONS_ABS                                                         
%BLOCK SPECIES                                                                  
Co1 Co 27 -1 10.0                                                               
Co2 Co 27 -1 10.0                                                               
%ENDBLOCK SPECIES                                                               
%BLOCK SPECIES_ATOMIC_SET                                                       
Co1 "SOLVE INIT SPIN=3"                                                         
Co2 "SOLVE INIT SPIN=3"                                                         
%ENDBLOCK SPECIES_ATOMIC_SET                                                    
%BLOCK SPECIES_LDOS_GROUPS                                                      
Co1                                                                             
Co2                                                                             
%ENDBLOCK SPECIES_LDOS_GROUPS                                                   
%BLOCK SPECIES_POT                                                              
Co1 Co.PBE-paw.abinit                                                           
Co2 Co.PBE-paw.abinit                                                           
%ENDBLOCK SPECIES_POT                                                           

--------------------------------------------------------------------------------
-------------------------------- END INPUT FILE --------------------------------
--------------------------------------------------------------------------------


 
<<<<<<<<<<<<<<<<<<<<<<<<<<<<<<<<< Full system >>>>>>>>>>>>>>>>>>>>>>>>>>>>>>>>>>
<<<<<<<<<<<<<<<<<<<<<<<<<<< PAW Dataset information >>>>>>>>>>>>>>>>>>>>>>>>>>>
File: Co.PBE-paw.abinit; rc = 2.11 bohr; shape type =  2; rshape = 1.60 bohr;
  Atomic number: 27;  ionic charge: 17.000000
    Partial Wave 1: l = 0
    Partial Wave 2: l = 0
    Partial Wave 3: l = 1
    Partial Wave 4: l = 1
    Partial Wave 5: l = 2
    Partial Wave 6: l = 2
  Core charge supplied for Nonlinear Core Corrections
<<<<<<<<<<<<<<<<<<<<<<<<<<<<<<<<<<<<<<< >>>>>>>>>>>>>>>>>>>>>>>>>>>>>>>>>>>>>>>

-------------------------- Atom counting information ---------------------------
Symbol    Natoms    Nngwfs    Nprojs
  Co        13       169       234
.......   ......    ......    ......
Totals:     13       169       234
--------------------------------------------------------------------------------

=============================== PSINC grid sizes ===============================
                      Simulation cell:   49 x  49 x  49
                              FFT-box:   49 x  49 x  49
                                  PPD:    7 x   7 x   1
================================================================================

Atom SCF Calculation for Co : Z (AE atom) =  27 : Z (PS atom) =  17
Config String: 3s2.0 3p6.0 3d7.0 4s2.0 4p0.0 INIT SPIN=3
Orbitals (num,occ):  5     2.00 6.00 7.00 2.00 0.00
Orbitals   (num,l):  5        0    1    2    0    1
Atom SCF converged after  37 iterations to a total energy of   -146.10251041
Adjusting orbital occupancies:
Orbitals (num,spin,occ):  5  1     1.00 3.00 5.00 1.00 0.00
Orbitals   (num,spin,l):  5  1        0    1    2    0    1
Orbitals (num,spin,occ):  5  2     1.00 3.00 3.00 0.00 0.00
Orbitals   (num,spin,l):  5  2        0    1    2    0    1

Atom SCF Calculation for Co : Z (AE atom) =  27 : Z (PS atom) =  17
Config String: 3s2.0 3p6.0 3d7.0 4s2.0 4p0.0 INIT SPIN=3
Orbitals (num,occ):  5     2.00 6.00 7.00 2.00 0.00
Orbitals   (num,l):  5        0    1    2    0    1
Atom SCF converged after  37 iterations to a total energy of   -146.10251041
Adjusting orbital occupancies:
Orbitals (num,spin,occ):  5  1     1.00 3.00 5.00 1.00 0.00
Orbitals   (num,spin,l):  5  1        0    1    2    0    1
Orbitals (num,spin,occ):  5  2     1.00 3.00 3.00 0.00 0.00
Orbitals   (num,spin,l):  5  2        0    1    2    0    1

================================================================================
<<<<<<<<<<<<<<<<<<<< Starting ONETEP Geometry Optimisation >>>>>>>>>>>>>>>>>>>>>
================================================================================

 Geometry Optimisation: output file is "Co_cluster1_nspF.geom"
 
Calculating Ewald energy ...             1289.638464 Hartree

============================= Charge Augmentation ==============================
                           Aug box size:   33 x  33 x  33
================================================================================

================================= Core Density =================================
               Core den box size:   33 x  33 x  33
================================================================================
Density kernel initialisation

################################################################################
###################### NGWF self-consistent optimisation #######################
################################################################################
|ITER|    RMS GRADIENT   |     TOTAL ENERGY    |   step   |     Epredicted      
   0     0.00056221639106  -1901.78805773943668   0.411699  -1902.06647176359047        
   1     0.00032025731488  -1902.11357418457192   0.629995  -1902.23133182800530        
   2     0.00019190215654  -1902.24400687970024   0.676470  -1902.29003061301933        
   3     0.00011134897268  -1902.28804004492827   0.559028  -1902.30071608051185        
   4     0.00006658369763  -1902.30090116705082   0.365320  -1902.30436624397294        
   5     0.00003702580546  -1902.30533357092759   2.725296  -1902.31436475888904        
   6     0.00010285626084  -1902.29973837965144   0.432894  -1902.30953660861746        
   7     0.00004693770665  -1902.31013199009817   0.514147  -1902.31268040305986        
   8     0.00002936332158  -1902.31257388346762   0.969080  -1902.31425376947254        
   9     0.00002658808138  -1902.31378236808632   0.543674  -1902.31436502086581        
  10     0.00001890538844  -1902.31438259960646   0.686085  -1902.31490723007482        
  11     0.00001637896405  -1902.31485680412425   0.577001  -1902.31515458327158        
  12     0.00001193063712  -1902.31509965013061   1.245788  -1902.31540863211671        
  13     0.00001410163833  -1902.31524417250603   0.726996  -1902.31541485276489        
  14     0.00000564684039  -1902.31531048230886   0.133422  -1902.31531958441315        
  15     0.00000538908539  -1902.31532654686157   0.216412  -1902.31533999353223        
  16     0.00000663514670  -1902.31534069329382   0.048546  -1902.31534582317136        
  17     0.00000197219528  -1902.31534534715979   0.023684  -1902.31534554424798        
  18     0.00000213838516  -1902.31534546585908   0.007080  -1902.31534554061477        
  19     0.00000102102153  -1902.31534556429256   0.004685  -1902.31534557474106        

================================================================================
           ---------------- ENERGY COMPONENTS (Eh) ----------------
           | Kinetic                    :      151.54667548018693 |
           | Core Hartree               :    -6489.17800515132330 |
           | CoreHart (non-coul chg cor):        0.00000000000000
           | Hartree                    :     2850.98751336289297 |
           | Exchange-correlation       :      -39.24710003308108 |
           | Ewald                      :     1289.63846428339821 |
           | Dij0                       :      418.92612449523995 |
           | Dijhartree                 :      105.06160349728916 |
           | Exc [AE core]              :     -768.57664974323768 |
           | Exc DC [AE core]           :     -275.06065769770083 |
           | Exc [PS core]              :      -33.20521470997977 |
           | Exc DC [PS core]           :      -43.49427948528933 |
           | Exc [Core]                 :     -545.34952823147137 |
           | Total [Sphere]             :      333.96582119074264 |
           | Total                      :    -1902.28663086718325 |
           |------------------------------------------------------|
           | Entropic contribution      :       -0.02871469687034 |
           | Total free energy          :    -1902.31534556405359 |
           --------------------------------------------------------
           Integrated compensation chrg.:      130.64917965516628
           Integrated density           :      221.00000000001870
           Integrated spin density      :       30.31123146707104
           Integrated |spin density|    :       12.25176858178874
           Fermi level of spin Up       :       -0.10049794107163
           Fermi level of spin Down     :       -0.10049794107163
================================================================================

  20     0.00000080394258  -1902.31534556405359  <-- CG                                 

================================= Core Density =================================
               Core den box size:   33 x  33 x  33
================================================================================
 
********************* Unconstrained **********************
********************** Ewald forces **********************
*                                                        *
* Element  Atom         Cartesian components (Eh/a)      *
* ------------------------------------------------------ *
*                       x            y            z      *
*                                                        *
*    Co      1      0.00001256   0.00001256   0.00001256 *
*    Co      2     53.31555616   0.00000432 -33.15562021 *
*    Co      3     53.31555192   0.00000432  33.15561635 *
*    Co      4    -53.31556723   0.00000432 -33.15562872 *
*    Co      5    -53.31556299   0.00000432  33.15562486 *
*    Co      6    -33.15562021  53.31555616   0.00000432 *
*    Co      7     33.15561635  53.31555192   0.00000432 *
*    Co      8    -33.15562872 -53.31556723   0.00000432 *
*    Co      9     33.15562486 -53.31556299   0.00000432 *
*    Co     10      0.00000432 -33.15562021  53.31555616 *
*    Co     11      0.00000432  33.15561635  53.31555192 *
*    Co     12      0.00000432 -33.15562872 -53.31556723 *
*    Co     13      0.00000432  33.15562486 -53.31556299 *
*                                                        *
**********************************************************
TOTAL:              0.00000000   0.00000000   0.00000000
 
********************* Unconstrained **********************
***************** Local potential forces *****************
*                                                        *
* Element  Atom         Cartesian components (Eh/a)      *
* ------------------------------------------------------ *
*                       x            y            z      *
*                                                        *
*    Co      1     -0.00041136  -0.00040787  -0.00041284 *
*    Co      2    -53.50786971  -0.00023054  33.27395808 *
*    Co      3    -53.50760272  -0.00022607 -33.27424640 *
*    Co      4     53.50785265  -0.00023774  33.27422907 *
*    Co      5     53.50758558  -0.00023329 -33.27452618 *
*    Co      6     33.27396025 -53.50786865  -0.00023390 *
*    Co      7    -33.27424739 -53.50760292  -0.00022946 *
*    Co      8     33.27422825  53.50785129  -0.00024110 *
*    Co      9    -33.27452412  53.50758555  -0.00023667 *
*    Co     10     -0.00023295  33.27395949 -53.50786694 *
*    Co     11     -0.00022849 -33.27424368 -53.50760426 *
*    Co     12     -0.00024006  33.27423171  53.50785000 *
*    Co     13     -0.00023561 -33.27452480  53.50758723 *
*                                                        *
**********************************************************
TOTAL:             -0.00196568  -0.00194752  -0.00197335
 
********************* Unconstrained **********************
************** Compensation density forces ***************
*                                                        *
* Element  Atom         Cartesian components (Eh/a)      *
* ------------------------------------------------------ *
*                       x            y            z      *
*                                                        *
*    Co      1      0.00016488   0.00016371   0.00016539 *
*    Co      2      0.05377237   0.00009903  -0.03308128 *
*    Co      3      0.05363354   0.00009516   0.03318227 *
*    Co      4     -0.05379870   0.00010531  -0.03322075 *
*    Co      5     -0.05366184   0.00010142   0.03333042 *
*    Co      6     -0.03308215   0.05377235   0.00010026 *
*    Co      7      0.03318280   0.05363414   0.00009639 *
*    Co      8     -0.03322023  -0.05379809   0.00010653 *
*    Co      9      0.03332954  -0.05366183   0.00010263 *
*    Co     10      0.00009989  -0.03308157   0.05377123 *
*    Co     11      0.00009601   0.03318138   0.05363442 *
*    Co     12      0.00010617  -0.03322165  -0.05379782 *
*    Co     13      0.00010227   0.03333011  -0.05366296 *
*                                                        *
**********************************************************
TOTAL:              0.00072455   0.00071947   0.00072674
 
********************* Unconstrained **********************
*************** Non-local potential forces ***************
*                                                        *
* Element  Atom         Cartesian components (Eh/a)      *
* ------------------------------------------------------ *
*                       x            y            z      *
*                                                        *
*    Co      1     -0.00017489  -0.00017271  -0.00017582 *
*    Co      2      0.10618254  -0.00008083  -0.06548881 *
*    Co      3      0.10626939  -0.00008033   0.06538983 *
*    Co      4     -0.10620694  -0.00008166  -0.06539077 *
*    Co      5     -0.10629069  -0.00008115   0.06528852 *
*    Co      6     -0.06548787   0.10618274  -0.00008232 *
*    Co      7      0.06538938   0.10626899  -0.00008182 *
*    Co      8     -0.06539121  -0.10620732  -0.00008315 *
*    Co      9      0.06528948  -0.10629049  -0.00008263 *
*    Co     10     -0.00008187  -0.06548826   0.10618355 *
*    Co     11     -0.00008137   0.06539097   0.10626844 *
*    Co     12     -0.00008270  -0.06538962  -0.10620788 *
*    Co     13     -0.00008219   0.06528909  -0.10628968 *
*                                                        *
**********************************************************
TOTAL:             -0.00074893  -0.00074057  -0.00075253
 
********************* Unconstrained **********************
************ NGWF non self-consistent forces *************
*                                                        *
* Element  Atom         Cartesian components (Eh/a)      *
* ------------------------------------------------------ *
*                       x            y            z      *
*                                                        *
*    Co      1      0.00040621   0.00040155   0.00040819 *
*    Co      2      0.00228277   0.00021921  -0.00095372 *
*    Co      3      0.00205048   0.00021961   0.00125049 *
*    Co      4     -0.00223812   0.00021855  -0.00120455 *
*    Co      5     -0.00199756   0.00021899   0.00149667 *
*    Co      6     -0.00095601   0.00228207   0.00022301 *
*    Co      7      0.00125135   0.00205113   0.00022341 *
*    Co      8     -0.00120367  -0.00223750   0.00022234 *
*    Co      9      0.00149436  -0.00199828   0.00022278 *
*    Co     10      0.00022188  -0.00095543   0.00228055 *
*    Co     11      0.00022227   0.00124743   0.00205277 *
*    Co     12      0.00022121  -0.00120761  -0.00223586 *
*    Co     13      0.00022165   0.00149495  -0.00199980 *
*                                                        *
**********************************************************
TOTAL:              0.00197685   0.00195468   0.00198628
 
********************* Unconstrained **********************
********************** NLCC forces ***********************
*                                                        *
* Element  Atom         Cartesian components (Eh/a)      *
* ------------------------------------------------------ *
*                       x            y            z      *
*                                                        *
*    Co      1     -0.00000000  -0.00000000  -0.00000000 *
*    Co      2     -0.00000000  -0.00000000   0.00000000 *
*    Co      3     -0.00000000  -0.00000000  -0.00000000 *
*    Co      4      0.00000000  -0.00000000   0.00000000 *
*    Co      5      0.00000000  -0.00000000  -0.00000000 *
*    Co      6      0.00000000  -0.00000000  -0.00000000 *
*    Co      7     -0.00000000  -0.00000000  -0.00000000 *
*    Co      8      0.00000000   0.00000000  -0.00000000 *
*    Co      9     -0.00000000   0.00000000  -0.00000000 *
*    Co     10     -0.00000000   0.00000000  -0.00000000 *
*    Co     11     -0.00000000  -0.00000000  -0.00000000 *
*    Co     12     -0.00000000   0.00000000   0.00000000 *
*    Co     13     -0.00000000  -0.00000000   0.00000000 *
*                                                        *
**********************************************************
TOTAL:             -0.00000000  -0.00000000  -0.00000000
 
********************* Unconstrained **********************
****** Correction to ensure the total force is zero ******
*                                                        *
* Element  Atom         Cartesian components (Eh/a)      *
* ------------------------------------------------------ *
*                       x            y            z      *
*                                                        *
*    Co      1      0.00000102   0.00000107   0.00000099 *
*    Co      2      0.00000102   0.00000107   0.00000099 *
*    Co      3      0.00000102   0.00000107   0.00000099 *
*    Co      4      0.00000102   0.00000107   0.00000099 *
*    Co      5      0.00000102   0.00000107   0.00000099 *
*    Co      6      0.00000102   0.00000107   0.00000099 *
*    Co      7      0.00000102   0.00000107   0.00000099 *
*    Co      8      0.00000102   0.00000107   0.00000099 *
*    Co      9      0.00000102   0.00000107   0.00000099 *
*    Co     10      0.00000102   0.00000107   0.00000099 *
*    Co     11      0.00000102   0.00000107   0.00000099 *
*    Co     12      0.00000102   0.00000107   0.00000099 *
*    Co     13      0.00000102   0.00000107   0.00000099 *
*                                                        *
**********************************************************
TOTAL:              0.00001321   0.00001394   0.00001286

********************* Unconstrained **********************
************************* Forces *************************
*                                                        *
* Element  Atom         Cartesian components (Eh/a)      *
* ------------------------------------------------------ *
*                       x            y            z      *
*                                                        *
*    Co      1     -0.00000157  -0.00000169  -0.00000152 *
*    Co      2     -0.03007485   0.00001227   0.01881504 *
*    Co      3     -0.03009638   0.00001376  -0.01880647 *
*    Co      4      0.03004268   0.00000986   0.01878526 *
*    Co      5      0.03007352   0.00001137  -0.01878472 *
*    Co      6      0.01881502  -0.03007425   0.00001236 *
*    Co      7     -0.01880648  -0.03009567   0.00001383 *
*    Co      8      0.01878544   0.03004222   0.00000995 *
*    Co      9     -0.01878486   0.03007303   0.00001143 *
*    Co     10      0.00001228   0.01881510  -0.03007445 *
*    Co     11      0.00001377  -0.01880647  -0.03009572 *
*    Co     12      0.00000997   0.01878519   0.03004220 *
*    Co     13      0.00001146  -0.01878472   0.03007280 *
*                                                        *
**********************************************************
* TOTAL:           -0.00000000   0.00000000  -0.00000000 *
**********************************************************
 
 
***********************************************************
********** Summary of Forces (values in Eh/a) *************
*                                                         *
* ---------------------- Minimum ------------------------ *
* Atom:         1, |F|min =    0.00000276                 *
* Components:     Fx|min       Fy|min       Fz|min        *
*              -0.00000157  -0.00000169  -0.00000152      *
*                                                         *
* ---------------------- Maximum ------------------------ *
* Atom:         3, |F|max =    0.03548909                 *
* Components:     Fx|max       Fy|max       Fz|max        *
*              -0.03009638   0.00001376  -0.01880647      *
*                                                         *
* ---------------- Root Mean Square Force --------------- *
*                  |F|rms =    0.03407217                 *
* Components:     Fx|rms       Fy|rms       Fz|rms        *
*               0.01967177   0.01967148   0.01967148      *
***********************************************************
 
 Geometry Optimisation: read_tightbox_ngwfs parameter over-ridden to TRUE
 Geometry Optimisation: read_hamiltonian parameter over-ridden to T

BFGS: continuation file name is "Co_cluster1_nspF.continuation"
 BFGS: finished iteration   0  with enthalpy= -1.902315345564E+003 Eh
  
 +-----------+-----------------+-----------------+------------+-----+ <-- BFGS
 | Parameter |      value      |    tolerance    |    units   | OK? | <-- BFGS
 +-----------+-----------------+-----------------+------------+-----+ <-- BFGS
 |  dE/ion   |   0.000000E+000 |   1.000000E-006 |         Eh | No  | <-- BFGS
 |  |F|max   |   3.548909E-002 |   2.000000E-003 |    Eh/Bohr | No  | <-- BFGS
 |  |dR|max  |   0.000000E+000 |   5.000000E-003 |       Bohr | No  | <-- BFGS
 +-----------+-----------------+-----------------+------------+-----+ <-- BFGS
  

================================================================================
 Starting BFGS iteration    1 ...
================================================================================

 Writing continuation file "Co_cluster1_nspF.continuation" ...done
 Backing up NGWFs to file "Co_cluster1_nspF.tightbox_ngwfs.bfgs_back" ... done
 Backing up Hamiltonian to file "Co_cluster1_nspF.ham.bfgs_back" ... done
  
 +------------+-------------+-------------+-----------------+ <-- min BFGS
 |    Step    |   lambda    |   F.delta   |    enthalpy     | <-- min BFGS
 +------------+-------------+-------------+-----------------+ <-- min BFGS
 |  previous  |    0.000000 |    0.002432 |    -1902.315346 | <-- min BFGS
 +------------+-------------+-------------+-----------------+ <-- min BFGS
  

--------------------------------------------------------------------------------
 BFGS: starting iteration   1 with trial guess (lambda=    1.000000)
--------------------------------------------------------------------------------
Calculating Ewald energy ...             1293.950070 Hartree

============================= Charge Augmentation ==============================
                           Aug box size:   33 x  33 x  33
================================================================================

Reading NGWFs from file "Co_cluster1_nspF.tightbox_ngwfs" ... done

================================= Core Density =================================
               Core den box size:   33 x  33 x  33
================================================================================
Density renormalisation, spin  1 ...
Target Charge:   125.655615733536 ; Input Charge:   130.002612166061
Density renormalisation, spin  2 ...
Target Charge:    95.344384266464 ; Input Charge:    91.002063738889
Density kernel initialisation

################################################################################
###################### NGWF self-consistent optimisation #######################
################################################################################
|ITER|    RMS GRADIENT   |     TOTAL ENERGY    |   step   |     Epredicted      

Reading Hamiltonian from file "Co_cluster1_nspF.ham" ... done
   0     0.00000584394996  -1902.31772534130232   0.175255  -1902.31773814650978        
   1     0.00000638971240  -1902.31774892170483   0.326135  -1902.31777740987218        
   2     0.00000833235039  -1902.31777506236836   0.074392  -1902.31778780005948        
   3     0.00000309710713  -1902.31778628906704   0.066197  -1902.31778764756109        
   4     0.00000365649498  -1902.31778811987442   0.018469  -1902.31778869922823        
   5     0.00000165206563  -1902.31778887221594   0.015878  -1902.31778896493279        
   6     0.00000171043808  -1902.31778892134685   0.005735  -1902.31778895769639        
   7     0.00000116175207  -1902.31778897240360   0.005484  -1902.31778898823836        

================================================================================
           ---------------- ENERGY COMPONENTS (Eh) ----------------
           | Kinetic                    :      151.55886731399252 |
           | Core Hartree               :    -6497.75513035105723 |
           | CoreHart (non-coul chg cor):        0.00000000000000
           | Hartree                    :     2855.24907887345535 |
           | Exchange-correlation       :      -39.25619948388314 |
           | Ewald                      :     1293.95007013702889 |
           | Dij0                       :      418.91981542339545 |
           | Dijhartree                 :      105.06651499519509 |
           | Exc [AE core]              :     -768.58511839282255 |
           | Exc DC [AE core]           :     -275.07197603609194 |
           | Exc [PS core]              :      -33.21345559464677 |
           | Exc DC [PS core]           :      -43.50548419621364 |
           | Exc [Core]                 :     -545.34952823147137 |
           | Total [Sphere]             :      333.96419585188619 |
           | Total                      :    -1902.28911765857697 |
           |------------------------------------------------------|
           | Entropic contribution      :       -0.02867131935409 |
           | Total free energy          :    -1902.31778897793106 |
           --------------------------------------------------------
           Integrated compensation chrg.:      130.64791985023433
           Integrated density           :      220.99999999995111
           Integrated spin density      :       30.30546673662760
           Integrated |spin density|    :       12.24357511156179
           Fermi level of spin Up       :       -0.10063780441302
           Fermi level of spin Down     :       -0.10063780441302
================================================================================

   8     0.00000078035622  -1902.31778897793106  <-- CG                                 

================================= Core Density =================================
               Core den box size:   33 x  33 x  33
================================================================================
 
********************* Unconstrained **********************
********************** Ewald forces **********************
*                                                        *
* Element  Atom         Cartesian components (Eh/a)      *
* ------------------------------------------------------ *
*                       x            y            z      *
*                                                        *
*    Co      1     -0.00010072  -0.00010000  -0.00010100 *
*    Co      2     53.45781764  -0.00000748 -33.24255971 *
*    Co      3     53.45786450  -0.00000786  33.24256529 *
*    Co      4    -53.45775708  -0.00000718 -33.24251330 *
*    Co      5    -53.45780988  -0.00000756  33.24252391 *
*    Co      6    -33.24255955  53.45781702  -0.00000777 *
*    Co      7     33.24256497  53.45786377  -0.00000806 *
*    Co      8    -33.24251350 -53.45775711  -0.00000735 *
*    Co      9     33.24252423 -53.45780962  -0.00000765 *
*    Co     10     -0.00000766 -33.24255995  53.45781770 *
*    Co     11     -0.00000802  33.24256541  53.45786389 *
*    Co     12     -0.00000728 -33.24251331 -53.45775695 *
*    Co     13     -0.00000765  33.24252387 -53.45780902 *
*                                                        *
**********************************************************
TOTAL:              0.00000000  -0.00000000   0.00000000
 
********************* Unconstrained **********************
***************** Local potential forces *****************
*                                                        *
* Element  Atom         Cartesian components (Eh/a)      *
* ------------------------------------------------------ *
*                       x            y            z      *
*                                                        *
*    Co      1     -0.00017978  -0.00017285  -0.00018274 *
*    Co      2    -53.64877836  -0.00015295  33.36008995 *
*    Co      3    -53.64863156  -0.00015463 -33.36031040 *
*    Co      4     53.64870794  -0.00014990  33.36024478 *
*    Co      5     53.64856566  -0.00015159 -33.36046507 *
*    Co      6     33.36009367 -53.64877541  -0.00015975 *
*    Co      7    -33.36031107 -53.64863058  -0.00016154 *
*    Co      8     33.36024395  53.64870734  -0.00015682 *
*    Co      9    -33.36046143  53.64856689  -0.00015862 *
*    Co     10     -0.00015780  33.36009405 -53.64877482 *
*    Co     11     -0.00015948 -33.36030456 -53.64863439 *
*    Co     12     -0.00015475  33.36025068  53.64870350 *
*    Co     13     -0.00015644 -33.36046122  53.64856750 *
*                                                        *
**********************************************************
TOTAL:             -0.00137944  -0.00133474  -0.00139842
 
********************* Unconstrained **********************
************** Compensation density forces ***************
*                                                        *
* Element  Atom         Cartesian components (Eh/a)      *
* ------------------------------------------------------ *
*                       x            y            z      *
*                                                        *
*    Co      1      0.00010504   0.00010159   0.00010651 *
*    Co      2      0.05262268   0.00006405  -0.03236592 *
*    Co      3      0.05253492   0.00006451   0.03243651 *
*    Co      4     -0.05263628   0.00006333  -0.03245838 *
*    Co      5     -0.05254912   0.00006377   0.03252823 *
*    Co      6     -0.03236780   0.05262195   0.00006733 *
*    Co      7      0.03243712   0.05253526   0.00006778 *
*    Co      8     -0.03245777  -0.05263598   0.00006660 *
*    Co      9      0.03252634  -0.05254988   0.00006704 *
*    Co     10      0.00006634  -0.03236753   0.05262100 *
*    Co     11      0.00006680   0.03243384   0.05253680 *
*    Co     12      0.00006562  -0.03246105  -0.05263442 *
*    Co     13      0.00006606   0.03252661  -0.05255081 *
*                                                        *
**********************************************************
TOTAL:              0.00047995   0.00046047   0.00048826
 
********************* Unconstrained **********************
*************** Non-local potential forces ***************
*                                                        *
* Element  Atom         Cartesian components (Eh/a)      *
* ------------------------------------------------------ *
*                       x            y            z      *
*                                                        *
*    Co      1     -0.00016766  -0.00016542  -0.00016861 *
*    Co      2      0.10681244  -0.00007565  -0.06596717 *
*    Co      3      0.10688748  -0.00007622   0.06586986 *
*    Co      4     -0.10684399  -0.00007478  -0.06587983 *
*    Co      5     -0.10691688  -0.00007533   0.06578172 *
*    Co      6     -0.06596615   0.10681259  -0.00007722 *
*    Co      7      0.06586934   0.10688698  -0.00007778 *
*    Co      8     -0.06588035  -0.10684445  -0.00007635 *
*    Co      9      0.06578275  -0.10691671  -0.00007689 *
*    Co     10     -0.00007675  -0.06596665   0.10681358 *
*    Co     11     -0.00007731   0.06587104   0.10688645 *
*    Co     12     -0.00007588  -0.06587864  -0.10684498 *
*    Co     13     -0.00007643   0.06578225  -0.10691572 *
*                                                        *
**********************************************************
TOTAL:             -0.00072937  -0.00072101  -0.00073296
 
********************* Unconstrained **********************
************ NGWF non self-consistent forces *************
*                                                        *
* Element  Atom         Cartesian components (Eh/a)      *
* ------------------------------------------------------ *
*                       x            y            z      *
*                                                        *
*    Co      1      0.00036518   0.00035973   0.00036749 *
*    Co      2      0.00212375   0.00019734  -0.00078307 *
*    Co      3      0.00190814   0.00019945   0.00104870 *
*    Co      4     -0.00208813   0.00019393  -0.00101487 *
*    Co      5     -0.00186866   0.00019607   0.00127508 *
*    Co      6     -0.00078581   0.00212285   0.00020196 *
*    Co      7      0.00104970   0.00190884   0.00020407 *
*    Co      8     -0.00101385  -0.00208747   0.00019855 *
*    Co      9      0.00127230  -0.00186959   0.00020069 *
*    Co     10      0.00020058  -0.00078519   0.00212114 *
*    Co     11      0.00020269   0.00104497   0.00191088 *
*    Co     12      0.00019717  -0.00101859  -0.00208542 *
*    Co     13      0.00019931   0.00127294  -0.00187129 *
*                                                        *
**********************************************************
TOTAL:              0.00176238   0.00173528   0.00177391
 
********************* Unconstrained **********************
********************** NLCC forces ***********************
*                                                        *
* Element  Atom         Cartesian components (Eh/a)      *
* ------------------------------------------------------ *
*                       x            y            z      *
*                                                        *
*    Co      1     -0.00000000  -0.00000000  -0.00000000 *
*    Co      2     -0.00000000  -0.00000000   0.00000000 *
*    Co      3     -0.00000000  -0.00000000  -0.00000000 *
*    Co      4      0.00000000  -0.00000000   0.00000000 *
*    Co      5      0.00000000  -0.00000000  -0.00000000 *
*    Co      6      0.00000000  -0.00000000  -0.00000000 *
*    Co      7     -0.00000000  -0.00000000  -0.00000000 *
*    Co      8      0.00000000   0.00000000  -0.00000000 *
*    Co      9     -0.00000000   0.00000000  -0.00000000 *
*    Co     10     -0.00000000   0.00000000  -0.00000000 *
*    Co     11     -0.00000000  -0.00000000  -0.00000000 *
*    Co     12     -0.00000000   0.00000000   0.00000000 *
*    Co     13     -0.00000000  -0.00000000   0.00000000 *
*                                                        *
**********************************************************
TOTAL:             -0.00000000  -0.00000000  -0.00000000
 
********************* Unconstrained **********************
****** Correction to ensure the total force is zero ******
*                                                        *
* Element  Atom         Cartesian components (Eh/a)      *
* ------------------------------------------------------ *
*                       x            y            z      *
*                                                        *
*    Co      1     -0.00001027  -0.00001077  -0.00001006 *
*    Co      2     -0.00001027  -0.00001077  -0.00001006 *
*    Co      3     -0.00001027  -0.00001077  -0.00001006 *
*    Co      4     -0.00001027  -0.00001077  -0.00001006 *
*    Co      5     -0.00001027  -0.00001077  -0.00001006 *
*    Co      6     -0.00001027  -0.00001077  -0.00001006 *
*    Co      7     -0.00001027  -0.00001077  -0.00001006 *
*    Co      8     -0.00001027  -0.00001077  -0.00001006 *
*    Co      9     -0.00001027  -0.00001077  -0.00001006 *
*    Co     10     -0.00001027  -0.00001077  -0.00001006 *
*    Co     11     -0.00001027  -0.00001077  -0.00001006 *
*    Co     12     -0.00001027  -0.00001077  -0.00001006 *
*    Co     13     -0.00001027  -0.00001077  -0.00001006 *
*                                                        *
**********************************************************
TOTAL:             -0.00013351  -0.00013999  -0.00013079

********************* Unconstrained **********************
************************* Forces *************************
*                                                        *
* Element  Atom         Cartesian components (Eh/a)      *
* ------------------------------------------------------ *
*                       x            y            z      *
*                                                        *
*    Co      1      0.00001179   0.00001227   0.00001159 *
*    Co      2     -0.02941212   0.00001453   0.01840402 *
*    Co      3     -0.02944680   0.00001448  -0.01840011 *
*    Co      4      0.02937220   0.00001462   0.01836835 *
*    Co      5      0.02941085   0.00001458  -0.01836620 *
*    Co      6      0.01840410  -0.02941177   0.00001449 *
*    Co      7     -0.01840022  -0.02944651   0.00001442 *
*    Co      8      0.01836822   0.02937157   0.00001457 *
*    Co      9     -0.01836608   0.02941032   0.00001450 *
*    Co     10      0.00001445   0.01840396  -0.02941147 *
*    Co     11      0.00001441  -0.01840006  -0.02944643 *
*    Co     12      0.00001462   0.01836832   0.02937167 *
*    Co     13      0.00001458  -0.01836632   0.02941059 *
*                                                        *
**********************************************************
* TOTAL:           -0.00000000  -0.00000000   0.00000000 *
**********************************************************
 
 
***********************************************************
********** Summary of Forces (values in Eh/a) *************
*                                                         *
* ---------------------- Minimum ------------------------ *
* Atom:         1, |F|min =    0.00002059                 *
* Components:     Fx|min       Fy|min       Fz|min        *
*               0.00001179   0.00001227   0.00001159      *
*                                                         *
* ---------------------- Maximum ------------------------ *
* Atom:         3, |F|max =    0.03472287                 *
* Components:     Fx|max       Fy|max       Fz|max        *
*              -0.02944680   0.00001448  -0.01840011      *
*                                                         *
* ---------------- Root Mean Square Force --------------- *
*                  |F|rms =    0.03332298                 *
* Components:     Fx|rms       Fy|rms       Fz|rms        *
*               0.01923917   0.01923897   0.01923896      *
***********************************************************
 
  
 +------------+-------------+-------------+-----------------+ <-- min BFGS
 |    Step    |   lambda    |   F.delta   |    enthalpy     | <-- min BFGS
 +------------+-------------+-------------+-----------------+ <-- min BFGS
 |  previous  |    0.000000 |    0.002432 |    -1902.315346 | <-- min BFGS
 | trial step |    1.000000 |    0.002379 |    -1902.317789 | <-- min BFGS
 +------------+-------------+-------------+-----------------+ <-- min BFGS
  
 Backing up NGWFs to file "Co_cluster1_nspF.tightbox_ngwfs.bfgs_back" ... done
 Backing up Hamiltonian to file "Co_cluster1_nspF.ham.bfgs_back" ... done

--------------------------------------------------------------------------------
 BFGS: improving iteration   1 with line minimization (lambda=   45.478758)
--------------------------------------------------------------------------------
Calculating Ewald energy ...             1497.938530 Hartree

============================= Charge Augmentation ==============================
                           Aug box size:   33 x  33 x  33
================================================================================

Reading NGWFs from file "Co_cluster1_nspF.tightbox_ngwfs" ... done

================================= Core Density =================================
               Core den box size:   33 x  33 x  33
================================================================================
Density renormalisation, spin  1 ...
Target Charge:   125.652733368314 ; Input Charge:   130.003055288276
Density renormalisation, spin  2 ...
Target Charge:    95.347266631686 ; Input Charge:    91.002408902130
Density kernel initialisation

################################################################################
###################### NGWF self-consistent optimisation #######################
################################################################################
|ITER|    RMS GRADIENT   |     TOTAL ENERGY    |   step   |     Epredicted      

Reading Hamiltonian from file "Co_cluster1_nspF.ham" ... done
   0     0.00015008336395  -1902.34609992364403   0.664710  -1902.37813319616407        
   1     0.00007712101077  -1902.37838978036552   0.365482  -1902.38195106097669        
   2     0.00003563590416  -1902.38545742176325   0.527520  -1902.38699432274416        
   3     0.00002062623989  -1902.38862898187676   0.400079  -1902.38891954580686        
   4     0.00001083194711  -1902.38946028788291   0.390845  -1902.38955839974915        
   5     0.00000477752883  -1902.38980980347969   0.620074  -1902.38984008334864        
   6     0.00000836990701  -1902.38990273069112   0.239704  -1902.38993865761995        
   7     0.00000225180030  -1902.38995792608716   0.221727  -1902.38996033145668        
   8     0.00000418007053  -1902.38997055841605   0.323192  -1902.38998264022848        
   9     0.00000392194938  -1902.38998161294285   1.167518  -1902.39002003420023        
  10     0.00000852199591  -1902.38996065039760   1.488564  -1902.39019193909326        
  11     0.00000836021453  -1902.38996969153982   0.000377  -1902.38996969198024        
  12     0.00000833986561  -1902.38997085291749   0.048102  -1902.38997807270471        
  13     0.00000504978291  -1902.38998129065635   0.039124  -1902.38998410996942        
  14     0.00000156139192  -1902.38998596298461   0.012117  -1902.38998602618472        

================================================================================
           ---------------- ENERGY COMPONENTS (Eh) ----------------
           | Kinetic                    :      152.51068266839121 |
           | Core Hartree               :    -6905.51578585240895 |
           | CoreHart (non-coul chg cor):        0.00000000000000
           | Hartree                    :     3058.63401093533957 |
           | Exchange-correlation       :      -39.70733824233459 |
           | Ewald                      :     1497.93853017110541 |
           | Dij0                       :      418.70228187787018 |
           | Dijhartree                 :      105.05200907962507 |
           | Exc [AE core]              :     -768.90891490337185 |
           | Exc DC [AE core]           :     -275.50965794979055 |
           | Exc [PS core]              :      -33.58953748888220 |
           | Exc DC [PS core]           :      -44.01249781647620 |
           | Exc [Core]                 :     -545.34952823147137 |
           | Total [Sphere]             :      333.78444177447693 |
           | Total                      :    -1902.35545854543034 |
           |------------------------------------------------------|
           | Entropic contribution      :       -0.03452877350219 |
           | Total free energy          :    -1902.38998731893253 |
           --------------------------------------------------------
           Integrated compensation chrg.:      130.61294297531654
           Integrated density           :      221.00000000000938
           Integrated spin density      :       28.66889461415475
           Integrated |spin density|    :       11.25024338371140
           Fermi level of spin Up       :       -0.10063230005880
           Fermi level of spin Down     :       -0.10063230005880
================================================================================

  15     0.00000069690829  -1902.38998731893253  <-- CG                                 

================================= Core Density =================================
               Core den box size:   33 x  33 x  33
================================================================================
 
********************* Unconstrained **********************
********************** Ewald forces **********************
*                                                        *
* Element  Atom         Cartesian components (Eh/a)      *
* ------------------------------------------------------ *
*                       x            y            z      *
*                                                        *
*    Co      1     -0.00607664  -0.00603833  -0.00609156 *
*    Co      2     60.33431009  -0.00061922 -37.44835716 *
*    Co      3     60.33701989  -0.00063861  37.44887081 *
*    Co      4    -60.33050593  -0.00060334 -37.44543629 *
*    Co      5    -60.33352536  -0.00062327  37.44621637 *
*    Co      6    -37.44834842  60.33427777  -0.00063473 *
*    Co      7     37.44885315  60.33698179  -0.00064934 *
*    Co      8    -37.44544684 -60.33050837  -0.00061273 *
*    Co      9     37.44623319 -60.33351236  -0.00062788 *
*    Co     10     -0.00062884 -37.44837011  60.33431419 *
*    Co     11     -0.00064736  37.44887697  60.33698832 *
*    Co     12     -0.00060894 -37.44543658 -60.33049968 *
*    Co     13     -0.00062799  37.44621367 -60.33348031 *
*                                                        *
**********************************************************
TOTAL:              0.00000000   0.00000000  -0.00000000
 
********************* Unconstrained **********************
***************** Local potential forces *****************
*                                                        *
* Element  Atom         Cartesian components (Eh/a)      *
* ------------------------------------------------------ *
*                       x            y            z      *
*                                                        *
*    Co      1      0.00648266   0.00652672   0.00646480 *
*    Co      2    -60.47640091   0.00095176  37.53702002 *
*    Co      3    -60.47962737   0.00097805 -37.53734559 *
*    Co      4     60.47223187   0.00092465  37.53354311 *
*    Co      5     60.47575682   0.00095149 -37.53414103 *
*    Co      6     37.53707131 -60.47638635   0.00089727 *
*    Co      7    -37.53737539 -60.47964985   0.00091838 *
*    Co      8     37.53350715  60.47217461   0.00086428 *
*    Co      9    -37.53409973  60.47572685   0.00088593 *
*    Co     10      0.00091087  37.53703271 -60.47631553 *
*    Co     11      0.00093644 -37.53730813 -60.47965473 *
*    Co     12      0.00088053  37.53358562  60.47216779 *
*    Co     13      0.00090664 -37.53413762  60.47580195 *
*                                                        *
**********************************************************
TOTAL:              0.00118088   0.00137051   0.00110667
 
********************* Unconstrained **********************
************** Compensation density forces ***************
*                                                        *
* Element  Atom         Cartesian components (Eh/a)      *
* ------------------------------------------------------ *
*                       x            y            z      *
*                                                        *
*    Co      1     -0.00001935  -0.00003357  -0.00001404 *
*    Co      2      0.00890057  -0.00012768  -0.00523799 *
*    Co      3      0.00902854  -0.00013149   0.00511822 *
*    Co      4     -0.00889629  -0.00012136  -0.00510302 *
*    Co      5     -0.00901515  -0.00012516   0.00498468 *
*    Co      6     -0.00525866   0.00889998  -0.00009726 *
*    Co      7      0.00512951   0.00904034  -0.00010086 *
*    Co      8     -0.00509200  -0.00888473  -0.00009107 *
*    Co      9      0.00496503  -0.00901606  -0.00009466 *
*    Co     10     -0.00010559  -0.00524715   0.00887704 *
*    Co     11     -0.00010953   0.00509563   0.00904847 *
*    Co     12     -0.00009980  -0.00512446  -0.00887707 *
*    Co     13     -0.00010372   0.00497468  -0.00903934 *
*                                                        *
**********************************************************
TOTAL:             -0.00067644  -0.00080103  -0.00062689
 
********************* Unconstrained **********************
*************** Non-local potential forces ***************
*                                                        *
* Element  Atom         Cartesian components (Eh/a)      *
* ------------------------------------------------------ *
*                       x            y            z      *
*                                                        *
*    Co      1      0.00023564   0.00028075   0.00021755 *
*    Co      2      0.12564800   0.00015518  -0.07889426 *
*    Co      3      0.12543835   0.00015763   0.07901192 *
*    Co      4     -0.12575620   0.00015091  -0.07911288 *
*    Co      5     -0.12555176   0.00015335   0.07922810 *
*    Co      6     -0.07886784   0.12564691   0.00011893 *
*    Co      7      0.07899583   0.12542020   0.00012131 *
*    Co      8     -0.07912884  -0.12577399   0.00011478 *
*    Co      9      0.07925416  -0.12555250   0.00011714 *
*    Co     10      0.00012923  -0.07888537   0.12568110 *
*    Co     11      0.00013173   0.07903858   0.12541216 *
*    Co     12      0.00012519  -0.07908688  -0.12578154 *
*    Co     13      0.00012768   0.07923764  -0.12551787 *
*                                                        *
**********************************************************
TOTAL:              0.00078117   0.00094242   0.00071645
 
********************* Unconstrained **********************
************ NGWF non self-consistent forces *************
*                                                        *
* Element  Atom         Cartesian components (Eh/a)      *
* ------------------------------------------------------ *
*                       x            y            z      *
*                                                        *
*    Co      1     -0.00066518  -0.00078226  -0.00061804 *
*    Co      2      0.00041299  -0.00035285  -0.00042643 *
*    Co      3      0.00101498  -0.00035824   0.00024144 *
*    Co      4      0.00005815  -0.00034393   0.00020880 *
*    Co      5     -0.00053979  -0.00034934  -0.00038625 *
*    Co      6     -0.00049162   0.00043198  -0.00027804 *
*    Co      7      0.00029335   0.00108146  -0.00028320 *
*    Co      8      0.00026016   0.00012428  -0.00026932 *
*    Co      9     -0.00045051  -0.00052084  -0.00027450 *
*    Co     10     -0.00029920  -0.00042559   0.00031367 *
*    Co     11     -0.00030467   0.00019425   0.00107972 *
*    Co     12     -0.00029080   0.00016259   0.00012238 *
*    Co     13     -0.00029629  -0.00038624  -0.00063910 *
*                                                        *
**********************************************************
TOTAL:             -0.00129841  -0.00152472  -0.00120886
 
********************* Unconstrained **********************
********************** NLCC forces ***********************
*                                                        *
* Element  Atom         Cartesian components (Eh/a)      *
* ------------------------------------------------------ *
*                       x            y            z      *
*                                                        *
*    Co      1      0.00000000   0.00000000   0.00000000 *
*    Co      2     -0.00000000   0.00000000   0.00000000 *
*    Co      3     -0.00000000   0.00000000  -0.00000000 *
*    Co      4      0.00000000   0.00000000   0.00000000 *
*    Co      5      0.00000000   0.00000000  -0.00000000 *
*    Co      6      0.00000000  -0.00000000   0.00000000 *
*    Co      7     -0.00000000  -0.00000000   0.00000000 *
*    Co      8      0.00000000   0.00000000   0.00000000 *
*    Co      9     -0.00000000   0.00000000   0.00000000 *
*    Co     10      0.00000000   0.00000000  -0.00000000 *
*    Co     11      0.00000000  -0.00000000  -0.00000000 *
*    Co     12      0.00000000   0.00000000   0.00000000 *
*    Co     13      0.00000000  -0.00000000   0.00000000 *
*                                                        *
**********************************************************
TOTAL:             -0.00000000  -0.00000000  -0.00000000
 
********************* Unconstrained **********************
****** Correction to ensure the total force is zero ******
*                                                        *
* Element  Atom         Cartesian components (Eh/a)      *
* ------------------------------------------------------ *
*                       x            y            z      *
*                                                        *
*    Co      1      0.00000098   0.00000099   0.00000097 *
*    Co      2      0.00000098   0.00000099   0.00000097 *
*    Co      3      0.00000098   0.00000099   0.00000097 *
*    Co      4      0.00000098   0.00000099   0.00000097 *
*    Co      5      0.00000098   0.00000099   0.00000097 *
*    Co      6      0.00000098   0.00000099   0.00000097 *
*    Co      7      0.00000098   0.00000099   0.00000097 *
*    Co      8      0.00000098   0.00000099   0.00000097 *
*    Co      9      0.00000098   0.00000099   0.00000097 *
*    Co     10      0.00000098   0.00000099   0.00000097 *
*    Co     11      0.00000098   0.00000099   0.00000097 *
*    Co     12      0.00000098   0.00000099   0.00000097 *
*    Co     13      0.00000098   0.00000099   0.00000097 *
*                                                        *
**********************************************************
TOTAL:              0.00001280   0.00001282   0.00001263

********************* Unconstrained **********************
************************* Forces *************************
*                                                        *
* Element  Atom         Cartesian components (Eh/a)      *
* ------------------------------------------------------ *
*                       x            y            z      *
*                                                        *
*    Co      1     -0.00004189  -0.00004570  -0.00004030 *
*    Co      2     -0.00712828   0.00000817   0.00410515 *
*    Co      3     -0.00712463   0.00000832  -0.00410223 *
*    Co      4      0.00713259   0.00000791   0.00410070 *
*    Co      5      0.00712574   0.00000805  -0.00409716 *
*    Co      6      0.00410577  -0.00712873   0.00000714 *
*    Co      7     -0.00410255  -0.00712508   0.00000726 *
*    Co      8      0.00410061   0.00713279   0.00000691 *
*    Co      9     -0.00409688   0.00712608   0.00000701 *
*    Co     10      0.00000745   0.00410548  -0.00712856 *
*    Co     11      0.00000759  -0.00410170  -0.00712509 *
*    Co     12      0.00000717   0.00410127   0.00713285 *
*    Co     13      0.00000730  -0.00409688   0.00712631 *
*                                                        *
**********************************************************
* TOTAL:           -0.00000000   0.00000000   0.00000000 *
**********************************************************
 
 
***********************************************************
********** Summary of Forces (values in Eh/a) *************
*                                                         *
* ---------------------- Minimum ------------------------ *
* Atom:         1, |F|min =    0.00007394                 *
* Components:     Fx|min       Fy|min       Fz|min        *
*              -0.00004189  -0.00004570  -0.00004030      *
*                                                         *
* ---------------------- Maximum ------------------------ *
* Atom:        12, |F|max =    0.00822789                 *
* Components:     Fx|max       Fy|max       Fz|max        *
*               0.00000717   0.00410127   0.00713285      *
*                                                         *
* ---------------- Root Mean Square Force --------------- *
*                  |F|rms =    0.00790118                 *
* Components:     Fx|rms       Fy|rms       Fz|rms        *
*               0.00456165   0.00456179   0.00456180      *
***********************************************************
 
  
 +------------+-------------+-------------+-----------------+ <-- min BFGS
 |    Step    |   lambda    |   F.delta   |    enthalpy     | <-- min BFGS
 +------------+-------------+-------------+-----------------+ <-- min BFGS
 |  previous  |    0.000000 |    0.002432 |    -1902.315346 | <-- min BFGS
 | trial step |    1.000000 |    0.002379 |    -1902.317789 | <-- min BFGS
 |  line step |   45.478758 |    0.000564 |    -1902.389987 | <-- min BFGS
 +------------+-------------+-------------+-----------------+ <-- min BFGS
  
 BFGS: finished iteration   1  with enthalpy= -1.902389987319E+003 Eh
  
 +-----------+-----------------+-----------------+------------+-----+ <-- BFGS
 | Parameter |      value      |    tolerance    |    units   | OK? | <-- BFGS
 +-----------+-----------------+-----------------+------------+-----+ <-- BFGS
 |  dE/ion   |   5.741673E-003 |   1.000000E-006 |         Eh | No  | <-- BFGS
 |  |F|max   |   8.227887E-003 |   2.000000E-003 |    Eh/Bohr | No  | <-- BFGS
 |  |dR|max  |   2.601095E-001 |   5.000000E-003 |       Bohr | No  | <-- BFGS
 +-----------+-----------------+-----------------+------------+-----+ <-- BFGS
  

================================================================================
 Starting BFGS iteration    2 ...
================================================================================

 Writing continuation file "Co_cluster1_nspF.continuation" ...done
 Backing up NGWFs to file "Co_cluster1_nspF.tightbox_ngwfs.bfgs_back" ... done
 Backing up Hamiltonian to file "Co_cluster1_nspF.ham.bfgs_back" ... done
  
 +------------+-------------+-------------+-----------------+ <-- min BFGS
 |    Step    |   lambda    |   F.delta   |    enthalpy     | <-- min BFGS
 +------------+-------------+-------------+-----------------+ <-- min BFGS
 |  previous  |    0.000000 |    0.007732 |    -1902.389987 | <-- min BFGS
 +------------+-------------+-------------+-----------------+ <-- min BFGS
  

--------------------------------------------------------------------------------
 BFGS: starting iteration   2 with trial guess (lambda=    1.000000)
--------------------------------------------------------------------------------
Calculating Ewald energy ...             1566.038463 Hartree

============================= Charge Augmentation ==============================
                           Aug box size:   33 x  33 x  33
================================================================================

Reading NGWFs from file "Co_cluster1_nspF.tightbox_ngwfs" ... done

================================= Core Density =================================
               Core den box size:   33 x  33 x  33
================================================================================
Density renormalisation, spin  1 ...
Target Charge:   124.834447307077 ; Input Charge:   130.002894934669
Density renormalisation, spin  2 ...
Target Charge:    96.165552692923 ; Input Charge:    91.002285649815
Density kernel initialisation

################################################################################
###################### NGWF self-consistent optimisation #######################
################################################################################
|ITER|    RMS GRADIENT   |     TOTAL ENERGY    |   step   |     Epredicted      

Reading Hamiltonian from file "Co_cluster1_nspF.ham" ... done
   0     0.00005906353914  -1902.38741598300703   0.569201  -1902.39166422007611        
   1     0.00003058585549  -1902.39135765015976   0.327880  -1902.39191481969465        
   2     0.00000998505866  -1902.39210962613583   0.340150  -1902.39218667879004        
   3     0.00000318620290  -1902.39224922075937   0.140415  -1902.39225196362804        
   4     0.00000271183744  -1902.39229311149757   0.329188  -1902.39229829084525        
   5     0.00000498903845  -1902.39232907615701   0.293787  -1902.39234472095973        
   6     0.00000357178094  -1902.39237195025134   1.193429  -1902.39240452420108        
   7     0.00000848575531  -1902.39236909409283   1.207947  -1902.39255518832465        
   8     0.00000615975977  -1902.39242890998707   0.089293  -1902.39243072086265        
   9     0.00000393581676  -1902.39243428791428   0.067309  -1902.39243638848757        
  10     0.00000208429007  -1902.39244163456578   0.062900  -1902.39244221918216        
  11     0.00000221834792  -1902.39244526902985   0.015803  -1902.39244544402027        

================================================================================
           ---------------- ENERGY COMPONENTS (Eh) ----------------
           | Kinetic                    :      152.98237615770475 |
           | Core Hartree               :    -7042.20307199514809 |
           | CoreHart (non-coul chg cor):        0.00000000000000
           | Hartree                    :     3126.90851782843947 |
           | Exchange-correlation       :      -39.86882847036753 |
           | Ewald                      :     1566.03846263600781 |
           | Dij0                       :      418.73485032809697 |
           | Dijhartree                 :      105.02103379266330 |
           | Exc [AE core]              :     -769.09772817444127 |
           | Exc DC [AE core]           :     -275.76347946031206 |
           | Exc [PS core]              :      -33.78036945374404 |
           | Exc DC [PS core]           :      -44.27225803942189 |
           | Exc [Core]                 :     -545.34952823147137 |
           | Total [Sphere]             :      333.78805363153435 |
           | Total                      :    -1902.35449021182967 |
           |------------------------------------------------------|
           | Entropic contribution      :       -0.03795777965252 |
           | Total free energy          :    -1902.39244799148219 |
           --------------------------------------------------------
           Integrated compensation chrg.:      130.62197083243456
           Integrated density           :      220.99999999984564
           Integrated spin density      :       27.50396327680912
           Integrated |spin density|    :       10.51010091210254
           Fermi level of spin Up       :       -0.09926611171597
           Fermi level of spin Down     :       -0.09926611171597
================================================================================

  12     0.00000079415244  -1902.39244799148219  <-- CG                                 

================================= Core Density =================================
               Core den box size:   33 x  33 x  33
================================================================================
 
********************* Unconstrained **********************
********************** Ewald forces **********************
*                                                        *
* Element  Atom         Cartesian components (Eh/a)      *
* ------------------------------------------------------ *
*                       x            y            z      *
*                                                        *
*    Co      1     -0.00831614  -0.00826746  -0.00833514 *
*    Co      2     62.69430294  -0.00080663 -38.89363651 *
*    Co      3     62.69792419  -0.00083355  38.89433945 *
*    Co      4    -62.68917592  -0.00078348 -38.88974635 *
*    Co      5    -62.69321299  -0.00081115  38.89080877 *
*    Co      6    -38.89362139  62.69425887  -0.00083141 *
*    Co      7     38.89431241  62.69786966  -0.00085197 *
*    Co      8    -38.88976415 -62.68918320  -0.00079992 *
*    Co      9     38.89083539 -62.69319683  -0.00082122 *
*    Co     10     -0.00082231 -38.89365507  62.69431440 *
*    Co     11     -0.00084812  38.89434964  62.69787867 *
*    Co     12     -0.00079368 -38.88974482 -62.68917140 *
*    Co     13     -0.00082023  38.89080403 -62.69314738 *
*                                                        *
**********************************************************
TOTAL:              0.00000000   0.00000000   0.00000000
 
********************* Unconstrained **********************
***************** Local potential forces *****************
*                                                        *
* Element  Atom         Cartesian components (Eh/a)      *
* ------------------------------------------------------ *
*                       x            y            z      *
*                                                        *
*    Co      1      0.00783194   0.00771639   0.00787886 *
*    Co      2    -62.81700385   0.00045203  38.96907822 *
*    Co      3    -62.82029775   0.00047971 -38.97012919 *
*    Co      4     62.81185265   0.00042795  38.96554774 *
*    Co      5     62.81555951   0.00045640 -38.96695763 *
*    Co      6     38.96902344 -62.81698203   0.00055046 *
*    Co      7    -38.97009317 -62.82024571   0.00057174 *
*    Co      8     38.96557349  62.81185711   0.00051802 *
*    Co      9    -38.96702299  62.81552090   0.00054006 *
*    Co     10      0.00051961  38.96905449 -62.81704338 *
*    Co     11      0.00054631 -38.97020158 -62.82021314 *
*    Co     12      0.00049012  38.96548400  62.81188658 *
*    Co     13      0.00051756 -38.96699542  62.81546526 *
*                                                        *
**********************************************************
TOTAL:             -0.00250314  -0.00297576  -0.00230641
 
********************* Unconstrained **********************
************** Compensation density forces ***************
*                                                        *
* Element  Atom         Cartesian components (Eh/a)      *
* ------------------------------------------------------ *
*                       x            y            z      *
*                                                        *
*    Co      1      0.00029221   0.00032666   0.00027780 *
*    Co      2     -0.00710577   0.00016299   0.00533739 *
*    Co      3     -0.00732094   0.00016224  -0.00522633 *
*    Co      4      0.00700039   0.00016423   0.00510383 *
*    Co      5      0.00721942   0.00016348  -0.00499337 *
*    Co      6      0.00535619  -0.00710249   0.00013399 *
*    Co      7     -0.00523564  -0.00732952   0.00013324 *
*    Co      8      0.00509454   0.00699174   0.00013520 *
*    Co      9     -0.00497430   0.00722232   0.00013446 *
*    Co     10      0.00014259   0.00534796  -0.00708451 *
*    Co     11      0.00014180  -0.00520442  -0.00733967 *
*    Co     12      0.00014376   0.00512620   0.00698147 *
*    Co     13      0.00014298  -0.00498311   0.00724015 *
*                                                        *
**********************************************************
TOTAL:              0.00089723   0.00104826   0.00083366
 
********************* Unconstrained **********************
*************** Non-local potential forces ***************
*                                                        *
* Element  Atom         Cartesian components (Eh/a)      *
* ------------------------------------------------------ *
*                       x            y            z      *
*                                                        *
*    Co      1     -0.00006073  -0.00006602  -0.00005853 *
*    Co      2      0.13505441   0.00000985  -0.08525327 *
*    Co      3      0.13509523   0.00001038   0.08529746 *
*    Co      4     -0.13495678   0.00000863  -0.08520548 *
[...]
* ------------------------------------------------------ *
*                       x            y            z      *
*                                                        *
*    Co      1     -0.00688761  -0.00675556  -0.00694978 *
*    Co      2     61.99669291  -0.00053544 -38.46726817 *
*    Co      3     61.99939638  -0.00056272  38.46787951 *
*    Co      4    -61.99269987  -0.00050993 -38.46438296 *
*    Co      5    -61.99577024  -0.00053784  38.46531884 *
*    Co      6    -38.46721632  61.99663022  -0.00058896 *
*    Co      7     38.46781404  61.99928636  -0.00060994 *
*    Co      8    -38.46443517 -61.99276482  -0.00055590 *
*    Co      9     38.46537735 -61.99577418  -0.00057751 *
*    Co     10     -0.00056997 -38.46730815  61.99677888 *
*    Co     11     -0.00059582  38.46790541  61.99931738 *
*    Co     12     -0.00053959 -38.46436582 -61.99273038 *
*    Co     13     -0.00056608  38.46529247 -61.99563101 *
*                                                        *
**********************************************************
TOTAL:              0.00000000   0.00000000   0.00000000
 
********************* Unconstrained **********************
***************** Local potential forces *****************
*                                                        *
* Element  Atom         Cartesian components (Eh/a)      *
* ------------------------------------------------------ *
*                       x            y            z      *
*                                                        *
*    Co      1      0.00687313   0.00675027   0.00692423 *
*    Co      2    -62.12963380   0.00056967  38.54948880 *
*    Co      3    -62.13230675   0.00059797 -38.55001942 *
*    Co      4     62.12575434   0.00054290  38.54663163 *
*    Co      5     62.12879170   0.00057206 -38.54748825 *
*    Co      6     38.54944035 -62.12956934   0.00061702 *
*    Co      7    -38.54995474 -62.13220137   0.00063933 *
*    Co      8     38.54668289  62.12581466   0.00058225 *
*    Co      9    -38.54754182  62.12879696   0.00060544 *
*    Co     10      0.00060192  38.54952882 -62.12971202 *
*    Co     11      0.00062880 -38.55004056 -62.13223139 *
*    Co     12      0.00056968  38.54662073  62.12577942 *
*    Co     13      0.00059741 -38.54746253  62.12865822 *
*                                                        *
**********************************************************
TOTAL:              0.00050310   0.00052024   0.00047526
 
********************* Unconstrained **********************
************** Compensation density forces ***************
*                                                        *
* Element  Atom         Cartesian components (Eh/a)      *
* ------------------------------------------------------ *
*                       x            y            z      *
*                                                        *
*    Co      1      0.00008324   0.00007241   0.00009700 *
*    Co      2      0.00069932   0.00002215   0.00039978 *
*    Co      3      0.00063448   0.00002113  -0.00039172 *
*    Co      4     -0.00076380   0.00002364   0.00034198 *
*    Co      5     -0.00069446   0.00002255  -0.00033378 *
*    Co      6      0.00039335   0.00069669   0.00003206 *
*    Co      7     -0.00039231   0.00063884   0.00003083 *
*    Co      8      0.00034082  -0.00076021   0.00003374 *
*    Co      9     -0.00034027  -0.00069777   0.00003245 *
*    Co     10      0.00002587   0.00039732   0.00069340 *
*    Co     11      0.00002494  -0.00040087   0.00064095 *
*    Co     12      0.00002782   0.00033233  -0.00075724 *
*    Co     13      0.00002681  -0.00033618  -0.00070037 *
*                                                        *
**********************************************************
TOTAL:              0.00006580   0.00003201   0.00011908
 
********************* Unconstrained **********************
*************** Non-local potential forces ***************
*                                                        *
* Element  Atom         Cartesian components (Eh/a)      *
* ------------------------------------------------------ *
*                       x            y            z      *
*                                                        *
*    Co      1     -0.00004130  -0.00003774  -0.00004539 *
*    Co      2      0.13018888  -0.00000793  -0.08220505 *
*    Co      3      0.13019215  -0.00000777   0.08218715 *
*    Co      4     -0.13018319  -0.00000860  -0.08220188 *
*    Co      5     -0.13019646  -0.00000834   0.08218843 *
*    Co      6     -0.08220242   0.13018979  -0.00001182 *
*    Co      7      0.08218917   0.13019356  -0.00001155 *
*    Co      8     -0.08219955  -0.13018120  -0.00001251 *
*    Co      9      0.08219099  -0.13019499  -0.00001214 *
*    Co     10     -0.00000943  -0.08220129   0.13018569 *
*    Co     11     -0.00000929   0.08219102   0.13018938 *
*    Co     12     -0.00001022  -0.08219799  -0.13018523 *
*    Co     13     -0.00000998   0.08219249  -0.13019883 *
*                                                        *
**********************************************************
TOTAL:             -0.00010067  -0.00007900  -0.00013376
 
********************* Unconstrained **********************
************ NGWF non self-consistent forces *************
*                                                        *
* Element  Atom         Cartesian components (Eh/a)      *
* ------------------------------------------------------ *
*                       x            y            z      *
*                                                        *
*    Co      1     -0.00004946  -0.00004910  -0.00005006 *
*    Co      2      0.00177296  -0.00005097  -0.00046596 *
*    Co      3      0.00183863  -0.00005074   0.00040161 *
*    Co      4     -0.00177530  -0.00005111  -0.00040380 *
*    Co      5     -0.00183816  -0.00005114   0.00033841 *
*    Co      6     -0.00046512   0.00177352  -0.00005226 *
*    Co      7      0.00040150   0.00183746  -0.00005219 *
*    Co      8     -0.00040412  -0.00177665  -0.00005217 *
*    Co      9      0.00033911  -0.00183779  -0.00005235 *
*    Co     10     -0.00005157  -0.00046640   0.00177494 *
*    Co     11     -0.00005132   0.00040312   0.00183775 *
*    Co     12     -0.00005147  -0.00040282  -0.00177595 *
*    Co     13     -0.00005148   0.00033810  -0.00183611 *
*                                                        *
**********************************************************
TOTAL:             -0.00038580  -0.00038453  -0.00038813
 
********************* Unconstrained **********************
********************** NLCC forces ***********************
*                                                        *
* Element  Atom         Cartesian components (Eh/a)      *
* ------------------------------------------------------ *
*                       x            y            z      *
*                                                        *
*    Co      1      0.00000000   0.00000000   0.00000000 *
*    Co      2     -0.00000000   0.00000000   0.00000000 *
*    Co      3     -0.00000000   0.00000000  -0.00000000 *
*    Co      4      0.00000000   0.00000000   0.00000000 *
*    Co      5      0.00000000   0.00000000  -0.00000000 *
*    Co      6      0.00000000  -0.00000000   0.00000000 *
*    Co      7     -0.00000000  -0.00000000   0.00000000 *
*    Co      8      0.00000000   0.00000000   0.00000000 *
*    Co      9     -0.00000000   0.00000000   0.00000000 *
*    Co     10      0.00000000   0.00000000  -0.00000000 *
*    Co     11      0.00000000  -0.00000000  -0.00000000 *
*    Co     12      0.00000000   0.00000000   0.00000000 *
*    Co     13      0.00000000  -0.00000000   0.00000000 *
*                                                        *
**********************************************************
TOTAL:              0.00000000   0.00000000   0.00000000
 
********************* Unconstrained **********************
****** Correction to ensure the total force is zero ******
*                                                        *
* Element  Atom         Cartesian components (Eh/a)      *
* ------------------------------------------------------ *
*                       x            y            z      *
*                                                        *
*    Co      1     -0.00000634  -0.00000682  -0.00000557 *
*    Co      2     -0.00000634  -0.00000682  -0.00000557 *
*    Co      3     -0.00000634  -0.00000682  -0.00000557 *
*    Co      4     -0.00000634  -0.00000682  -0.00000557 *
*    Co      5     -0.00000634  -0.00000682  -0.00000557 *
*    Co      6     -0.00000634  -0.00000682  -0.00000557 *
*    Co      7     -0.00000634  -0.00000682  -0.00000557 *
*    Co      8     -0.00000634  -0.00000682  -0.00000557 *
*    Co      9     -0.00000634  -0.00000682  -0.00000557 *
*    Co     10     -0.00000634  -0.00000682  -0.00000557 *
*    Co     11     -0.00000634  -0.00000682  -0.00000557 *
*    Co     12     -0.00000634  -0.00000682  -0.00000557 *
*    Co     13     -0.00000634  -0.00000682  -0.00000557 *
*                                                        *
**********************************************************
TOTAL:             -0.00008243  -0.00008872  -0.00007245

********************* Unconstrained **********************
************************* Forces *************************
*                                                        *
* Element  Atom         Cartesian components (Eh/a)      *
* ------------------------------------------------------ *
*                       x            y            z      *
*                                                        *
*    Co      1     -0.00002833  -0.00002654  -0.00002957 *
*    Co      2     -0.00028607  -0.00000935  -0.00005616 *
*    Co      3     -0.00025144  -0.00000897   0.00005156 *
*    Co      4      0.00032583  -0.00000992  -0.00002060 *
*    Co      5      0.00028603  -0.00000953   0.00001808 *
*    Co      6     -0.00005650  -0.00028594  -0.00000954 *
*    Co      7      0.00005131  -0.00025198  -0.00000908 *
*    Co      8     -0.00002148   0.00032495  -0.00001015 *
*    Co      9      0.00001900   0.00028540  -0.00000970 *
*    Co     10     -0.00000952  -0.00005654  -0.00028469 *
*    Co     11     -0.00000905   0.00005129  -0.00025150 *
*    Co     12     -0.00001013  -0.00002040   0.00032504 *
*    Co     13     -0.00000966   0.00001753   0.00028632 *
*                                                        *
**********************************************************
* TOTAL:           -0.00000000  -0.00000000   0.00000000 *
**********************************************************
 
 
***********************************************************
********** Summary of Forces (values in Eh/a) *************
*                                                         *
* ---------------------- Minimum ------------------------ *
* Atom:         1, |F|min =    0.00004880                 *
* Components:     Fx|min       Fy|min       Fz|min        *
*              -0.00002833  -0.00002654  -0.00002957      *
*                                                         *
* ---------------------- Maximum ------------------------ *
* Atom:         4, |F|max =    0.00032664                 *
* Components:     Fx|max       Fy|max       Fz|max        *
*               0.00032583  -0.00000992  -0.00002060      *
*                                                         *
* ---------------- Root Mean Square Force --------------- *
*                  |F|rms =    0.00028018                 *
* Components:     Fx|rms       Fy|rms       Fz|rms        *
*               0.00016193   0.00016170   0.00016166      *
***********************************************************
 

------------------------------ TIMING INFORMATION ------------------------------
AVERAGE TIME:    4863.311s on     13 proc(s)                                    
TOTAL TIME:      4863.313s on     13 proc(s)                                    
================= AVERAGE TIMINGS FROM ALL PROCS (CUMULATIVE) ==================
|| TAG                                    #calls    cpu time   %total  Gflops ||
|| linalg_invert_sym_matrix             :     5        0.00s   0.000%  ------ || (1 procs only)
|| onetep.F90 main loop imbalance       :     1        0.00s   0.000%  ------ ||
|| onetep.F90 final imbalance           :     1        0.00s   0.000%  ------ ||
|| sw_bessel_init_cpu                   :     1        0.02s   0.000%  ------ || (1 procs only)
|| ewald_calculate_forces_realspace     :    10        0.00s   0.000%  ------ ||
|| density_fftbox_interp_mult_imbal     : 72150        0.01s   0.000%  ------ ||
|| sparse_set_to_garbage                :  1623        0.01s   0.000%  ------ ||
|| ewald_calculate_energy               :    10        0.02s   0.000%  ------ ||
|| linalg_dgemv                         :    40        0.02s   0.000%  ------ ||
|| ewald_calculate_forces_recipspace    :    10        0.02s   0.000%  ------ ||
|| ewald_calculate_forces               :    10        0.03s   0.001%  ------ ||
|| pseudo_make_structure_factor         :    10        0.04s   0.001%  ------ ||
|| restart_hamiltonian_read             :     8        0.06s   0.001%  ------ ||
|| paw_tcore_density                    :    10        0.08s   0.002%  ------ ||
|| sparse_init                          :    10        0.08s   0.002%  ------ ||
|| paw_tcore_hartree_on_grid            :    10        0.14s   0.003%  ------ ||
|| sw_init                              :  5558        0.15s   0.003%  ------ ||
|| paw_sphere_density_on_grid           :     1        0.20s   0.004%  ------ ||
|| sparse_blacstospam3_real_fast_imbal  : 10598        0.23s   0.005%  ------ ||
|| basis_extract_function_from_box      :  5044        0.23s   0.005%  ------ ||
|| restart_hamiltonian_write            :    95        0.27s   0.006%  ------ ||
|| paw_tcore_hartree_calc_forces        :    10        0.27s   0.006%  ------ ||
|| integrals_grad_spam3                 :    10        0.33s   0.007%  ------ ||
|| nonsc_forces_ngwfs_calc              :    10        0.33s   0.007%  ------ ||
|| restart_kernel_write                 :   105        0.35s   0.007%  ------ ||
|| ngwfs_initialise_from_radial         :     2        0.36s   0.007%  ------ ||
|| sparse_spam3toblacs_real_fast_imbal  : 10759        0.55s   0.011%  ------ ||
|| eigenstates_calculate                :     1        1.15s   0.024%  ------ ||
|| paw_dij_hartree                      :  3722        1.18s   0.024%  ------ ||
|| sparse_embed_array_hotelling_invert  :   187        1.22s   0.025%  ------ ||
|| sparse_spam3toblacs_real_fast_B1     : 139.9k       1.23s   0.025%  ------ ||
|| augmentation_density_forces          :    10        1.23s   0.025%  ------ ||
|| paw_dataset_init                     :     1        1.29s   0.027%  ------ ||
|| sparse_spam3toblacs_real_fast_B2     : 139.9k       1.51s   0.031%  ------ ||
|| paw_species_calc_proj_prec_mat       :    10        2.26s   0.046%  ------ ||
|| fourier_apply_box_pair               :  6319        2.38s   0.049% 342.472 ||
|| paw_nlcc_calculate_forces            :    10        2.73s   0.056%  ------ ||
|| restart_ngwfs_tightbox_input         :     8        3.37s   0.069%  ------ ||
|| projectors_func_grad_ovlp_box_spam3  :    30        4.75s   0.098%  ------ ||
|| sparse_spam3toblacs_real_fast        : 10759        6.44s   0.132%  ------ ||
|| energy_and_force_init_cell           :     1        6.57s   0.135%  ------ ||
|| aug_nl_calculate_forces              :    10        7.68s   0.158%  ------ ||
|| sparse_trace                         : 68170        9.77s   0.201%  ------ ||
|| cell_grid_extract_box_real           : 32296       10.47s   0.215%  ------ ||
|| basis_copy_function_to_box           : 98644       11.03s   0.227%  ------ ||
|| function_ops_brappd_ketppd_spam3     :   364       12.34s   0.254%  ------ ||
|| hamiltonian_energy_components        :    10       13.72s   0.282%  ------ ||
|| integrals_kinetic_spam3              :   187       14.67s   0.302%  ------ ||
|| properties_calculate                 :     1       15.30s   0.315%  ------ ||
|| projectors_init_fftbox_recip         :   607       17.69s   0.364%  ------ ||
|| restart_ngwfs_tightbox_output        :    87       20.77s   0.427%  ------ ||
|| sparse_blacstospam3_real_fast        : 10598       21.90s   0.450%  ------ ||
|| fourier_filter_cell                  :  1920       23.27s   0.478%  39.628 ||
|| ngwf_gradient_coeffs                 :    95       24.94s   0.513%  ------ ||
|| cell_grid_deposit_box_real           : 78064       24.96s   0.513%  ------ ||
|| projectors_func_ovlp_box_spam3       :   187       29.12s   0.599%  ------ ||
|| density_init_guess_real              :    20       29.51s   0.607%  ------ ||
|| forces_calculate                     :    10       29.97s   0.616%  ------ ||
|| projectors_gradient_batch            :   190       37.70s   0.775%  ------ ||
|| projectors_grad_precond_batch        :   190       41.91s   0.862%  ------ ||
|| sparse_product                       : 62389       43.49s   0.894%  ------ ||
|| dense_eigensolve                     :  5112       55.60s   1.143%  ------ ||
|| density_fftbox_deposit_to_cell       : 72150       57.11s   1.174%  ------ ||
|| hartree_on_grid_single               :  2774       60.79s   1.250%  ------ ||
|| edft_diag_ngwf_ham                   :  5110       61.81s   1.271%  ------ ||
|| fourier_interpolate_cell             :  5550       68.65s   1.412%  38.828 ||
|| edft_apply_smearing_operator         :  2555      102.31s   2.104%  ------ ||
|| basis_dot_function_with_box          : 4.670M     104.29s   2.145%  ------ ||
|| ngwf_gradient_build_batch            :   190      124.57s   2.561%  ------ ||
|| integrals_locpot_mat_els_batch       :  1730      136.80s   2.813%  ------ ||
|| ngwf_gradient_batch                  :   190      228.12s   4.691%  ------ ||
|| potential_apply_to_ngwf_batch        :  1730      238.05s   4.895%  ------ ||
|| fourier_apply_cell_backward          : 25048      249.03s   5.121%  43.547 ||
|| ngwf_gradient_lnv                    :    95      257.80s   5.301%  ------ ||
|| fourier_apply_box                    : 248.6k     260.90s   5.365% 534.164 ||
|| fourier_apply_cell_forward           : 25048      285.02s   5.861%  38.048 ||
|| basis_add_function_to_box            : 13.86M     292.49s   6.014%  ------ ||
|| augmentation_screen_dij_spam3        :  2773      305.07s   6.273%  ------ ||
|| integrals_locpot_dbl_grid            :  1730      376.08s   7.733%  ------ ||
|| density_batch_row_sums               :  5550      385.71s   7.931%  ------ ||
|| density_fftbox_interpolate_multiply  : 72150      463.53s   9.531%  ------ ||
|| aug_density_on_grid_spam3            :  2775      665.43s  13.683%  ------ ||
|| density_batch_interp_deposit         :  5550      690.91s  14.207%  ------ ||
|| xc_energy_potential                  :  2783      711.22s  14.624%  ------ ||
|| aug_nonlocal_mat_spam3_embed_array   :  3617      884.70s  18.191%  ------ ||
|| paw_dij_xc                           :  3722      893.08s  18.364%  ------ ||
|| density_on_dbl_grid                  :  5550     1091.01s  22.434%  ------ ||
|| hamiltonian_lhxc_calculate           :  2753     3008.83s  61.868%  ------ ||
|| edft_calculate                       :    95     4279.47s  87.995%  ------ ||
|| ngwf_cg_optimise                     :    10     4758.81s  97.851%  ------ ||
|| energy_and_forces                    :    10     4853.94s  99.807%  ------ ||
|| total_time                           :     1     4863.31s 100.000%  ------ ||
================================================================================
Overhead of generating timer report: 
- 0 ms averaging over threads,
- 0 ms ensuring consistency across MPI ranks,
- 1 ms printing in order.

Job completed: 22-12-2023 17:55 (+0000)

onetep_launcher: ONETEP seems to have finished correctly (zero exit code).
