==================================================================================
It's Sat 23 Dec 2023 08:43:52 AM GMT.
*** Starting onetep_launcher (node nid001247, PIDs 42233 42234 42235 42236 42237 42238 42239 42240 42241 42242 42243 42244 42245 42246 42247 42248)...
    - ONETEP arguments: Co_cluster3_nspF.dat
    - Current directory: /mnt/lustre/a2fs-work3/work/e89/e89/ndmh3/Co_NPs/Co_cluster3_nspF
    - Launcher executable directory: /mnt/lustre/a2fs-work3/work/e89/e89/ndmh3/onetep_mea/utils
    - (-e) ONETEP executable specified through command-line: /work/e89/e89/ndmh3/onetep_mea/bin/onetep.archer2_2023_cray
      ... trying /work/e89/e89/ndmh3/onetep_mea/bin/onetep.archer2_2023_cray
          -> looks OK
*** Setting up environment...
    - (-s) Process stack size: unlimited
    - (-t) OMP_NUM_THREADS: 8
    - (-o) OMP_STACKSIZE: 64M
    - (-c) Maximum core file size: 2048000
    - (-d) decfort_dump_flag: n
    - (-m) I_MPI_OFA_TRANSLATION_CACHE: 0
    - (-m) I_MPI_DAPL_TRANSLATION_CACHE: 0
    - (-m) I_MPI_DAPL_UD_TRANSLATION_CACHE: 0
*** Starting ONETEP...
    - /work/e89/e89/ndmh3/onetep_mea/bin/onetep.archer2_2023_cray Co_cluster3_nspF.dat
=================================================================================
_________________________________________________________________________________
 +---------------------------------------------------------------+
 |                                                               |
 |        ####### #     # ####### ####### ####### ######         |
 |        #     # ##    # #          #    #       #     #        |
 |        #     # # #   # #          #    #       #     #        |
 |        #     # #  #  # #####      #    #####   ######         |
 |        #     # #   # # #          #    #       #              |
 |        #     # #    ## #          #    #       #              |
 |        ####### #     # #######    #    ####### #              |
 |                                                               |
 |        Linear-Scaling Ab Initio Total Energy Program          |
 |                                                               |
 |          Release for academic collaborators of ODG            |
 |                                             Version 7.1.2     |
 | Remote: git@github.com:Miesaz/onetep_mea.git                  |
 | Local branch: spin_polarised_ngwfs                            |
 | Commit ID: 7c696c95508db11e862ad6ab7bb9dc094f19dd1c           |
 | Date: Sun Dec 17 13:55:03 2023 +0000                          |
 | Locally modified files:                                       |
 |   config/conf.archer2_2023_cray                               |
 |                                                               |
 +---------------------------------------------------------------+
 |                                                               |
 |  Authors:                                                     |
 |  Jacek Dziedzic, Peter D. Haynes, Nicholas D. M. Hine,        |
 |  Arash A. Mostofi, Mike C. Payne and Chris-Kriton Skylaris    |
 |                                                               |
 |  Contributors:                                                |
 |  J. Aarons, L. Andrinopoulos, P. W. Avraam, R. A. Bell,       |
 |  A. Bhandari, G. A. Bramley, R. J. Charlton, S. J. Clark,     |
 |  R. J. Clements, G. C. Constantinescu, F. Corsetti,           |
 |  N. Corsini, O. Dieguez, S. M. M. Dubois, K. K. B. Duff,      |
 |  J. M. Escartin, M. Escobar Azor, A. Greco,                   |
 |  H. Helal, Q. O. Hill, L. P. Lee, J.-H. Li,                   |
 |  E. B. Linscott, G. Moynihan, D. D. O`Regan,                  |
 |  O. K. Okan, M. J. S. Phipps, C. J. Pickard,                  |
 |  J. C. A. Prentice, M. I. J. Probert, L. E. Ratcliff,         |
 |  M. Robinson, A. Ruiz Serrano, M. dos Santos Dias,            |
 |  J. S. Spencer, E. W. Tait, G. Teobaldi, D. Turban,           |
 |  V. Vitale, K. A. Wilkinson, C. Weber, J. C. Womack,          |
 |  N. Yeung and T. J. Zuehlsdorff                               |
 |                                                               |
 |                                   Copyright (c) 2004-2023     |
 |                                                               |
 |  Please cite:                                                 |
 |  "The ONETEP linear-scaling density functional theory program"|
 |   J. Chem. Phys. 152(17) 174111 (2020)                        |
 |                                                               |
 |          in all publications arising from your use of ONETEP. |
 |                                                               |
 +---------------------------------------------------------------+
 |                                                               |
 |   ONETEP is based on developments described in the following  |
 |   publications:                                               |
 |                                                               |
 |  "Nonorthogonal generalized Wannier function pseudopotential  |
 |   plane-wave method".                                         |
 |   C.-K. Skylaris, A. A. Mostofi, P. D. Haynes, O. Dieguez,    |
 |   M. C. Payne.                                                |
 |   Phys. Rev. B 66 035119 (2002).                              |
 |                                                               |
 |  "Preconditioned iterative minimization for linear-scaling    |
 |   electronic structure calculations".                         |
 |   A. A. Mostofi, P. D. Haynes, C.-K. Skylaris, M. C. Payne.   |
 |   J. Chem. Phys. 119(17), pp.8842-8848 (2003).                |
 |                                                               |
 |  "Total-energy calculations on a real space grid with         |
 |   localized functions and a plane-wave basis".                |
 |   A. A. Mostofi, C.-K. Skylaris, P. D. Haynes, M. C. Payne.   |
 |   Comput. Phys. Commun. 147, pp.788-802 (2002).               |
 |                                                               |
 |  "Accurate kinetic energy evaluation in electronic structure  |
 |   calculations with localized functions on real space grids"  |
 |   C.-K. Skylaris, A. A. Mostofi, P. D. Haynes, C. J. Pickard, |
 |   M. C. Payne.                                                |
 |   Comput. Phys. Commun. 140, pp.315-322 (2001).               |
 |                                                               |
 |  "Accurate ionic forces and geometry optimization in linear-  |
 |   scaling density-functional theory with local orbitals"      |
 |   N. D. M. Hine, M. Robinson, P. D. Haynes, C.-K. Skylaris,   |
 |   M. C. Payne, and A. A. Mostofi.                             |
 |   Phys. Rev. B 83 195102 (2011).                              |
 |                                                               |
 +---------------------------------------------------------------+

Job started: 23-12-2023 08:43 (+0000)
 
Reading parameters from file "Co_cluster3_nspF.dat" ...... done

If your calculation crashes here, before "Checking processes and threads..."
is displayed, then your stack size is insufficient.
If so, use "ulimit -s unlimited" at runtime.
You can disable this check with "check_stack_size F".

Checking processes and threads...
   Running with 64 MPI processes.
   There are 16 MPI processes running on the same node as the root process.
   Each MPI process is using: 
               1 threads for simulation cell FFTs.
               1 threads for parallel FFT box operations.
               8 threads for loops over batched FFT box operations.
               8 threads in other parallel regions.
   MPI Interface: S1 (use mpi_f08) (-DMPI -DUSE_MPI_F08).
   MPI_ASYNC_PROTECTS_NONBLOCKING: Yes. MPI_SUBARRAYS_SUPPORTED: Yes.
   GPU Interface: None.
... done

Basic input checks...
Resetting ngwf_cg_rotate to TRUE for EDFT calculations
... done

Reading geometry and species blocks from file "Co_cluster3_nspF.dat" ...... done


--------------------------------------------------------------------------------
---------------------------------- INPUT FILE ----------------------------------
--------------------------------------------------------------------------------

charge : 0                                                                      
cutoff_energy : 600 eV                                                          
do_properties : T                                                               
edft : T                                                                        
edft_spin_fix : 0                                                               
fine_grid_scale : 4                                                             
forces_output_detail : VERBOSE                                                  
maxit_ngwf_cg : 30                                                              
ngwf_threshold_orig : 1e-06                                                     
ngwfs_spin_polarized : F                                                        
output_detail : BRIEF                                                           
paw : T                                                                         
pseudo_path : .                                                                 
read_denskern : F                                                               
read_hamiltonian : F                                                            
read_tightbox_ngwfs : F                                                         
spin : 441                                                                      
task : GEOMETRYOPTIMIZATION                                                     
write_denskern : T                                                              
write_forces : T                                                                
write_hamiltonian : T                                                           
write_tightbox_ngwfs : T                                                        
xc_functional : PBE                                                             
%BLOCK LATTICE_CART                                                             
ang                                                                             
22.70370017       0.00000000       0.00000000                                   
0.00000000      22.70370017       0.00000000                                    
0.00000000       0.00000000      22.70370017                                    
%ENDBLOCK LATTICE_CART                                                          
%BLOCK POSITIONS_ABS                                                            
ang                                                                             
Co1    11.351850    11.351850    11.351850                                      
Co2    13.469133    11.351850    10.043297                                      
Co2    13.469133    11.351850    12.660403                                      
Co2     9.234567    11.351850    10.043297                                      
Co2     9.234567    11.351850    12.660403                                      
Co2    10.043297    13.469133    11.351850                                      
Co2    12.660403    13.469133    11.351850                                      
Co2    10.043297     9.234567    11.351850                                      
Co2    12.660403     9.234567    11.351850                                      
Co2    11.351850    10.043297    13.469133                                      
Co2    11.351850    12.660403    13.469133                                      
Co2    11.351850    10.043297     9.234567                                      
Co2    11.351850    12.660403     9.234567                                      
Co3    15.586417    11.351850     8.734744                                      
Co3    15.586417    11.351850    11.351850                                      
Co3    15.586417    11.351850    13.968956                                      
Co3     7.117283    11.351850     8.734744                                      
Co3     7.117283    11.351850    11.351850                                      
Co3     7.117283    11.351850    13.968956                                      
Co3     8.734744    15.586417    11.351850                                      
Co3    11.351850    15.586417    11.351850                                      
Co3    13.968956    15.586417    11.351850                                      
Co3     8.734744     7.117283    11.351850                                      
Co3    11.351850     7.117283    11.351850                                      
Co3    13.968956     7.117283    11.351850                                      
Co3    11.351850     8.734744    15.586417                                      
Co3    11.351850    11.351850    15.586417                                      
Co3    11.351850    13.968956    15.586417                                      
Co3    11.351850     8.734744     7.117283                                      
Co3    11.351850    11.351850     7.117283                                      
Co3    11.351850    13.968956     7.117283                                      
Co3    13.469133    10.043297    14.777687                                      
Co3    13.469133    12.660403    14.777687                                      
Co3    13.469133    10.043297     7.926014                                      
Co3    13.469133    12.660403     7.926014                                      
Co3     9.234567    10.043297    14.777687                                      
Co3     9.234567    12.660403    14.777687                                      
Co3     9.234567    10.043297     7.926014                                      
Co3     9.234567    12.660403     7.926014                                      
Co3    14.777687    13.469133    10.043297                                      
Co3    14.777687    13.469133    12.660403                                      
Co3     7.926014    13.469133    10.043297                                      
Co3     7.926014    13.469133    12.660403                                      
Co3    14.777687     9.234567    10.043297                                      
Co3    14.777687     9.234567    12.660403                                      
Co3     7.926014     9.234567    10.043297                                      
Co3     7.926014     9.234567    12.660403                                      
Co3    10.043297    14.777687    13.469133                                      
Co3    12.660403    14.777687    13.469133                                      
Co3    10.043297     7.926014    13.469133                                      
Co3    12.660403     7.926014    13.469133                                      
Co3    10.043297    14.777687     9.234567                                      
Co3    12.660403    14.777687     9.234567                                      
Co3    10.043297     7.926014     9.234567                                      
Co3    12.660403     7.926014     9.234567                                      
Co4    17.703700    11.351850     7.426191                                      
Co4    17.703700    11.351850    10.043297                                      
Co4    17.703700    11.351850    12.660403                                      
Co4    17.703700    11.351850    15.277509                                      
Co4     5.000000    11.351850     7.426191                                      
Co4     5.000000    11.351850    10.043297                                      
Co4     5.000000    11.351850    12.660403                                      
Co4     5.000000    11.351850    15.277509                                      
Co4     7.426191    17.703700    11.351850                                      
Co4    10.043297    17.703700    11.351850                                      
Co4    12.660403    17.703700    11.351850                                      
Co4    15.277509    17.703700    11.351850                                      
Co4     7.426191     5.000000    11.351850                                      
Co4    10.043297     5.000000    11.351850                                      
Co4    12.660403     5.000000    11.351850                                      
Co4    15.277509     5.000000    11.351850                                      
Co4    11.351850     7.426191    17.703700                                      
Co4    11.351850    10.043297    17.703700                                      
Co4    11.351850    12.660403    17.703700                                      
Co4    11.351850    15.277509    17.703700                                      
Co4    11.351850     7.426191     5.000000                                      
Co4    11.351850    10.043297     5.000000                                      
Co4    11.351850    12.660403     5.000000                                      
Co4    11.351850    15.277509     5.000000                                      
Co4    15.586417    10.043297    16.086240                                      
Co4    13.469133     8.734744    16.894970                                      
Co4    15.586417    12.660403    16.086240                                      
Co4    13.469133    11.351850    16.894970                                      
Co4    13.469133    13.968956    16.894970                                      
Co4    15.586417    10.043297     6.617461                                      
Co4    13.469133     8.734744     5.808730                                      
Co4    15.586417    12.660403     6.617461                                      
Co4    13.469133    11.351850     5.808730                                      
Co4    13.469133    13.968956     5.808730                                      
Co4     7.117283    10.043297    16.086240                                      
Co4     9.234567     8.734744    16.894970                                      
Co4     7.117283    12.660403    16.086240                                      
Co4     9.234567    11.351850    16.894970                                      
Co4     9.234567    13.968956    16.894970                                      
Co4     7.117283    10.043297     6.617461                                      
Co4     9.234567     8.734744     5.808730                                      
Co4     7.117283    12.660403     6.617461                                      
Co4     9.234567    11.351850     5.808730                                      
Co4     9.234567    13.968956     5.808730                                      
Co4    16.086240    15.586417    10.043297                                      
Co4    16.894970    13.469133     8.734744                                      
Co4    16.086240    15.586417    12.660403                                      
Co4    16.894970    13.469133    11.351850                                      
Co4    16.894970    13.469133    13.968956                                      
Co4     6.617461    15.586417    10.043297                                      
Co4     5.808730    13.469133     8.734744                                      
Co4     6.617461    15.586417    12.660403                                      
Co4     5.808730    13.469133    11.351850                                      
Co4     5.808730    13.469133    13.968956                                      
Co4    16.086240     7.117283    10.043297                                      
Co4    16.894970     9.234567     8.734744                                      
Co4    16.086240     7.117283    12.660403                                      
Co4    16.894970     9.234567    11.351850                                      
Co4    16.894970     9.234567    13.968956                                      
Co4     6.617461     7.117283    10.043297                                      
Co4     5.808730     9.234567     8.734744                                      
Co4     6.617461     7.117283    12.660403                                      
Co4     5.808730     9.234567    11.351850                                      
Co4     5.808730     9.234567    13.968956                                      
Co4    10.043297    16.086240    15.586417                                      
Co4     8.734744    16.894970    13.469133                                      
Co4    12.660403    16.086240    15.586417                                      
Co4    11.351850    16.894970    13.469133                                      
Co4    13.968956    16.894970    13.469133                                      
Co4    10.043297     6.617461    15.586417                                      
Co4     8.734744     5.808730    13.469133                                      
Co4    12.660403     6.617461    15.586417                                      
Co4    11.351850     5.808730    13.469133                                      
Co4    13.968956     5.808730    13.469133                                      
Co4    10.043297    16.086240     7.117283                                      
Co4     8.734744    16.894970     9.234567                                      
Co4    12.660403    16.086240     7.117283                                      
Co4    11.351850    16.894970     9.234567                                      
Co4    13.968956    16.894970     9.234567                                      
Co4    10.043297     6.617461     7.117283                                      
Co4     8.734744     5.808730     9.234567                                      
Co4    12.660403     6.617461     7.117283                                      
Co4    11.351850     5.808730     9.234567                                      
Co4    13.968956     5.808730     9.234567                                      
Co4    14.777687     7.926014    14.777687                                      
Co4    14.777687    14.777687    14.777687                                      
Co4    14.777687     7.926014     7.926014                                      
Co4    14.777687    14.777687     7.926014                                      
Co4     7.926014     7.926014    14.777687                                      
Co4     7.926014    14.777687    14.777687                                      
Co4     7.926014     7.926014     7.926014                                      
Co4     7.926014    14.777687     7.926014                                      
%ENDBLOCK POSITIONS_ABS                                                         
%BLOCK SPECIES                                                                  
Co1 Co 27 -1 10.0                                                               
Co2 Co 27 -1 10.0                                                               
Co3 Co 27 -1 10.0                                                               
Co4 Co 27 -1 10.0                                                               
%ENDBLOCK SPECIES                                                               
%BLOCK SPECIES_ATOMIC_SET                                                       
Co1 "SOLVE INIT SPIN=3"                                                         
Co2 "SOLVE INIT SPIN=3"                                                         
Co3 "SOLVE INIT SPIN=3"                                                         
Co4 "SOLVE INIT SPIN=3"                                                         
%ENDBLOCK SPECIES_ATOMIC_SET                                                    
%BLOCK SPECIES_LDOS_GROUPS                                                      
Co1                                                                             
Co2                                                                             
Co3                                                                             
Co4                                                                             
%ENDBLOCK SPECIES_LDOS_GROUPS                                                   
%BLOCK SPECIES_POT                                                              
Co1 Co.PBE-paw.abinit                                                           
Co2 Co.PBE-paw.abinit                                                           
Co3 Co.PBE-paw.abinit                                                           
Co4 Co.PBE-paw.abinit                                                           
%ENDBLOCK SPECIES_POT                                                           

--------------------------------------------------------------------------------
-------------------------------- END INPUT FILE --------------------------------
--------------------------------------------------------------------------------


 
<<<<<<<<<<<<<<<<<<<<<<<<<<<<<<<<< Full system >>>>>>>>>>>>>>>>>>>>>>>>>>>>>>>>>>
<<<<<<<<<<<<<<<<<<<<<<<<<<< PAW Dataset information >>>>>>>>>>>>>>>>>>>>>>>>>>>
File: Co.PBE-paw.abinit; rc = 2.11 bohr; shape type =  2; rshape = 1.60 bohr;
  Atomic number: 27;  ionic charge: 17.000000
    Partial Wave 1: l = 0
    Partial Wave 2: l = 0
    Partial Wave 3: l = 1
    Partial Wave 4: l = 1
    Partial Wave 5: l = 2
    Partial Wave 6: l = 2
  Core charge supplied for Nonlinear Core Corrections
<<<<<<<<<<<<<<<<<<<<<<<<<<<<<<<<<<<<<<< >>>>>>>>>>>>>>>>>>>>>>>>>>>>>>>>>>>>>>>

-------------------------- Atom counting information ---------------------------
Symbol    Natoms    Nngwfs    Nprojs
  Co       147      1911      2646
.......   ......    ......    ......
Totals:    147      1911      2646
--------------------------------------------------------------------------------

=============================== PSINC grid sizes ===============================
                      Simulation cell:   75 x  75 x  75
                              FFT-box:   75 x  75 x  75
                                  PPD:    5 x   5 x   1
================================================================================

Atom SCF Calculation for Co : Z (AE atom) =  27 : Z (PS atom) =  17
Config String: 3s2.0 3p6.0 3d7.0 4s2.0 4p0.0 INIT SPIN=3
Orbitals (num,occ):  5     2.00 6.00 7.00 2.00 0.00
Orbitals   (num,l):  5        0    1    2    0    1
Atom SCF converged after  37 iterations to a total energy of   -146.10251041
Adjusting orbital occupancies:
Orbitals (num,spin,occ):  5  1     1.00 3.00 5.00 1.00 0.00
Orbitals   (num,spin,l):  5  1        0    1    2    0    1
Orbitals (num,spin,occ):  5  2     1.00 3.00 3.00 0.00 0.00
Orbitals   (num,spin,l):  5  2        0    1    2    0    1

Atom SCF Calculation for Co : Z (AE atom) =  27 : Z (PS atom) =  17
Config String: 3s2.0 3p6.0 3d7.0 4s2.0 4p0.0 INIT SPIN=3
Orbitals (num,occ):  5     2.00 6.00 7.00 2.00 0.00
Orbitals   (num,l):  5        0    1    2    0    1
Atom SCF converged after  37 iterations to a total energy of   -146.10251041
Adjusting orbital occupancies:
Orbitals (num,spin,occ):  5  1     1.00 3.00 5.00 1.00 0.00
Orbitals   (num,spin,l):  5  1        0    1    2    0    1
Orbitals (num,spin,occ):  5  2     1.00 3.00 3.00 0.00 0.00
Orbitals   (num,spin,l):  5  2        0    1    2    0    1

Atom SCF Calculation for Co : Z (AE atom) =  27 : Z (PS atom) =  17
Config String: 3s2.0 3p6.0 3d7.0 4s2.0 4p0.0 INIT SPIN=3
Orbitals (num,occ):  5     2.00 6.00 7.00 2.00 0.00
Orbitals   (num,l):  5        0    1    2    0    1
Atom SCF converged after  37 iterations to a total energy of   -146.10251041
Adjusting orbital occupancies:
Orbitals (num,spin,occ):  5  1     1.00 3.00 5.00 1.00 0.00
Orbitals   (num,spin,l):  5  1        0    1    2    0    1
Orbitals (num,spin,occ):  5  2     1.00 3.00 3.00 0.00 0.00
Orbitals   (num,spin,l):  5  2        0    1    2    0    1

Atom SCF Calculation for Co : Z (AE atom) =  27 : Z (PS atom) =  17
Config String: 3s2.0 3p6.0 3d7.0 4s2.0 4p0.0 INIT SPIN=3
Orbitals (num,occ):  5     2.00 6.00 7.00 2.00 0.00
Orbitals   (num,l):  5        0    1    2    0    1
Atom SCF converged after  37 iterations to a total energy of   -146.10251041
Adjusting orbital occupancies:
Orbitals (num,spin,occ):  5  1     1.00 3.00 5.00 1.00 0.00
Orbitals   (num,spin,l):  5  1        0    1    2    0    1
Orbitals (num,spin,occ):  5  2     1.00 3.00 3.00 0.00 0.00
Orbitals   (num,spin,l):  5  2        0    1    2    0    1

================================================================================
<<<<<<<<<<<<<<<<<<<< Starting ONETEP Geometry Optimisation >>>>>>>>>>>>>>>>>>>>>
================================================================================

 Geometry Optimisation: output file is "Co_cluster3_nspF.geom"
 
Calculating Ewald energy ...            67736.398771 Hartree

============================= Charge Augmentation ==============================
                           Aug box size:   33 x  33 x  33
================================================================================

================================= Core Density =================================
               Core den box size:   33 x  33 x  33
================================================================================
Density kernel initialisation

################################################################################
###################### NGWF self-consistent optimisation #######################
################################################################################
|ITER|    RMS GRADIENT   |     TOTAL ENERGY    |   step   |     Epredicted      
(P)DSYGVX in subroutine dense_eigensolve returned info=    2
 ifail= 2*0
 iclustr= 353,  552
 gap= 1.52315678599333147E-5,  3.03110788552109504E-5
(P)DSYGVX in subroutine dense_eigensolve returned info=    2
 ifail= 2*0
 iclustr= 353,  552
 gap= 1.48951231766939666E-5,  1.1657194349274767E-5
(P)DSYGVX in subroutine dense_eigensolve returned info=    2
 ifail= 2*0
 iclustr= 205,  276
 gap= 1.59206275300755547E-5,  2.332180689477493E-5
(P)DSYGVX in subroutine dense_eigensolve returned info=    2
 ifail= 2*0
 iclustr= 205,  276
 gap= 3.17650669205178112E-5,  1.25317762885501813E-5
(P)DSYGVX in subroutine dense_eigensolve returned info=    2
 ifail= 2*0
 iclustr= 205,  276
 gap= 3.18676475350733232E-5,  2.81879794877636595E-5
(P)DSYGVX in subroutine dense_eigensolve returned info=    2
 ifail= 2*0
 iclustr= 205,  276
 gap= 4.82601571457047626E-5,  2.26541452333272975E-5
(P)DSYGVX in subroutine dense_eigensolve returned info=    2
 ifail= 2*0
 iclustr= 403,  552
 gap= 1.3682689330612052E-5,  1.17320617107316977E-5
(P)DSYGVX in subroutine dense_eigensolve returned info=    2
 ifail= 2*0
 iclustr= 403,  552
 gap= 2.80759542944113842E-5,  1.2056961883087589E-5
(P)DSYGVX in subroutine dense_eigensolve returned info=    2
 ifail= 2*0
 iclustr= 197,  297
 gap= 1.12857931577235526E-5,  3.95751902207921069E-5
(P)DSYGVX in subroutine dense_eigensolve returned info=    2
 ifail= 2*0
 iclustr= 197,  312
 gap= 1.85559995603497475E-5,  4.49417693493177689E-5
(P)DSYGVX in subroutine dense_eigensolve returned info=    2
 ifail= 2*0
 iclustr= 197,  312
 gap= 1.32941696169821487E-5,  4.52944667792590681E-5
(P)DSYGVX in subroutine dense_eigensolve returned info=    2
 ifail= 2*0
 iclustr= 197,  312
 gap= 1.52147877999098683E-5,  4.53211882633329917E-5
(P)DSYGVX in subroutine dense_eigensolve returned info=    2
 ifail= 2*0
 iclustr= 213,  312
 gap= 2.00794411775220884E-5,  3.98789815069162628E-5
(P)DSYGVX in subroutine dense_eigensolve returned info=    2
 ifail= 2*0
 iclustr= 213,  312
 gap= 3.32501542570921887E-5,  3.83269601483150063E-5
(P)DSYGVX in subroutine dense_eigensolve returned info=    2
 ifail= 2*0
 iclustr= 13,  102
 gap= 1.15563798103096315E-5,  1.02421055884295009E-5
(P)DSYGVX in subroutine dense_eigensolve returned info=    2
 ifail= 2*0
 iclustr= 19,  102
 gap= 1.62685304864090941E-5,  1.08586888417314667E-5
(P)DSYGVX in subroutine dense_eigensolve returned info=    2
 ifail= 2*0
 iclustr= 460,  549
 gap= 2.63306889886353709E-5,  6.71948708346750353E-5
(P)DSYGVX in subroutine dense_eigensolve returned info=    2
 ifail= 2*0
 iclustr= 274,  439
 gap= 1.09924239684412437E-5,  3.44977437126084774E-5
(P)DSYGVX in subroutine dense_eigensolve returned info=    2
 ifail= 2*0
 iclustr= 313,  552
 gap= 1.05794087059766616E-5,  3.10438868717587379E-5
(P)DSYGVX in subroutine dense_eigensolve returned info=    2
 ifail= 2*0
 iclustr= 420,  552
 gap= 1.43574894746604391E-5,  2.39922612317404901E-5
(P)DSYGVX in subroutine dense_eigensolve returned info=    2
 ifail= 2*0
 iclustr= 383,  552
 gap= 1.04430494851987822E-5,  3.3202098617952534E-5
(P)DSYGVX in subroutine dense_eigensolve returned info=    2
 ifail= 2*0
 iclustr= 383,  552
 gap= 1.0087372043602623E-5,  5.01636262442590466E-5
(P)DSYGVX in subroutine dense_eigensolve returned info=    2
 ifail= 2*0
 iclustr= 187,  276
 gap= 1.23510911357996134E-5,  1.386152586309024E-5
(P)DSYGVX in subroutine dense_eigensolve returned info=    2
 ifail= 2*0
 iclustr= 187,  276
 gap= 1.20791982471979656E-5,  1.93255045858104029E-5
(P)DSYGVX in subroutine dense_eigensolve returned info=    2
 ifail= 2*0
 iclustr= 194,  276
 gap= 1.97384738736821796E-5,  1.5047277170744945E-5
(P)DSYGVX in subroutine dense_eigensolve returned info=    2
 ifail= 2*0
 iclustr= 395,  552
 gap= 1.09872386514858786E-5,  9.74063901802722966E-5
(P)DSYGVX in subroutine dense_eigensolve returned info=    2
 ifail= 2*0
 iclustr= 214,  339
 gap= 1.1736939155624531E-5,  1.81123410266196247E-5
(P)DSYGVX in subroutine dense_eigensolve returned info=    2
 ifail= 2*0
 iclustr= 214,  339
 gap= 1.95017740361826885E-5,  1.66058824716660552E-5
(P)DSYGVX in subroutine dense_eigensolve returned info=    2
 ifail= 2*0
 iclustr= 389,  588
 gap= 1.10844512014576111E-5,  3.69647721699541105E-5
(P)DSYGVX in subroutine dense_eigensolve returned info=    2
 ifail= 2*0
 iclustr= 313,  419
 gap= 1.21741270300177869E-5,  1.38059184445567029E-5
(P)DSYGVX in subroutine dense_eigensolve returned info=    2
 ifail= 2*0
 iclustr= 389,  588
 gap= 1.16352857923379453E-5,  3.6314816106220612E-5
(P)DSYGVX in subroutine dense_eigensolve returned info=    2
 ifail= 2*0
 iclustr= 56,  147
 gap= 1.34705485288778403E-5,  2.78252745424731047E-5
(P)DSYGVX in subroutine dense_eigensolve returned info=    2
 ifail= 2*0
 iclustr= 349,  455
 gap= 1.70375412368507675E-5,  1.29117087520755045E-5
(P)DSYGVX in subroutine dense_eigensolve returned info=    2
 ifail= 2*0
 iclustr= 389,  588
 gap= 1.26525519279147672E-5,  6.7435267080986173E-5
(P)DSYGVX in subroutine dense_eigensolve returned info=    2
 ifail= 2*0
 iclustr= 337,  492
 gap= 1.31712174378938601E-5,  3.50015814614087518E-5
(P)DSYGVX in subroutine dense_eigensolve returned info=    2
 ifail= 2*0
 iclustr= 313,  504
 gap= 1.08030534513799389E-5,  2.32499915986764104E-5
(P)DSYGVX in subroutine dense_eigensolve returned info=    2
 ifail= 2*0
 iclustr= 199,  282
 gap= 1.95413409452823027E-5,  4.30283395919174683E-5
(P)DSYGVX in subroutine dense_eigensolve returned info=    2
 ifail= 2*0
 iclustr= 148,  327
 gap= 1.14398828126684135E-5,  1.1619346434577028E-5
(P)DSYGVX in subroutine dense_eigensolve returned info=    2
 ifail= 2*0
 iclustr= 148,  255
 gap= 1.10942802816515333E-5,  2.11864157726880001E-5
(P)DSYGVX in subroutine dense_eigensolve returned info=    2
 ifail= 2*0
 iclustr= 148,  339
 gap= 1.43051985161787366E-5,  2.14437222758653117E-5
(P)DSYGVX in subroutine dense_eigensolve returned info=    2
 ifail= 2*0
 iclustr= 223,  492
 gap= 1.02423557272346336E-5,  2.55789443200522398E-5
(P)DSYGVX in subroutine dense_eigensolve returned info=    2
 ifail= 2*0
 iclustr= 223,  544
 gap= 1.05847224543078279E-5,  3.07429718139068313E-5
(P)DSYGVX in subroutine dense_eigensolve returned info=    2
 ifail= 2*0
 iclustr= 187,  421
 gap= 1.03160453518574174E-5,  1.25938556350598335E-5
(P)DSYGVX in subroutine dense_eigensolve returned info=    2
 ifail= 2*0
 iclustr= 215,  432
 gap= 1.23642779647874472E-5,  1.00467616377105554E-5
(P)DSYGVX in subroutine dense_eigensolve returned info=    2
 ifail= 2*0
 iclustr= 467,  549
 gap= 1.08544309895899384E-5,  2.51445607165625112E-5
(P)DSYGVX in subroutine dense_eigensolve returned info=    2
 ifail= 2*0
 iclustr= 148,  327
 gap= 1.12157108571744786E-5,  1.01139972965431586E-5
(P)DSYGVX in subroutine dense_eigensolve returned info=    2
 ifail= 2*0
 iclustr= 214,  366
 gap= 1.13862423520478987E-5,  1.11066585602090447E-5
(P)DSYGVX in subroutine dense_eigensolve returned info=    2
 ifail= 2*0
 iclustr= 214,  588
 gap= 1.00235326502028757E-5,  6.88091874210752124E-5
(P)DSYGVX in subroutine dense_eigensolve returned info=    2
 ifail= 2*0
 iclustr= 214,  306
 gap= 1.70919967799682877E-5,  2.48677409281571129E-5
(P)DSYGVX in subroutine dense_eigensolve returned info=    2
 ifail= 2*0
 iclustr= 196,  470
 gap= 1.02084172717938639E-5,  1.46878176803463721E-5
(P)DSYGVX in subroutine dense_eigensolve returned info=    2
 ifail= 2*0
 iclustr= 223,  312
 gap= 2.35680825725289488E-5,  1.07359322245122178E-5
(P)DSYGVX in subroutine dense_eigensolve returned info=    2
 ifail= 2*0
 iclustr= 223,  312
 gap= 1.12482518299182921E-5,  1.20814015143186668E-5
(P)DSYGVX in subroutine dense_eigensolve returned info=    2
 ifail= 2*0
 iclustr= 163,  379
 gap= 1.33583306924505093E-5,  1.68614643129908502E-5
(P)DSYGVX in subroutine dense_eigensolve returned info=    2
 ifail= 2*0
 iclustr= 190,  568
 gap= 1.00464326198021071E-5,  4.1973287944104825E-5
(P)DSYGVX in subroutine dense_eigensolve returned info=    2
 ifail= 2*0
 iclustr= 184,  273
 gap= 1.12454228663516725E-5,  1.596410726996828E-5
(P)DSYGVX in subroutine dense_eigensolve returned info=    2
 ifail= 2*0
 iclustr= 160,  435
 gap= 1.48126403123316905E-5,  1.47438546248700326E-5
(P)DSYGVX in subroutine dense_eigensolve returned info=    2
 ifail= 2*0
 iclustr= 268,  333
 gap= 1.38829934833225748E-5,  2.26919158990520829E-5
(P)DSYGVX in subroutine dense_eigensolve returned info=    2
 ifail= 2*0
 iclustr= 184,  363
 gap= 1.00912219490718842E-5,  1.24301311903660246E-5
(P)DSYGVX in subroutine dense_eigensolve returned info=    2
 ifail= 2*0
 iclustr= 184,  303
 gap= 2.83761824172546354E-5,  1.19539356212061978E-5
(P)DSYGVX in subroutine dense_eigensolve returned info=    2
 ifail= 2*0
 iclustr= 160,  530
 gap= 1.02279250557797428E-5,  1.29152388804232319E-5
   0     0.00040188860310 -21509.15173605035310   0.455055 -21510.72315419219380        
(P)DSYGVX in subroutine dense_eigensolve returned info=    2
 ifail= 2*0
 iclustr= 26,  115
 gap= 1.0603036089851124E-5,  1.49874611487613778E-5
(P)DSYGVX in subroutine dense_eigensolve returned info=    2
 ifail= 2*0
 iclustr= 223,  324
 gap= 1.30356917080688523E-5,  1.01355112977318911E-5
(P)DSYGVX in subroutine dense_eigensolve returned info=    2
 ifail= 2*0
 iclustr= 208,  409
 gap= 1.03666801596023581E-5,  1.11936700837092665E-5
(P)DSYGVX in subroutine dense_eigensolve returned info=    2
 ifail= 2*0
 iclustr= 223,  568
 gap= 1.01881458639329534E-5,  4.3193949411452306E-5
(P)DSYGVX in subroutine dense_eigensolve returned info=    2
 ifail= 2*0
 iclustr= 188,  402
 gap= 1.06316205620246951E-5,  1.32332335394371804E-5
(P)DSYGVX in subroutine dense_eigensolve returned info=    2
 ifail= 2*0
 iclustr= 181,  568
 gap= 1.02911413176608241E-5,  4.65952640917386004E-5
(P)DSYGVX in subroutine dense_eigensolve returned info=    2
 ifail= 2*0
 iclustr= 148,  399
 gap= 1.02167342549176144E-5,  1.00245001252667627E-5
(P)DSYGVX in subroutine dense_eigensolve returned info=    2
 ifail= 2*0
 iclustr= 148,  399
 gap= 1.3046997645775626E-5,  1.69001053207382799E-5
(P)DSYGVX in subroutine dense_eigensolve returned info=    2
 ifail= 2*0
 iclustr= 160,  363
 gap= 1.00606929395978917E-5,  1.00033502605172731E-5
(P)DSYGVX in subroutine dense_eigensolve returned info=    2
 ifail= 2*0
 iclustr= 160,  459
 gap= 1.0087920319790813E-5,  2.2787586530667341E-5
(P)DSYGVX in subroutine dense_eigensolve returned info=    2
 ifail= 2*0
 iclustr= 184,  375
 gap= 1.00708006170655148E-5,  1.01555809965456246E-5
(P)DSYGVX in subroutine dense_eigensolve returned info=    2
 ifail= 2*0
 iclustr= 160,  569
 gap= 1.05320653416488788E-5,  2.65962642231143902E-5
(P)DSYGVX in subroutine dense_eigensolve returned info=    2
 ifail= 2*0
 iclustr= 160,  394
 gap= 1.08276207409290848E-5,  1.10540860367314345E-5
(P)DSYGVX in subroutine dense_eigensolve returned info=    2
 ifail= 2*0
 iclustr= 160,  568
 gap= 1.24146054895916504E-5,  3.80531251626797435E-5
(P)DSYGVX in subroutine dense_eigensolve returned info=    2
 ifail= 2*0
 iclustr= 166,  309
 gap= 1.07070487240447126E-5,  1.08149301763391501E-5
(P)DSYGVX in subroutine dense_eigensolve returned info=    2
 ifail= 2*0
 iclustr= 157,  309
 gap= 1.13277645433315778E-5,  2.66203318311282381E-5
(P)DSYGVX in subroutine dense_eigensolve returned info=    2
 ifail= 2*0
 iclustr= 163,  588
 gap= 1.00023683957696531E-5,  2.47411306196134386E-5
(P)DSYGVX in subroutine dense_eigensolve returned info=    2
 ifail= 2*0
 iclustr= 1,  147
 gap= 1.05141923398096402E-5,  1.10176673686721077E-5
(P)DSYGVX in subroutine dense_eigensolve returned info=    2
 ifail= 2*0
 iclustr= 160,  588
 gap= 1.0029224243341403E-5,  2.02337116948945093E-5
(P)DSYGVX in subroutine dense_eigensolve returned info=    2
 ifail= 2*0
 iclustr= 1,  146
 gap= 1.03524327906165128E-5,  6.20547482513335188E-5
(P)DSYGVX in subroutine dense_eigensolve returned info=    2
 ifail= 2*0
 iclustr= 238,  315
 gap= 1.6274619927837807E-5,  1.52064840573005104E-5
(P)DSYGVX in subroutine dense_eigensolve returned info=    2
 ifail= 2*0
 iclustr= 160,  495
 gap= 1.0298882655732421E-5,  1.17032011986226238E-5
(P)DSYGVX in subroutine dense_eigensolve returned info=    2
 ifail= 2*0
 iclustr= 160,  569
 gap= 1.02793666394500396E-5,  1.1335137860829129E-5
(P)DSYGVX in subroutine dense_eigensolve returned info=    2
 ifail= 2*0
 iclustr= 160,  588
 gap= 1.06032554895390725E-5,  1.37877197679331452E-5
(P)DSYGVX in subroutine dense_eigensolve returned info=    2
 ifail= 2*0
 iclustr= 1,  147
 gap= 1.03628654894283437E-5,  6.44592701249341673E-5
(P)DSYGVX in subroutine dense_eigensolve returned info=    2
 ifail= 2*0
 iclustr= 328,  447
 gap= 1.26959890862317843E-5,  2.57589732152966167E-5
(P)DSYGVX in subroutine dense_eigensolve returned info=    2
 ifail= 2*0
 iclustr= 244,  405
 gap= 1.36180132711638503E-5,  1.60741908342659368E-5
(P)DSYGVX in subroutine dense_eigensolve returned info=    2
 ifail= 2*0
 iclustr= 160,  588
 gap= 1.03410894872385131E-5,  1.28631819784209682E-5
(P)DSYGVX in subroutine dense_eigensolve returned info=    2
 ifail= 2*0
 iclustr= 1,  147
 gap= 1.00129967685436976E-5,  6.98828280136182749E-5
(P)DSYGVX in subroutine dense_eigensolve returned info=    2
 ifail= 2*0
 iclustr= 160,  588
 gap= 1.00611513328390814E-5,  1.03981384361900586E-5
(P)DSYGVX in subroutine dense_eigensolve returned info=    2
 ifail= 2*0
 iclustr= 1,  147
 gap= 1.07648087333605303E-5,  1.04512757802647393E-5
(P)DSYGVX in subroutine dense_eigensolve returned info=    2
 ifail= 2*0
 iclustr= 469,  564
 gap= 1.55753532297954559E-5,  6.60877768067913559E-5
(P)DSYGVX in subroutine dense_eigensolve returned info=    2
 ifail= 2*0
 iclustr= 160,  495
 gap= 1.05392483270322486E-5,  1.50766361402157376E-5
(P)DSYGVX in subroutine dense_eigensolve returned info=    2
 ifail= 2*0
 iclustr= 1,  147
 gap= 1.05368394613994755E-5,  5.10856123129714882E-5
(P)DSYGVX in subroutine dense_eigensolve returned info=    2
 ifail= 2*0
 iclustr= 160,  588
 gap= 1.01677637701156284E-5,  3.07976847043971538E-5
(P)DSYGVX in subroutine dense_eigensolve returned info=    2
 ifail= 2*0
 iclustr= 1,  147
 gap= 1.00231986554810613E-5,  5.46043939389106544E-5
(P)DSYGVX in subroutine dense_eigensolve returned info=    2
 ifail= 2*0
 iclustr= 184,  294
 gap= 1.7872999316411909E-5,  1.68699367376113484E-5
(P)DSYGVX in subroutine dense_eigensolve returned info=    2
 ifail= 2*0
 iclustr= 163,  246
 gap= 2.4989818222377345E-5,  1.94269662289385104E-5
(P)DSYGVX in subroutine dense_eigensolve returned info=    2
 ifail= 2*0
 iclustr= 160,  588
 gap= 1.02110572632620009E-5,  3.01517313561254544E-5
(P)DSYGVX in subroutine dense_eigensolve returned info=    2
 ifail= 2*0
 iclustr= 1,  147
 gap= 1.11244134707469701E-5,  5.52730377535834872E-5
(P)DSYGVX in subroutine dense_eigensolve returned info=    2
 ifail= 2*0
 iclustr= 160,  588
 gap= 1.13393177670924238E-5,  2.88861984296983598E-5
(P)DSYGVX in subroutine dense_eigensolve returned info=    2
 ifail= 2*0
 iclustr= 1,  147
 gap= 1.02566590822570017E-5,  5.80122181495924992E-5
(P)DSYGVX in subroutine dense_eigensolve returned info=    2
 ifail= 2*0
 iclustr= 294,  402
 gap= 1.20406144943642435E-5,  5.62662981921243196E-5
(P)DSYGVX in subroutine dense_eigensolve returned info=    2
 ifail= 2*0
 iclustr= 160,  588
 gap= 1.14518693306994585E-5,  2.91861861489544235E-5
(P)DSYGVX in subroutine dense_eigensolve returned info=    2
 ifail= 2*0
 iclustr= 1,  147
 gap= 1.0075068800360724E-5,  5.56674820601743312E-5
(P)DSYGVX in subroutine dense_eigensolve returned info=    2
 ifail= 2*0
 iclustr= 160,  588
 gap= 1.04686679020252078E-5,  2.92000787343902182E-5
(P)DSYGVX in subroutine dense_eigensolve returned info=    2
 ifail= 2*0
 iclustr= 1,  147
 gap= 1.04079119073042771E-5,  5.54699040291209452E-5
(P)DSYGVX in subroutine dense_eigensolve returned info=    2
 ifail= 2*0
 iclustr= 160,  588
 gap= 1.0939594968544343E-5,  2.7780882832125392E-5
(P)DSYGVX in subroutine dense_eigensolve returned info=    2
 ifail= 2*0
 iclustr= 1,  147
 gap= 1.01991377443366143E-5,  5.70920308165761466E-5
(P)DSYGVX in subroutine dense_eigensolve returned info=    2
 ifail= 2*0
 iclustr= 190,  294
 gap= 4.44766054205332175E-5,  1.81036118331276011E-5
(P)DSYGVX in subroutine dense_eigensolve returned info=    2
 ifail= 2*0
 iclustr= 172,  246
 gap= 1.77767032649409151E-5,  2.69061977251536188E-5
(P)DSYGVX in subroutine dense_eigensolve returned info=    2
 ifail= 2*0
 iclustr= 160,  588
 gap= 1.08987452533712792E-5,  2.85618075028549368E-5
(P)DSYGVX in subroutine dense_eigensolve returned info=    2
 ifail= 2*0
 iclustr= 1,  147
 gap= 1.05445559909464107E-5,  5.7240569756536351E-5
(P)DSYGVX in subroutine dense_eigensolve returned info=    2
 ifail= 2*0
 iclustr= 160,  588
 gap= 1.03645895118300893E-5,  2.76370901133438023E-5
(P)DSYGVX in subroutine dense_eigensolve returned info=    2
 ifail= 2*0
 iclustr= 1,  147
 gap= 1.01170799973057681E-5,  5.68034160786465444E-5
(P)DSYGVX in subroutine dense_eigensolve returned info=    2
 ifail= 2*0
 iclustr= 160,  588
 gap= 1.00464391567195615E-5,  2.72089579794816992E-5
(P)DSYGVX in subroutine dense_eigensolve returned info=    2
 ifail= 2*0
 iclustr= 1,  147
 gap= 1.16795802102873161E-5,  5.706105527660619E-5
(P)DSYGVX in subroutine dense_eigensolve returned info=    2
 ifail= 2*0
 iclustr= 190,  294
 gap= 2.4924420709122488E-5,  1.68925777790358479E-5
(P)DSYGVX in subroutine dense_eigensolve returned info=    2
 ifail= 2*0
 iclustr= 172,  246
 gap= 1.52243978184713076E-5,  1.09136650542872406E-5
(P)DSYGVX in subroutine dense_eigensolve returned info=    2
 ifail= 2*0
 iclustr= 160,  588
 gap= 1.17946478612736708E-5,  2.70534859277112601E-5
(P)DSYGVX in subroutine dense_eigensolve returned info=    2
 ifail= 2*0
 iclustr= 1,  147
 gap= 1.00173516297842049E-5,  5.80990796806216798E-5
(P)DSYGVX in subroutine dense_eigensolve returned info=    2
 ifail= 2*0
 iclustr= 160,  588
 gap= 1.00562975949230085E-5,  2.69273841702021112E-5
(P)DSYGVX in subroutine dense_eigensolve returned info=    2
 ifail= 2*0
 iclustr= 1,  147
 gap= 1.17710975976169029E-5,  5.70156497317046452E-5
   1     0.00037530375241 -21513.25826111717110   0.427682 -21514.25234007276960        
(P)DSYGVX in subroutine dense_eigensolve returned info=    2
 ifail= 2*0
 iclustr= 185,  547
 gap= 1.06624177881949416E-5,  5.61526759565477413E-5
(P)DSYGVX in subroutine dense_eigensolve returned info=    2
 ifail= 2*0
 iclustr= 161,  556
 gap= 1.00410091424885538E-5,  3.68173948754751289E-5
(P)DSYGVX in subroutine dense_eigensolve returned info=    2
 ifail= 2*0
 iclustr= 163,  585
 gap= 1.03553522684739887E-5,  6.55283002529727263E-5
(P)DSYGVX in subroutine dense_eigensolve returned info=    2
 ifail= 2*0
 iclustr= 151,  582
 gap= 1.03197991495349861E-5,  1.78923237671114527E-5
(P)DSYGVX in subroutine dense_eigensolve returned info=    2
 ifail= 2*0
 iclustr= 160,  588
 gap= 1.03007331173995167E-5,  2.54096085928387393E-5
(P)DSYGVX in subroutine dense_eigensolve returned info=    2
 ifail= 2*0
 iclustr= 4,  147
 gap= 1.21095996246059398E-5,  8.78013735514409277E-5
(P)DSYGVX in subroutine dense_eigensolve returned info=    2
 ifail= 2*0
 iclustr= 160,  588
 gap= 1.06454151951558887E-5,  1.49074915855537896E-5
(P)DSYGVX in subroutine dense_eigensolve returned info=    2
 ifail= 2*0
 iclustr= 13,  147
 gap= 1.7829630999020133E-5,  6.37353575162719706E-5
(P)DSYGVX in subroutine dense_eigensolve returned info=    2
 ifail= 2*0
 iclustr= 160,  582
 gap= 1.06371759037313138E-5,  6.6125553532281949E-5
(P)DSYGVX in subroutine dense_eigensolve returned info=    2
 ifail= 2*0
 iclustr= 4,  143
 gap= 1.54284690097994918E-5,  1.10388456292158616E-5
(P)DSYGVX in subroutine dense_eigensolve returned info=    2
 ifail= 2*0
 iclustr= 160,  588
 gap= 1.12271089498943531E-5,  2.73289502000206593E-5
(P)DSYGVX in subroutine dense_eigensolve returned info=    2
 ifail= 2*0
 iclustr= 1,  147
 gap= 1.07134115280295632E-5,  5.30296375080303235E-5
(P)DSYGVX in subroutine dense_eigensolve returned info=    2
 ifail= 2*0
 iclustr= 160,  588
 gap= 1.03007331173995167E-5,  2.54096085928387393E-5
(P)DSYGVX in subroutine dense_eigensolve returned info=    2
 ifail= 2*0
 iclustr= 4,  147
 gap= 1.21095996246059398E-5,  8.78013735514409277E-5
(P)DSYGVX in subroutine dense_eigensolve returned info=    2
 ifail= 2*0
 iclustr= 53,  144
 gap= 3.56698258164582125E-5,  1.12951224899420288E-5
(P)DSYGVX in subroutine dense_eigensolve returned info=    2
 ifail= 2*0
 iclustr= 10,  146
 gap= 1.07235008663911211E-5,  1.04519578212705282E-5
(P)DSYGVX in subroutine dense_eigensolve returned info=    2
 ifail= 2*0
 iclustr= 160,  588
 gap= 1.02956211520398129E-5,  2.31409424341643576E-5
(P)DSYGVX in subroutine dense_eigensolve returned info=    2
 ifail= 2*0
 iclustr= 1,  147
 gap= 1.41330360456315844E-5,  5.58744608652404006E-5
(P)DSYGVX in subroutine dense_eigensolve returned info=    2
 ifail= 2*0
 iclustr= 160,  588
 gap= 1.02354128800790752E-5,  2.31287138727244559E-5
(P)DSYGVX in subroutine dense_eigensolve returned info=    2
 ifail= 2*0
 iclustr= 1,  147
 gap= 1.45725941750552305E-5,  5.49200713583221944E-5
(P)DSYGVX in subroutine dense_eigensolve returned info=    2
 ifail= 2*0
 iclustr= 284,  588
 gap= 1.08142451346951169E-5,  2.01234437347711701E-5
(P)DSYGVX in subroutine dense_eigensolve returned info=    2
 ifail= 2*0
 iclustr= 13,  147
 gap= 2.18448523462638368E-5,  6.52107208930415038E-5
(P)DSYGVX in subroutine dense_eigensolve returned info=    2
 ifail= 2*0
 iclustr= 157,  363
 gap= 1.44209008390295577E-5,  1.64762777360125529E-5
(P)DSYGVX in subroutine dense_eigensolve returned info=    2
 ifail= 2*0
 iclustr= 163,  581
 gap= 1.21801585389783121E-5,  5.43942307987387713E-5
(P)DSYGVX in subroutine dense_eigensolve returned info=    2
 ifail= 2*0
 iclustr= 160,  588
 gap= 1.19247883468485233E-5,  1.7451403171594762E-5
(P)DSYGVX in subroutine dense_eigensolve returned info=    2
 ifail= 2*0
 iclustr= 1,  147
 gap= 1.55671008105219161E-5,  6.27943595153518646E-5
(P)DSYGVX in subroutine dense_eigensolve returned info=    2
 ifail= 2*0
 iclustr= 160,  588
 gap= 1.02249340380307822E-5,  3.92844682950658437E-5
(P)DSYGVX in subroutine dense_eigensolve returned info=    2
 ifail= 2*0
 iclustr= 4,  146
 gap= 1.18105249624634756E-5,  1.00506714776324049E-5
(P)DSYGVX in subroutine dense_eigensolve returned info=    2
 ifail= 2*0
 iclustr= 1043,  1148
 gap= 2.46644811472907172E-5,  4.09807627819870461E-5
(P)DSYGVX in subroutine dense_eigensolve returned info=    2
 ifail= 2*0
 iclustr= 160,  588
 gap= 1.15247847899168886E-5,  1.87847498873426936E-5
(P)DSYGVX in subroutine dense_eigensolve returned info=    2
 ifail= 2*0
 iclustr= 1,  147
 gap= 1.17304925664676614E-5,  5.61912864757300919E-5
(P)DSYGVX in subroutine dense_eigensolve returned info=    2
 ifail= 2*0
 iclustr= 223,  588
 gap= 1.03730288899688004E-5,  4.5031598986784458E-5
(P)DSYGVX in subroutine dense_eigensolve returned info=    2
 ifail= 2*0
 iclustr= 13,  147
 gap= 1.46168880176432044E-5,  7.2013529246933391E-5
(P)DSYGVX in subroutine dense_eigensolve returned info=    2
 ifail= 2*0
 iclustr= 164,  312
 gap= 2.44003070313383826E-5,  1.51552392413744137E-5
(P)DSYGVX in subroutine dense_eigensolve returned info=    2
 ifail= 2*0
 iclustr= 192,  543
 gap= 1.17871532752204348E-5,  4.84319786194204691E-5
(P)DSYGVX in subroutine dense_eigensolve returned info=    2
 ifail= 2*0
 iclustr= 163,  588
 gap= 1.03192252634155265E-5,  6.72868882607891066E-5
(P)DSYGVX in subroutine dense_eigensolve returned info=    2
 ifail= 2*0
 iclustr= 13,  147
 gap= 1.02153270916258671E-5,  5.83326042437540209E-5
(P)DSYGVX in subroutine dense_eigensolve returned info=    2
 ifail= 2*0
 iclustr= 160,  588
 gap= 1.00920736529350092E-5,  4.87646548291740555E-5
(P)DSYGVX in subroutine dense_eigensolve returned info=    2
 ifail= 2*0
 iclustr= 10,  147
 gap= 1.004420234054879E-5,  7.91281073202920222E-5
(P)DSYGVX in subroutine dense_eigensolve returned info=    2
 ifail= 2*0
 iclustr= 439,  516
 gap= 1.98675483405271471E-5,  9.6734751851606905E-5
(P)DSYGVX in subroutine dense_eigensolve returned info=    2
 ifail= 2*0
 iclustr= 163,  588
 gap= 1.03330491178878754E-5,  7.13318652807520229E-5
(P)DSYGVX in subroutine dense_eigensolve returned info=    2
 ifail= 2*0
 iclustr= 13,  147
 gap= 1.27181003878577615E-5,  6.01432820558361151E-5
(P)DSYGVX in subroutine dense_eigensolve returned info=    2
 ifail= 2*0
 iclustr= 223,  588
 gap= 1.01308306309628164E-5,  2.69139815028815412E-5
(P)DSYGVX in subroutine dense_eigensolve returned info=    2
 ifail= 2*0
 iclustr= 13,  147
 gap= 1.11139887963649164E-5,  7.89630657504919068E-5
(P)DSYGVX in subroutine dense_eigensolve returned info=    2
 ifail= 2*0
 iclustr= 164,  312
 gap= 2.2860762601472247E-5,  1.01690633628089728E-5
(P)DSYGVX in subroutine dense_eigensolve returned info=    2
 ifail= 2*0
 iclustr= 163,  441
 gap= 1.00318255521876472E-5,  1.16603220373044518E-5
(P)DSYGVX in subroutine dense_eigensolve returned info=    2
 ifail= 2*0
 iclustr= 163,  588
 gap= 1.04139503655796577E-5,  2.27803410446810133E-5
(P)DSYGVX in subroutine dense_eigensolve returned info=    2
 ifail= 2*0
 iclustr= 13,  147
 gap= 1.00467264791751943E-5,  6.30796463885016537E-5
(P)DSYGVX in subroutine dense_eigensolve returned info=    2
 ifail= 2*0
 iclustr= 163,  588
 gap= 1.07260033306379203E-5,  2.68957440199267052E-5
(P)DSYGVX in subroutine dense_eigensolve returned info=    2
 ifail= 2*0
 iclustr= 1,  147
 gap= 1.12927912797803951E-5,  7.46540133384451424E-5
(P)DSYGVX in subroutine dense_eigensolve returned info=    2
 ifail= 2*0
 iclustr= 205,  290
 gap= 3.54170232221668075E-5,  1.7864499602496218E-5
(P)DSYGVX in subroutine dense_eigensolve returned info=    2
 ifail= 2*0
 iclustr= 163,  588
 gap= 1.04833288196222835E-5,  1.07427287503235767E-5
(P)DSYGVX in subroutine dense_eigensolve returned info=    2
 ifail= 2*0
 iclustr= 13,  147
 gap= 1.28429118475196189E-5,  6.45319108539003569E-5
(P)DSYGVX in subroutine dense_eigensolve returned info=    2
 ifail= 2*0
 iclustr= 223,  588
 gap= 1.00383079293598615E-5,  5.18502840737328121E-5
(P)DSYGVX in subroutine dense_eigensolve returned info=    2
 ifail= 2*0
 iclustr= 13,  127
 gap= 1.03431268300706403E-5,  8.47003646658163006E-5
(P)DSYGVX in subroutine dense_eigensolve returned info=    2
 ifail= 2*0
 iclustr= 199,  543
 gap= 1.04161334178091372E-5,  6.83242022045841364E-5
(P)DSYGVX in subroutine dense_eigensolve returned info=    2
 ifail= 2*0
 iclustr= 163,  558
 gap= 1.09676149464281485E-5,  2.8391393442698722E-5
(P)DSYGVX in subroutine dense_eigensolve returned info=    2
 ifail= 2*0
 iclustr= 163,  588
 gap= 1.01375634050472927E-5,  7.04162012164071411E-5
(P)DSYGVX in subroutine dense_eigensolve returned info=    2
 ifail= 2*0
 iclustr= 13,  147
 gap= 1.38392116509827565E-5,  7.12349991038655335E-5
(P)DSYGVX in subroutine dense_eigensolve returned info=    2
 ifail= 2*0
 iclustr= 163,  588
 gap= 1.00775267607511752E-5,  4.47212147872655093E-5
(P)DSYGVX in subroutine dense_eigensolve returned info=    2
 ifail= 2*0
 iclustr= 1,  147
 gap= 1.10923990518199016E-5,  7.4089889119821972E-5
(P)DSYGVX in subroutine dense_eigensolve returned info=    2
 ifail= 2*0
 iclustr= 187,  291
 gap= 1.05461836735450643E-5,  2.41071612559054807E-5
(P)DSYGVX in subroutine dense_eigensolve returned info=    2
 ifail= 2*0
 iclustr= 205,  291
 gap= 2.39561777091345332E-5,  1.40241163109588551E-5
(P)DSYGVX in subroutine dense_eigensolve returned info=    2
 ifail= 2*0
 iclustr= 163,  588
 gap= 1.03231013313410343E-5,  4.83197103412470958E-5
(P)DSYGVX in subroutine dense_eigensolve returned info=    2
 ifail= 2*0
 iclustr= 13,  147
 gap= 1.14263848203371259E-5,  7.07525450047580691E-5
   2     0.00029254943693 -21514.83518173128690   0.327942 -21515.35683168977990        
(P)DSYGVX in subroutine dense_eigensolve returned info=    2
 ifail= 2*0
 iclustr= 1146,  1294
 gap= 2.47623339938766275E-5,  2.08018517019272595E-5
(P)DSYGVX in subroutine dense_eigensolve returned info=    2
 ifail= 2*0
 iclustr= 154,  573
 gap= 1.01621762118164772E-5,  1.13923668680393015E-5
(P)DSYGVX in subroutine dense_eigensolve returned info=    2
 ifail= 2*0
 iclustr= 153,  570
 gap= 1.13329959601073812E-5,  1.08356464075291444E-5
(P)DSYGVX in subroutine dense_eigensolve returned info=    2
 ifail= 2*0
 iclustr= 2,  147
 gap= 1.10275315907242796E-5,  4.5402358039355166E-5
(P)DSYGVX in subroutine dense_eigensolve returned info=    2
 ifail= 2*0
 iclustr= 14,  147
 gap= 1.30232955652168296E-5,  3.18470742999012681E-6
(P)DSYGVX in subroutine dense_eigensolve returned info=    2
 ifail= 2*0
 iclustr= 199,  588
 gap= 1.07693611359463915E-5,  9.15557853227381139E-5
(P)DSYGVX in subroutine dense_eigensolve returned info=    2
 ifail= 2*0
 iclustr= 14,  115
 gap= 1.23916443916469695E-5,  1.20134551767889268E-5
(P)DSYGVX in subroutine dense_eigensolve returned info=    2
 ifail= 2*0
 iclustr= 5,  146
 gap= 1.16324571808473024E-5,  1.05547898153142324E-5
(P)DSYGVX in subroutine dense_eigensolve returned info=    2
 ifail= 2*0
 iclustr= 11,  144
 gap= 1.31603957262331807E-5,  1.00157455090815882E-5
(P)DSYGVX in subroutine dense_eigensolve returned info=    2
 ifail= 2*0
 iclustr= 163,  588
 gap= 1.06900833701755018E-5,  4.62320309782725397E-5
(P)DSYGVX in subroutine dense_eigensolve returned info=    2
 ifail= 2*0
 iclustr= 13,  147
 gap= 1.0115550553597751E-5,  6.74380980311430859E-5
(P)DSYGVX in subroutine dense_eigensolve returned info=    2
 ifail= 2*0
 iclustr= 2,  147
 gap= 1.10275315907242796E-5,  4.5402358039355166E-5
(P)DSYGVX in subroutine dense_eigensolve returned info=    2
 ifail= 2*0
 iclustr= 14,  147
 gap= 1.30232955652168296E-5,  3.18470742999012681E-6
(P)DSYGVX in subroutine dense_eigensolve returned info=    2
 ifail= 2*0
 iclustr= 1,  146
 gap= 1.19349086239409337E-5,  1.03452629921445837E-5
(P)DSYGVX in subroutine dense_eigensolve returned info=    2
 ifail= 2*0
 iclustr= 7,  140
 gap= 1.02904868929168957E-5,  1.00181261732138866E-5
(P)DSYGVX in subroutine dense_eigensolve returned info=    2
 ifail= 2*0
 iclustr= 163,  588
 gap= 1.02192755190867493E-5,  9.13582005838158348E-5
(P)DSYGVX in subroutine dense_eigensolve returned info=    2
 ifail= 2*0
 iclustr= 14,  147
 gap= 1.26082863363447327E-5,  7.20270174346616585E-5
(P)DSYGVX in subroutine dense_eigensolve returned info=    2
 ifail= 2*0
 iclustr= 163,  588
 gap= 1.02183643052501439E-5,  9.13186750830112027E-5
(P)DSYGVX in subroutine dense_eigensolve returned info=    2
 ifail= 2*0
 iclustr= 14,  147
 gap= 1.25961434798642483E-5,  7.19869214758288398E-5
(P)DSYGVX in subroutine dense_eigensolve returned info=    2
 ifail= 2*0
 iclustr= 199,  588
 gap= 1.03271298310425974E-5,  9.24925202687966805E-5
(P)DSYGVX in subroutine dense_eigensolve returned info=    2
 ifail= 2*0
 iclustr= 14,  115
 gap= 1.17845019473292239E-5,  1.41852613421911407E-5
(P)DSYGVX in subroutine dense_eigensolve returned info=    2
 ifail= 2*0
 iclustr= 184,  384
 gap= 1.99020610871917255E-5,  1.19610128098884407E-5
(P)DSYGVX in subroutine dense_eigensolve returned info=    2
 ifail= 2*0
 iclustr= 166,  264
 gap= 3.61635545621185903E-5,  1.0554419158326662E-5
(P)DSYGVX in subroutine dense_eigensolve returned info=    2
 ifail= 2*0
 iclustr= 163,  588
 gap= 1.03943136243312433E-5,  8.66006260159839962E-5
(P)DSYGVX in subroutine dense_eigensolve returned info=    2
 ifail= 2*0
 iclustr= 14,  115
 gap= 1.06820157917158476E-5,  2.81366775019996377E-5
(P)DSYGVX in subroutine dense_eigensolve returned info=    2
 ifail= 2*0
 iclustr= 5,  147
 gap= 1.54068963787309945E-5,  7.95382985245636265E-5
(P)DSYGVX in subroutine dense_eigensolve returned info=    2
 ifail= 2*0
 iclustr= 14,  144
 gap= 1.24400842690128335E-5,  8.88576200861576122E-5
(P)DSYGVX in subroutine dense_eigensolve returned info=    2
 ifail= 2*0
 iclustr= 277,  363
 gap= 1.5172130591156317E-5,  5.86570787059018738E-5
(P)DSYGVX in subroutine dense_eigensolve returned info=    2
 ifail= 2*0
 iclustr= 409,  501
 gap= 2.23986039250146434E-5,  8.71246030225278822E-5
(P)DSYGVX in subroutine dense_eigensolve returned info=    2
 ifail= 2*0
 iclustr= 2,  147
 gap= 1.0460340022130306E-5,  3.92816291810770156E-5
(P)DSYGVX in subroutine dense_eigensolve returned info=    2
 ifail= 2*0
 iclustr= 14,  147
 gap= 1.27425703179245707E-5,  8.11709099312336976E-5
(P)DSYGVX in subroutine dense_eigensolve returned info=    2
 ifail= 2*0
 iclustr= 14,  127
 gap= 1.12806181715988506E-5,  9.32594668246305563E-5
(P)DSYGVX in subroutine dense_eigensolve returned info=    2
 ifail= 2*0
 iclustr= 14,  115
 gap= 1.0551365658404681E-5,  1.08283319429170624E-5
(P)DSYGVX in subroutine dense_eigensolve returned info=    2
 ifail= 2*0
 iclustr= 175,  525
 gap= 1.09920257211112328E-5,  1.78591767143812936E-5
(P)DSYGVX in subroutine dense_eigensolve returned info=    2
 ifail= 2*0
 iclustr= 180,  546
 gap= 1.08915796818755529E-5,  3.76668590142513137E-5
(P)DSYGVX in subroutine dense_eigensolve returned info=    2
 ifail= 2*0
 iclustr= 14,  127
 gap= 1.02790614937755946E-5,  8.72606279761576074E-5
(P)DSYGVX in subroutine dense_eigensolve returned info=    2
 ifail= 2*0
 iclustr= 14,  115
 gap= 1.5408142848115412E-5,  1.39059397053868802E-5
(P)DSYGVX in subroutine dense_eigensolve returned info=    2
 ifail= 2*0
 iclustr= 5,  147
 gap= 1.3342437585118011E-5,  7.66795876802465369E-5
(P)DSYGVX in subroutine dense_eigensolve returned info=    2
 ifail= 2*0
 iclustr= 14,  144
 gap= 1.14994060808487054E-5,  8.90153489594706682E-5
(P)DSYGVX in subroutine dense_eigensolve returned info=    2
 ifail= 2*0
 iclustr= 280,  369
 gap= 2.23251656193506861E-5,  1.01605628781712031E-5
(P)DSYGVX in subroutine dense_eigensolve returned info=    2
 ifail= 2*0
 iclustr= 409,  504
 gap= 1.78576868302786984E-5,  6.10925977440812597E-5
(P)DSYGVX in subroutine dense_eigensolve returned info=    2
 ifail= 2*0
 iclustr= 14,  127
 gap= 1.00478457069901326E-5,  1.0294833990237635E-5
(P)DSYGVX in subroutine dense_eigensolve returned info=    2
 ifail= 2*0
 iclustr= 14,  147
 gap= 1.07142904055553477E-5,  9.94140060830912321E-5
(P)DSYGVX in subroutine dense_eigensolve returned info=    2
 ifail= 2*0
 iclustr= 14,  127
 gap= 1.22678930662730952E-5,  1.11996071387626157E-5
(P)DSYGVX in subroutine dense_eigensolve returned info=    2
 ifail= 2*0
 iclustr= 224,  544
 gap= 1.12476129602546623E-5,  1.47069477427429829E-5
(P)DSYGVX in subroutine dense_eigensolve returned info=    2
 ifail= 2*0
 iclustr= 169,  460
 gap= 1.13989431058608322E-5,  1.69452834566422029E-5
(P)DSYGVX in subroutine dense_eigensolve returned info=    2
 ifail= 2*0
 iclustr= 178,  345
 gap= 1.06756216706659245E-5,  1.37640302603411848E-5
(P)DSYGVX in subroutine dense_eigensolve returned info=    2
 ifail= 2*0
 iclustr= 14,  127
 gap= 1.04786434002181794E-5,  1.00624978248732786E-5
(P)DSYGVX in subroutine dense_eigensolve returned info=    2
 ifail= 2*0
 iclustr= 224,  544
 gap= 1.24632348331245841E-5,  1.38319006723884827E-5
(P)DSYGVX in subroutine dense_eigensolve returned info=    2
 ifail= 2*0
 iclustr= 2,  127
 gap= 1.12656745101310204E-5,  1.03264892353778014E-5
(P)DSYGVX in subroutine dense_eigensolve returned info=    2
 ifail= 2*0
 iclustr= 14,  144
 gap= 1.03040653712232288E-5,  1.02104323615472579E-6
(P)DSYGVX in subroutine dense_eigensolve returned info=    2
 ifail= 2*0
 iclustr= 280,  363
 gap= 1.00274625191917482E-5,  9.10332743814300596E-5
(P)DSYGVX in subroutine dense_eigensolve returned info=    2
 ifail= 2*0
 iclustr= 14,  127
 gap= 1.49924006755816972E-5,  1.0544737208635203E-5
(P)DSYGVX in subroutine dense_eigensolve returned info=    2
 ifail= 2*0
 iclustr= 14,  147
 gap= 1.30986375160708335E-5,  1.47229968617464773E-5
(P)DSYGVX in subroutine dense_eigensolve returned info=    2
 ifail= 2*0
 iclustr= 14,  127
 gap= 1.6880090520604058E-5,  1.0645092460557413E-5
(P)DSYGVX in subroutine dense_eigensolve returned info=    2
 ifail= 2*0
 iclustr= 224,  544
 gap= 1.06161403207799687E-5,  1.17428758776997469E-5
(P)DSYGVX in subroutine dense_eigensolve returned info=    2
 ifail= 2*0
 iclustr= 169,  463
 gap= 1.39797177626686868E-5,  1.51483419534056614E-5
(P)DSYGVX in subroutine dense_eigensolve returned info=    2
 ifail= 2*0
 iclustr= 178,  573
 gap= 1.06916036784856974E-5,  3.21865606733037437E-5
(P)DSYGVX in subroutine dense_eigensolve returned info=    2
 ifail= 2*0
 iclustr= 14,  127
 gap= 1.52491921868040899E-5,  1.0137044256649023E-5
(P)DSYGVX in subroutine dense_eigensolve returned info=    2
 ifail= 2*0
 iclustr= 224,  544
 gap= 1.09703075560033904E-5,  1.12493782572180809E-5
(P)DSYGVX in subroutine dense_eigensolve returned info=    2
 ifail= 2*0
 iclustr= 14,  124
 gap= 1.36042241340759744E-5,  1.00411931762068653E-5
(P)DSYGVX in subroutine dense_eigensolve returned info=    2
 ifail= 2*0
 iclustr= 14,  138
 gap= 1.07146854104061331E-5,  1.01183544202119529E-5
(P)DSYGVX in subroutine dense_eigensolve returned info=    2
 ifail= 2*0
 iclustr= 274,  378
 gap= 1.66897863080665054E-5,  2.92149258676090636E-5
(P)DSYGVX in subroutine dense_eigensolve returned info=    2
 ifail= 2*0
 iclustr= 167,  264
 gap= 1.01509155292191829E-5,  2.6671157095336054E-5
(P)DSYGVX in subroutine dense_eigensolve returned info=    2
 ifail= 2*0
 iclustr= 14,  127
 gap= 1.20681761675210807E-5,  1.04286917687454335E-5
(P)DSYGVX in subroutine dense_eigensolve returned info=    2
 ifail= 2*0
 iclustr= 224,  588
 gap= 1.31711414133070475E-6,  3.26180772110282874E-6
   3     0.00020011828368 -21515.92933606181400   0.370107 -21516.24844816768750        
(P)DSYGVX in subroutine dense_eigensolve returned info=    2
 ifail= 2*0
 iclustr= 232,  423
 gap= 1.0633039685467211E-5,  2.01617238468127492E-5
(P)DSYGVX in subroutine dense_eigensolve returned info=    2
 ifail= 2*0
 iclustr= 223,  504
 gap= 1.08985205531883228E-5,  2.11166083637785049E-5
(P)DSYGVX in subroutine dense_eigensolve returned info=    2
 ifail= 2*0
 iclustr= 167,  582
 gap= 1.10330909014822601E-5,  1.39435118738050207E-5
(P)DSYGVX in subroutine dense_eigensolve returned info=    2
 ifail= 2*0
 iclustr= 154,  570
 gap= 1.28205307901515075E-5,  1.08264756403004351E-5
(P)DSYGVX in subroutine dense_eigensolve returned info=    2
 ifail= 2*0
 iclustr= 14,  115
 gap= 1.13472917486563683E-5,  1.28043859355778985E-5
(P)DSYGVX in subroutine dense_eigensolve returned info=    2
 ifail= 2*0
 iclustr= 224,  564
 gap= 1.75963838201813747E-6,  1.81085892195915209E-5
(P)DSYGVX in subroutine dense_eigensolve returned info=    2
 ifail= 2*0
 iclustr= 14,  127
 gap= 2.32465068313301455E-6,  2.84522304135685448E-6
(P)DSYGVX in subroutine dense_eigensolve returned info=    2
 ifail= 2*0
 iclustr= 224,  564
 gap= 1.04118014409349593E-5,  2.60021064802878331E-5
(P)DSYGVX in subroutine dense_eigensolve returned info=    2
 ifail= 2*0
 iclustr= 11,  147
 gap= 2.27572734007724219E-5,  1.05190822143524257E-5
(P)DSYGVX in subroutine dense_eigensolve returned info=    2
 ifail= 2*0
 iclustr= 160,  564
 gap= 1.12056161562334894E-5,  2.27618093844044503E-5
(P)DSYGVX in subroutine dense_eigensolve returned info=    2
 ifail= 2*0
 iclustr= 14,  127
 gap= 1.00653338991232258E-5,  1.01669313400481062E-5
(P)DSYGVX in subroutine dense_eigensolve returned info=    2
 ifail= 2*0
 iclustr= 224,  588
 gap= 2.6940239728584214E-6,  3.17790500695743506E-6
(P)DSYGVX in subroutine dense_eigensolve returned info=    2
 ifail= 2*0
 iclustr= 14,  115
 gap= 1.13472917486563683E-5,  1.28043859355778985E-5
(P)DSYGVX in subroutine dense_eigensolve returned info=    2
 ifail= 2*0
 iclustr= 224,  564
 gap= 1.75963838201813747E-6,  1.81085892195915209E-5
(P)DSYGVX in subroutine dense_eigensolve returned info=    2
 ifail= 2*0
 iclustr= 11,  134
 gap= 1.13171659043759224E-5,  1.00583795362666837E-5
(P)DSYGVX in subroutine dense_eigensolve returned info=    2
 ifail= 2*0
 iclustr= 11,  138
 gap= 1.58876146691711751E-5,  1.09857054562768273E-5
(P)DSYGVX in subroutine dense_eigensolve returned info=    2
 ifail= 2*0
 iclustr= 14,  115
 gap= 1.03254857317195525E-5,  2.4049927003311386E-5
(P)DSYGVX in subroutine dense_eigensolve returned info=    2
 ifail= 2*0
 iclustr= 224,  564
 gap= 1.82746283530572685E-6,  4.46104056384056857E-5
(P)DSYGVX in subroutine dense_eigensolve returned info=    2
 ifail= 2*0
 iclustr= 14,  115
 gap= 1.04905569273451593E-5,  2.94257575697713024E-5
(P)DSYGVX in subroutine dense_eigensolve returned info=    2
 ifail= 2*0
 iclustr= 224,  564
 gap= 1.42601377463268827E-6,  5.60924980722185508E-5
(P)DSYGVX in subroutine dense_eigensolve returned info=    2
 ifail= 2*0
 iclustr= 14,  115
 gap= 1.14226146997563112E-5,  1.24144916412383423E-5
(P)DSYGVX in subroutine dense_eigensolve returned info=    2
 ifail= 2*0
 iclustr= 224,  564
 gap= 2.65227595062899587E-6,  1.88607214915555077E-5
(P)DSYGVX in subroutine dense_eigensolve returned info=    2
 ifail= 2*0
 iclustr= 169,  568
 gap= 1.50940870614748149E-5,  2.1866177169971626E-5
(P)DSYGVX in subroutine dense_eigensolve returned info=    2
 ifail= 2*0
 iclustr= 181,  573
 gap= 1.05806023837509301E-5,  2.36539804155931067E-5
(P)DSYGVX in subroutine dense_eigensolve returned info=    2
 ifail= 2*0
 iclustr= 14,  115
 gap= 1.55370693985015164E-5,  1.67121397153432701E-5
(P)DSYGVX in subroutine dense_eigensolve returned info=    2
 ifail= 2*0
 iclustr= 298,  564
 gap= 1.00213895203260513E-5,  2.40440628011875822E-5
(P)DSYGVX in subroutine dense_eigensolve returned info=    2
 ifail= 2*0
 iclustr= 14,  147
 gap= 1.78259006743103169E-5,  1.05917477917164366E-5
(P)DSYGVX in subroutine dense_eigensolve returned info=    2
 ifail= 2*0
 iclustr= 160,  570
 gap= 1.03873956777882609E-5,  2.34118119630220766E-5
(P)DSYGVX in subroutine dense_eigensolve returned info=    2
 ifail= 2*0
 iclustr= 14,  115
 gap= 1.21283443871628825E-5,  2.12037572456839909E-5
(P)DSYGVX in subroutine dense_eigensolve returned info=    2
 ifail= 2*0
 iclustr= 224,  564
 gap= 4.01047428166189289E-6,  3.94959610347092377E-5
(P)DSYGVX in subroutine dense_eigensolve returned info=    2
 ifail= 2*0
 iclustr= 14,  115
 gap= 1.03477896778648816E-5,  1.36847378588379379E-5
(P)DSYGVX in subroutine dense_eigensolve returned info=    2
 ifail= 2*0
 iclustr= 224,  564
 gap= 1.04365199820987706E-5,  5.6720129252508855E-5
(P)DSYGVX in subroutine dense_eigensolve returned info=    2
 ifail= 2*0
 iclustr= 14,  115
 gap= 1.05511228149505154E-5,  1.14569338173062961E-5
(P)DSYGVX in subroutine dense_eigensolve returned info=    2
 ifail= 2*0
 iclustr= 298,  564
 gap= 1.1582386369144305E-5,  1.80080231257307456E-5
(P)DSYGVX in subroutine dense_eigensolve returned info=    2
 ifail= 2*0
 iclustr= 169,  576
 gap= 1.15391484728980038E-5,  2.3516016072703552E-5
(P)DSYGVX in subroutine dense_eigensolve returned info=    2
 ifail= 2*0
 iclustr= 181,  573
 gap= 1.01434634684481401E-5,  2.46496657211153161E-5
(P)DSYGVX in subroutine dense_eigensolve returned info=    2
 ifail= 2*0
 iclustr= 14,  115
 gap= 1.13415871698339763E-5,  1.64713777936768206E-5
(P)DSYGVX in subroutine dense_eigensolve returned info=    2
 ifail= 2*0
 iclustr= 298,  564
 gap= 1.03746254945552319E-5,  2.40520804300851887E-5
(P)DSYGVX in subroutine dense_eigensolve returned info=    2
 ifail= 2*0
 iclustr= 14,  147
 gap= 1.35708372209900067E-5,  1.05867714056173061E-5
(P)DSYGVX in subroutine dense_eigensolve returned info=    2
 ifail= 2*0
 iclustr= 160,  564
 gap= 1.03558721747857606E-5,  2.37298306318750994E-5
(P)DSYGVX in subroutine dense_eigensolve returned info=    2
 ifail= 2*0
 iclustr= 268,  402
 gap= 1.22226583816186809E-5,  1.98062775043965437E-5
(P)DSYGVX in subroutine dense_eigensolve returned info=    2
 ifail= 2*0
 iclustr= 180,  240
 gap= 1.07751285877594819E-5,  3.43384656870082447E-5
(P)DSYGVX in subroutine dense_eigensolve returned info=    2
 ifail= 2*0
 iclustr= 14,  115
 gap= 1.46275222248018788E-5,  2.37254141344309286E-5
(P)DSYGVX in subroutine dense_eigensolve returned info=    2
 ifail= 2*0
 iclustr= 224,  564
 gap= 2.06956692052707125E-6,  5.59830067366481884E-5
(P)DSYGVX in subroutine dense_eigensolve returned info=    2
 ifail= 2*0
 iclustr= 14,  115
 gap= 1.09504012999884755E-5,  1.18423447929076085E-5
(P)DSYGVX in subroutine dense_eigensolve returned info=    2
 ifail= 2*0
 iclustr= 298,  564
 gap= 1.01832282774297881E-5,  1.7629862348437372E-5
(P)DSYGVX in subroutine dense_eigensolve returned info=    2
 ifail= 2*0
 iclustr= 166,  537
 gap= 1.08469107180330482E-5,  1.43757921403472745E-5
(P)DSYGVX in subroutine dense_eigensolve returned info=    2
 ifail= 2*0
 iclustr= 164,  573
 gap= 1.17497824335314724E-5,  2.19492162549224669E-5
(P)DSYGVX in subroutine dense_eigensolve returned info=    2
 ifail= 2*0
 iclustr= 187,  564
 gap= 1.0491649280847357E-5,  3.08778108131002569E-5
(P)DSYGVX in subroutine dense_eigensolve returned info=    2
 ifail= 2*0
 iclustr= 298,  564
 gap= 1.00304673212099535E-5,  2.39645028854327043E-5
(P)DSYGVX in subroutine dense_eigensolve returned info=    2
 ifail= 2*0
 iclustr= 14,  115
 gap= 1.10843309110083008E-5,  2.60318944808071233E-5
(P)DSYGVX in subroutine dense_eigensolve returned info=    2
 ifail= 2*0
 iclustr= 163,  564
 gap= 1.03160345448508572E-5,  9.98536301914296063E-5
(P)DSYGVX in subroutine dense_eigensolve returned info=    2
 ifail= 2*0
 iclustr= 172,  457
 gap= 1.20865044261075113E-5,  1.7512219483250667E-5
(P)DSYGVX in subroutine dense_eigensolve returned info=    2
 ifail= 2*0
 iclustr= 220,  372
 gap= 1.23675576506304325E-5,  1.86902875146288269E-5
(P)DSYGVX in subroutine dense_eigensolve returned info=    2
 ifail= 2*0
 iclustr= 14,  115
 gap= 1.3631542906233772E-5,  2.83206507575807298E-5
(P)DSYGVX in subroutine dense_eigensolve returned info=    2
 ifail= 2*0
 iclustr= 298,  564
 gap= 1.01537380492733665E-6,  5.47131587092019046E-5
(P)DSYGVX in subroutine dense_eigensolve returned info=    2
 ifail= 2*0
 iclustr= 187,  564
 gap= 1.05125600454745144E-5,  3.42962203127409086E-5
(P)DSYGVX in subroutine dense_eigensolve returned info=    2
 ifail= 2*0
 iclustr= 298,  564
 gap= 1.10489860008085002E-5,  1.83292125907758821E-5
(P)DSYGVX in subroutine dense_eigensolve returned info=    2
 ifail= 2*0
 iclustr= 166,  537
 gap= 1.09823147966903824E-5,  1.71964192343489804E-5
(P)DSYGVX in subroutine dense_eigensolve returned info=    2
 ifail= 2*0
 iclustr= 228,  573
 gap= 1.48412982369243337E-5,  1.91550026111063778E-5
(P)DSYGVX in subroutine dense_eigensolve returned info=    2
 ifail= 2*0
 iclustr= 187,  564
 gap= 1.13724071706327414E-5,  3.47116729113960927E-5
(P)DSYGVX in subroutine dense_eigensolve returned info=    2
 ifail= 2*0
 iclustr= 298,  564
 gap= 1.0630480062943089E-5,  2.4181309106549487E-5
(P)DSYGVX in subroutine dense_eigensolve returned info=    2
 ifail= 2*0
 iclustr= 14,  115
 gap= 1.01646505213361118E-5,  2.64035184743711745E-5
(P)DSYGVX in subroutine dense_eigensolve returned info=    2
 ifail= 2*0
 iclustr= 163,  564
 gap= 1.00290144711964986E-5,  9.12542847577085196E-5
(P)DSYGVX in subroutine dense_eigensolve returned info=    2
 ifail= 2*0
 iclustr= 166,  463
 gap= 1.20167467439167255E-5,  1.03321485371047203E-5
(P)DSYGVX in subroutine dense_eigensolve returned info=    2
 ifail= 2*0
 iclustr= 232,  324
 gap= 2.25171173101513032E-5,  1.55615034304226093E-5
(P)DSYGVX in subroutine dense_eigensolve returned info=    2
 ifail= 2*0
 iclustr= 187,  564
 gap= 1.02376127960992802E-5,  2.62959333797744729E-5
(P)DSYGVX in subroutine dense_eigensolve returned info=    2
 ifail= 2*0
 iclustr= 298,  564
 gap= 1.06379129783561897E-5,  5.28216164224741959E-5
   4     0.00011177382078 -21516.53878515524410   0.369287 -21516.63742696440750        
(P)DSYGVX in subroutine dense_eigensolve returned info=    2
 ifail= 2*0
 iclustr= 157,  546
 gap= 1.00566427998751429E-5,  3.59323715262585775E-5
(P)DSYGVX in subroutine dense_eigensolve returned info=    2
 ifail= 2*0
 iclustr= 164,  570
 gap= 1.03353215376822118E-5,  1.74622873102423391E-5
(P)DSYGVX in subroutine dense_eigensolve returned info=    2
 ifail= 2*0
 iclustr= 26,  140
 gap= 1.3035052117658418E-5,  1.10761758041226705E-5
(P)DSYGVX in subroutine dense_eigensolve returned info=    2
 ifail= 2*0
 iclustr= 29,  104
 gap= 1.01094047642572736E-5,  5.64157429770685144E-5
(P)DSYGVX in subroutine dense_eigensolve returned info=    2
 ifail= 2*0
 iclustr= 187,  564
 gap= 1.04790867558255502E-5,  3.80590571126607135E-5
(P)DSYGVX in subroutine dense_eigensolve returned info=    2
 ifail= 2*0
 iclustr= 298,  564
 gap= 1.01385480568442803E-5,  2.34851008069274346E-5
(P)DSYGVX in subroutine dense_eigensolve returned info=    2
 ifail= 2*0
 iclustr= 14,  115
 gap= 1.47366125706202976E-5,  2.03115621536495098E-5
(P)DSYGVX in subroutine dense_eigensolve returned info=    2
 ifail= 2*0
 iclustr= 224,  564
 gap= 1.04131987371120977E-5,  8.51188604009713701E-5
(P)DSYGVX in subroutine dense_eigensolve returned info=    2
 ifail= 2*0
 iclustr= 241,  378
 gap= 1.15972883694399019E-5,  1.23477316525758786E-5
(P)DSYGVX in subroutine dense_eigensolve returned info=    2
 ifail= 2*0
 iclustr= 178,  483
 gap= 1.01781291282727478E-5,  2.53867953720194203E-5
(P)DSYGVX in subroutine dense_eigensolve returned info=    2
 ifail= 2*0
 iclustr= 187,  564
 gap= 1.02326621433595289E-5,  2.35115890924000902E-5
(P)DSYGVX in subroutine dense_eigensolve returned info=    2
 ifail= 2*0
 iclustr= 298,  564
 gap= 1.04571290694947652E-5,  5.05097751906984435E-5
(P)DSYGVX in subroutine dense_eigensolve returned info=    2
 ifail= 2*0
 iclustr= 187,  432
 gap= 1.04009487378816494E-5,  1.11359417132433445E-5
(P)DSYGVX in subroutine dense_eigensolve returned info=    2
 ifail= 2*0
 iclustr= 298,  564
 gap= 1.06253566616687412E-5,  2.08012725761932479E-5
(P)DSYGVX in subroutine dense_eigensolve returned info=    2
 ifail= 2*0
 iclustr= 166,  562
 gap= 1.05677453274996836E-5,  3.75461341973025583E-5
(P)DSYGVX in subroutine dense_eigensolve returned info=    2
 ifail= 2*0
 iclustr= 164,  567
 gap= 1.05684389341442492E-5,  2.86594553548240795E-5
(P)DSYGVX in subroutine dense_eigensolve returned info=    2
 ifail= 2*0
 iclustr= 187,  432
 gap= 1.23985056425644084E-5,  1.16796737879608039E-5
(P)DSYGVX in subroutine dense_eigensolve returned info=    2
 ifail= 2*0
 iclustr= 298,  564
 gap= 1.05532422878232057E-5,  2.84699065475544772E-5
(P)DSYGVX in subroutine dense_eigensolve returned info=    2
 ifail= 2*0
 iclustr= 151,  564
[...]
 |  previous  |    0.000000 |    0.009847 |   -21517.356430 | <-- min BFGS
 | trial step |    1.000000 |    0.005733 |   -21517.383624 | <-- min BFGS
 +------------+-------------+-------------+-----------------+ <-- min BFGS
  
 Backing up NGWFs to file "Co_cluster3_nspF.tightbox_ngwfs.bfgs_back" ... done
 Backing up Hamiltonian to file "Co_cluster3_nspF.ham.bfgs_back" ... done

--------------------------------------------------------------------------------
 BFGS: improving iteration   3 with line minimization (lambda=    2.393690)
--------------------------------------------------------------------------------
Calculating Ewald energy ...            71255.068007 Hartree

============================= Charge Augmentation ==============================
                           Aug box size:   33 x  33 x  33
================================================================================

Reading NGWFs from file "Co_cluster3_nspF.tightbox_ngwfs" ... done

================================= Core Density =================================
               Core den box size:   33 x  33 x  33
================================================================================
Density renormalisation, spin  1 ...
Target Charge:  1382.431710508446 ; Input Charge:  1470.035160446801
Density renormalisation, spin  2 ...
Target Charge:  1116.568289491554 ; Input Charge:  1029.027714625905
Density kernel initialisation

################################################################################
###################### NGWF self-consistent optimisation #######################
################################################################################
|ITER|    RMS GRADIENT   |     TOTAL ENERGY    |   step   |     Epredicted      

Reading Hamiltonian from file "Co_cluster3_nspF.ham" ... done
(P)DSYGVX in subroutine dense_eigensolve returned info=    2
 ifail= 2*0
 iclustr= 55,  134
 gap= 1.24142079525807653E-5,  1.16080987957867876E-5
(P)DSYGVX in subroutine dense_eigensolve returned info=    2
 ifail= 2*0
 iclustr= 307,  564
 gap= 1.1145804248579342E-5,  3.75685467147860222E-5
(P)DSYGVX in subroutine dense_eigensolve returned info=    2
 ifail= 2*0
 iclustr= 55,  134
 gap= 1.04902019290788991E-5,  2.207552613568716E-5
(P)DSYGVX in subroutine dense_eigensolve returned info=    2
 ifail= 2*0
 iclustr= 187,  306
 gap= 1.90047139316379727E-5,  1.07925153891272271E-5
(P)DSYGVX in subroutine dense_eigensolve returned info=    2
 ifail= 2*0
 iclustr= 55,  135
 gap= 1.2663033564509464E-5,  2.30272016079758971E-5
(P)DSYGVX in subroutine dense_eigensolve returned info=    2
 ifail= 2*0
 iclustr= 187,  301
 gap= 1.38660519290546087E-5,  1.14758827534983892E-5
(P)DSYGVX in subroutine dense_eigensolve returned info=    2
 ifail= 2*0
 iclustr= 55,  134
 gap= 1.07616564260591482E-5,  2.14437543934184627E-5
(P)DSYGVX in subroutine dense_eigensolve returned info=    2
 ifail= 2*0
 iclustr= 187,  306
 gap= 1.606041655781453E-5,  1.04536278986257087E-5
(P)DSYGVX in subroutine dense_eigensolve returned info=    2
 ifail= 2*0
 iclustr= 244,  541
 gap= 1.10916625457880464E-5,  1.75898662319903365E-5
(P)DSYGVX in subroutine dense_eigensolve returned info=    2
 ifail= 2*0
 iclustr= 163,  551
 gap= 1.01817533166483776E-5,  2.93347962690010366E-5
(P)DSYGVX in subroutine dense_eigensolve returned info=    2
 ifail= 2*0
 iclustr= 169,  562
 gap= 1.03680759990116693E-5,  3.73565237133177344E-5
(P)DSYGVX in subroutine dense_eigensolve returned info=    2
 ifail= 2*0
 iclustr= 208,  588
 gap= 1.03850423102693658E-5,  1.20386137003072006E-5
(P)DSYGVX in subroutine dense_eigensolve returned info=    2
 ifail= 2*0
 iclustr= 46,  134
 gap= 1.23792634973007368E-5,  1.75639784646459978E-5
(P)DSYGVX in subroutine dense_eigensolve returned info=    2
 ifail= 2*0
 iclustr= 307,  564
 gap= 1.03783914213996358E-5,  1.49425772640252674E-5
(P)DSYGVX in subroutine dense_eigensolve returned info=    2
 ifail= 2*0
 iclustr= 55,  134
 gap= 1.19892665112195009E-5,  1.95175419461491272E-5
(P)DSYGVX in subroutine dense_eigensolve returned info=    2
 ifail= 2*0
 iclustr= 187,  289
 gap= 1.88720223959659834E-5,  8.73577799922106149E-5
(P)DSYGVX in subroutine dense_eigensolve returned info=    2
 ifail= 2*0
 iclustr= 259,  430
 gap= 1.00984086835946993E-5,  3.51771547483375357E-5
(P)DSYGVX in subroutine dense_eigensolve returned info=    2
 ifail= 2*0
 iclustr= 202,  513
 gap= 1.78966652564094924E-5,  2.58489218150227352E-5
(P)DSYGVX in subroutine dense_eigensolve returned info=    2
 ifail= 2*0
 iclustr= 55,  134
 gap= 1.4484511859024613E-5,  1.16120416969289906E-5
(P)DSYGVX in subroutine dense_eigensolve returned info=    2
 ifail= 2*0
 iclustr= 307,  564
 gap= 1.00242478656881956E-5,  1.15165638206539455E-5
(P)DSYGVX in subroutine dense_eigensolve returned info=    2
 ifail= 2*0
 iclustr= 55,  134
 gap= 1.04127903934782821E-5,  1.41153885554644126E-5
(P)DSYGVX in subroutine dense_eigensolve returned info=    2
 ifail= 2*0
 iclustr= 307,  564
 gap= 1.03125001456894077E-5,  1.96225615057436411E-5
(P)DSYGVX in subroutine dense_eigensolve returned info=    2
 ifail= 2*0
 iclustr= 52,  141
 gap= 1.55988403134041792E-5,  1.09559244449866042E-5
(P)DSYGVX in subroutine dense_eigensolve returned info=    2
 ifail= 2*0
 iclustr= 166,  309
 gap= 1.46109935086313793E-5,  1.02006715843997698E-5
(P)DSYGVX in subroutine dense_eigensolve returned info=    2
 ifail= 2*0
 iclustr= 55,  134
 gap= 1.11296512247443552E-5,  1.16912017842355731E-5
(P)DSYGVX in subroutine dense_eigensolve returned info=    2
 ifail= 2*0
 iclustr= 307,  564
 gap= 1.08131040532978956E-5,  1.12012292023073208E-5
(P)DSYGVX in subroutine dense_eigensolve returned info=    2
 ifail= 2*0
 iclustr= 46,  134
 gap= 1.75866396969628887E-5,  2.14403277073949166E-5
(P)DSYGVX in subroutine dense_eigensolve returned info=    2
 ifail= 2*0
 iclustr= 187,  289
 gap= 1.47036547245074939E-5,  1.08296654346679181E-5
(P)DSYGVX in subroutine dense_eigensolve returned info=    2
 ifail= 2*0
 iclustr= 55,  134
 gap= 2.62189984655381462E-5,  1.78977381973126629E-5
(P)DSYGVX in subroutine dense_eigensolve returned info=    2
 ifail= 2*0
 iclustr= 187,  289
 gap= 2.18726119678309702E-5,  8.97877390797448461E-5
(P)DSYGVX in subroutine dense_eigensolve returned info=    2
 ifail= 2*0
 iclustr= 55,  134
 gap= 1.21832205062816572E-5,  1.96715918922954219E-5
(P)DSYGVX in subroutine dense_eigensolve returned info=    2
 ifail= 2*0
 iclustr= 307,  564
 gap= 1.00182798314049466E-5,  1.17999102004376645E-5
(P)DSYGVX in subroutine dense_eigensolve returned info=    2
 ifail= 2*0
 iclustr= 55,  134
 gap= 1.03464817221379727E-5,  1.32727572287386488E-5
(P)DSYGVX in subroutine dense_eigensolve returned info=    2
 ifail= 2*0
 iclustr= 307,  564
 gap= 1.0250121607036007E-5,  1.91862575920559439E-5
(P)DSYGVX in subroutine dense_eigensolve returned info=    2
 ifail= 2*0
 iclustr= 43,  137
 gap= 1.50701019350887096E-5,  1.04503357890697166E-5
(P)DSYGVX in subroutine dense_eigensolve returned info=    2
 ifail= 2*0
 iclustr= 57,  138
 gap= 1.16563113571425727E-5,  1.23609813948614291E-5
(P)DSYGVX in subroutine dense_eigensolve returned info=    2
 ifail= 2*0
 iclustr= 55,  134
 gap= 1.13112155178517192E-5,  1.27394787021512587E-5
(P)DSYGVX in subroutine dense_eigensolve returned info=    2
 ifail= 2*0
 iclustr= 307,  564
 gap= 1.21035690328901833E-5,  1.19863276342880539E-5
(P)DSYGVX in subroutine dense_eigensolve returned info=    2
 ifail= 2*0
 iclustr= 55,  134
 gap= 1.25474572156201891E-5,  2.19731376604585103E-5
(P)DSYGVX in subroutine dense_eigensolve returned info=    2
 ifail= 2*0
 iclustr= 187,  289
 gap= 1.50373283954976003E-5,  1.0328544474272895E-5
(P)DSYGVX in subroutine dense_eigensolve returned info=    2
 ifail= 2*0
 iclustr= 55,  134
 gap= 1.59911485071609887E-5,  1.56344046941223565E-5
(P)DSYGVX in subroutine dense_eigensolve returned info=    2
 ifail= 2*0
 iclustr= 187,  289
 gap= 2.12742453402544259E-5,  9.24766216745359605E-5
(P)DSYGVX in subroutine dense_eigensolve returned info=    2
 ifail= 2*0
 iclustr= 55,  134
 gap= 1.11088747492087549E-5,  1.91065113572213538E-5
(P)DSYGVX in subroutine dense_eigensolve returned info=    2
 ifail= 2*0
 iclustr= 307,  564
 gap= 1.00287825241096359E-5,  1.1618311276693443E-5
(P)DSYGVX in subroutine dense_eigensolve returned info=    2
 ifail= 2*0
 iclustr= 55,  134
 gap= 2.37680145320024224E-5,  1.29404146603512875E-5
(P)DSYGVX in subroutine dense_eigensolve returned info=    2
 ifail= 2*0
 iclustr= 307,  564
 gap= 1.00016828665228707E-5,  1.84490471303616648E-5
(P)DSYGVX in subroutine dense_eigensolve returned info=    2
 ifail= 2*0
 iclustr= 46,  137
 gap= 1.02043557716038928E-5,  1.66662014693783704E-5
(P)DSYGVX in subroutine dense_eigensolve returned info=    2
 ifail= 2*0
 iclustr= 181,  570
 gap= 1.05133006873809008E-5,  1.70526217601781693E-5
(P)DSYGVX in subroutine dense_eigensolve returned info=    2
 ifail= 2*0
 iclustr= 55,  134
 gap= 1.17080324792648123E-5,  1.33606614335736082E-5
(P)DSYGVX in subroutine dense_eigensolve returned info=    2
 ifail= 2*0
 iclustr= 307,  564
 gap= 1.10814130367259688E-5,  1.20536958788239716E-5
(P)DSYGVX in subroutine dense_eigensolve returned info=    2
 ifail= 2*0
 iclustr= 55,  134
 gap= 1.16450114345121535E-5,  2.20014512424178059E-5
(P)DSYGVX in subroutine dense_eigensolve returned info=    2
 ifail= 2*0
 iclustr= 187,  289
 gap= 1.84792271592162255E-5,  1.38367075954692983E-5
(P)DSYGVX in subroutine dense_eigensolve returned info=    2
 ifail= 2*0
 iclustr= 55,  134
 gap= 1.68463063199526331E-5,  1.50903136676583003E-5
(P)DSYGVX in subroutine dense_eigensolve returned info=    2
 ifail= 2*0
 iclustr= 187,  289
 gap= 2.05910175026811247E-5,  9.60331764045445975E-5
(P)DSYGVX in subroutine dense_eigensolve returned info=    2
 ifail= 2*0
 iclustr= 55,  134
 gap= 1.02226674559786853E-5,  1.87074577781577599E-5
(P)DSYGVX in subroutine dense_eigensolve returned info=    2
 ifail= 2*0
 iclustr= 307,  564
 gap= 1.01228332866470075E-5,  1.09266753723105841E-5
(P)DSYGVX in subroutine dense_eigensolve returned info=    2
 ifail= 2*0
 iclustr= 55,  134
 gap= 2.12841576028513372E-5,  1.28035021556636535E-5
(P)DSYGVX in subroutine dense_eigensolve returned info=    2
 ifail= 2*0
 iclustr= 307,  564
 gap= 1.05067810045554622E-5,  1.74733616871963913E-5
(P)DSYGVX in subroutine dense_eigensolve returned info=    2
 ifail= 2*0
 iclustr= 46,  137
 gap= 1.03948942687917346E-5,  2.30826041347323225E-5
(P)DSYGVX in subroutine dense_eigensolve returned info=    2
 ifail= 2*0
 iclustr= 187,  570
 gap= 1.0814414247801714E-5,  1.03039184059121277E-5
(P)DSYGVX in subroutine dense_eigensolve returned info=    2
 ifail= 2*0
 iclustr= 55,  134
 gap= 1.18674300757134135E-5,  1.39959875533943366E-5
(P)DSYGVX in subroutine dense_eigensolve returned info=    2
 ifail= 2*0
 iclustr= 56,  135
 gap= 1.16401454732241129E-5,  1.75761619408217202E-5
   0     0.00002235882184 -21517.31732609229950   0.201668 -21517.31948161167380        
(P)DSYGVX in subroutine dense_eigensolve returned info=    2
 ifail= 2*0
 iclustr= 220,  571
 gap= 1.07113765134064101E-5,  9.00891152933831958E-5
(P)DSYGVX in subroutine dense_eigensolve returned info=    2
 ifail= 2*0
 iclustr= 235,  582
 gap= 1.03566304793105377E-5,  1.78803537904579198E-5
(P)DSYGVX in subroutine dense_eigensolve returned info=    2
 ifail= 2*0
 iclustr= 46,  137
 gap= 1.09201421118712571E-5,  1.07055606922028616E-5
(P)DSYGVX in subroutine dense_eigensolve returned info=    2
 ifail= 2*0
 iclustr= 57,  138
 gap= 1.02334243985033213E-5,  1.02761591234925903E-5
(P)DSYGVX in subroutine dense_eigensolve returned info=    2
 ifail= 2*0
 iclustr= 55,  134
 gap= 1.7203314249503631E-5,  1.52953892563711632E-5
(P)DSYGVX in subroutine dense_eigensolve returned info=    2
 ifail= 2*0
 iclustr= 307,  564
 gap= 1.00856041756974673E-5,  1.05415377624451761E-5
(P)DSYGVX in subroutine dense_eigensolve returned info=    2
 ifail= 2*0
 iclustr= 55,  134
 gap= 1.05734193778972998E-5,  1.26921892401388111E-5
(P)DSYGVX in subroutine dense_eigensolve returned info=    2
 ifail= 2*0
 iclustr= 56,  135
 gap= 1.77764392895304623E-5,  1.359706893155889E-5
(P)DSYGVX in subroutine dense_eigensolve returned info=    2
 ifail= 2*0
 iclustr= 43,  134
 gap= 1.03961050266728073E-5,  2.20920867359302781E-5
(P)DSYGVX in subroutine dense_eigensolve returned info=    2
 ifail= 2*0
 iclustr= 187,  301
 gap= 1.51633878309855496E-5,  1.02471364318799912E-5
(P)DSYGVX in subroutine dense_eigensolve returned info=    2
 ifail= 2*0
 iclustr= 55,  134
 gap= 1.09741067400434672E-5,  1.67412173382123595E-5
(P)DSYGVX in subroutine dense_eigensolve returned info=    2
 ifail= 2*0
 iclustr= 56,  135
 gap= 1.10190133538175896E-5,  1.53371756407937377E-5
(P)DSYGVX in subroutine dense_eigensolve returned info=    2
 ifail= 2*0
 iclustr= 205,  570
 gap= 1.03557550069219281E-5,  4.23084843789399073E-5
(P)DSYGVX in subroutine dense_eigensolve returned info=    2
 ifail= 2*0
 iclustr= 185,  576
 gap= 1.03722249531808642E-5,  1.38488671916192647E-5
(P)DSYGVX in subroutine dense_eigensolve returned info=    2
 ifail= 2*0
 iclustr= 43,  134
 gap= 1.06253904103070483E-5,  2.17302276466028762E-5
(P)DSYGVX in subroutine dense_eigensolve returned info=    2
 ifail= 2*0
 iclustr= 187,  301
 gap= 1.67859103045633766E-5,  1.01105211068584934E-5
(P)DSYGVX in subroutine dense_eigensolve returned info=    2
 ifail= 2*0
 iclustr= 55,  134
 gap= 1.09759332114538958E-5,  1.48379898271320581E-5
(P)DSYGVX in subroutine dense_eigensolve returned info=    2
 ifail= 2*0
 iclustr= 56,  135
 gap= 1.06280228673435123E-5,  1.38893742460805455E-5
(P)DSYGVX in subroutine dense_eigensolve returned info=    2
 ifail= 2*0
 iclustr= 55,  134
 gap= 1.23190831492105412E-5,  1.2571607418052021E-5
(P)DSYGVX in subroutine dense_eigensolve returned info=    2
 ifail= 2*0
 iclustr= 56,  135
 gap= 2.32318603713087145E-5,  1.36351773458980775E-5
(P)DSYGVX in subroutine dense_eigensolve returned info=    2
 ifail= 2*0
 iclustr= 43,  134
 gap= 1.03149044695285817E-5,  2.35585979932574682E-5
(P)DSYGVX in subroutine dense_eigensolve returned info=    2
 ifail= 2*0
 iclustr= 187,  289
 gap= 1.65577126411669514E-5,  1.03488598911301631E-5
(P)DSYGVX in subroutine dense_eigensolve returned info=    2
 ifail= 2*0
 iclustr= 55,  134
 gap= 1.16222512060673373E-5,  1.61098451338251808E-5
(P)DSYGVX in subroutine dense_eigensolve returned info=    2
 ifail= 2*0
 iclustr= 56,  135
 gap= 1.03444315887684734E-5,  1.0286621806953408E-5
(P)DSYGVX in subroutine dense_eigensolve returned info=    2
 ifail= 2*0
 iclustr= 205,  570
 gap= 1.26532697331764063E-5,  4.68656085411997713E-5
(P)DSYGVX in subroutine dense_eigensolve returned info=    2
 ifail= 2*0
 iclustr= 185,  576
 gap= 1.22907884977078064E-5,  1.03180999653429172E-5
(P)DSYGVX in subroutine dense_eigensolve returned info=    2
 ifail= 2*0
 iclustr= 43,  134
 gap= 1.58198460641016134E-5,  2.17949843469002803E-5
(P)DSYGVX in subroutine dense_eigensolve returned info=    2
 ifail= 2*0
 iclustr= 187,  301
 gap= 2.0302610963482876E-5,  1.0083412118311028E-5
(P)DSYGVX in subroutine dense_eigensolve returned info=    2
 ifail= 2*0
 iclustr= 55,  134
 gap= 1.29381697770249197E-5,  1.25088543755427423E-5
(P)DSYGVX in subroutine dense_eigensolve returned info=    2
 ifail= 2*0
 iclustr= 56,  135
 gap= 2.36672248144306847E-5,  1.38728536178465776E-5
(P)DSYGVX in subroutine dense_eigensolve returned info=    2
 ifail= 2*0
 iclustr= 55,  134
 gap= 1.18411152993018467E-5,  1.10771758022109685E-5
(P)DSYGVX in subroutine dense_eigensolve returned info=    2
 ifail= 2*0
 iclustr= 56,  135
 gap= 2.72902705897284172E-5,  1.36415129060744006E-5
(P)DSYGVX in subroutine dense_eigensolve returned info=    2
 ifail= 2*0
 iclustr= 43,  134
 gap= 1.23891915448782704E-5,  2.09432332759101811E-5
(P)DSYGVX in subroutine dense_eigensolve returned info=    2
 ifail= 2*0
 iclustr= 56,  135
 gap= 1.25463527507612588E-5,  1.53758721866259524E-5
(P)DSYGVX in subroutine dense_eigensolve returned info=    2
 ifail= 2*0
 iclustr= 55,  134
 gap= 1.19924367400920179E-5,  1.02079138940886326E-5
(P)DSYGVX in subroutine dense_eigensolve returned info=    2
 ifail= 2*0
 iclustr= 56,  135
 gap= 1.18449760419162117E-5,  1.27296344822283546E-5
(P)DSYGVX in subroutine dense_eigensolve returned info=    2
 ifail= 2*0
 iclustr= 160,  251
 gap= 1.34873491297061089E-5,  1.24323398829246212E-5
(P)DSYGVX in subroutine dense_eigensolve returned info=    2
 ifail= 2*0
 iclustr= 193,  582
 gap= 1.0151897978371281E-5,  1.0515855025117421E-5
(P)DSYGVX in subroutine dense_eigensolve returned info=    2
 ifail= 2*0
 iclustr= 43,  134
 gap= 1.00846129207616048E-5,  2.15235430964112916E-5
(P)DSYGVX in subroutine dense_eigensolve returned info=    2
 ifail= 2*0
 iclustr= 187,  301
 gap= 1.11681323362019304E-5,  1.02658495976064488E-5
(P)DSYGVX in subroutine dense_eigensolve returned info=    2
 ifail= 2*0
 iclustr= 55,  134
 gap= 1.05165876139792651E-5,  1.37963398928213024E-5
(P)DSYGVX in subroutine dense_eigensolve returned info=    2
 ifail= 2*0
 iclustr= 56,  135
 gap= 2.47533929225561131E-5,  1.37454854824290667E-5
(P)DSYGVX in subroutine dense_eigensolve returned info=    2
 ifail= 2*0
 iclustr= 55,  134
 gap= 1.03223545838585591E-5,  1.21675969048321048E-5
(P)DSYGVX in subroutine dense_eigensolve returned info=    2
 ifail= 2*0
 iclustr= 56,  135
 gap= 2.75999912856079516E-5,  1.35158409998077175E-5
(P)DSYGVX in subroutine dense_eigensolve returned info=    2
 ifail= 2*0
 iclustr= 55,  134
 gap= 1.1310882452921703E-5,  6.02286464931534922E-5
(P)DSYGVX in subroutine dense_eigensolve returned info=    2
 ifail= 2*0
 iclustr= 313,  564
 gap= 1.12288066479930945E-5,  6.06569408900651429E-5
(P)DSYGVX in subroutine dense_eigensolve returned info=    2
 ifail= 2*0
 iclustr= 55,  134
 gap= 1.01890358870349668E-5,  1.47128604978086271E-5
(P)DSYGVX in subroutine dense_eigensolve returned info=    2
 ifail= 2*0
 iclustr= 56,  135
 gap= 1.03654507901796918E-5,  1.11266690401264748E-5
(P)DSYGVX in subroutine dense_eigensolve returned info=    2
 ifail= 2*0
 iclustr= 43,  134
 gap= 2.42239444804921929E-5,  2.10077925066853551E-5
(P)DSYGVX in subroutine dense_eigensolve returned info=    2
 ifail= 2*0
 iclustr= 187,  564
 gap= 1.07849265473335952E-5,  1.32856613381222089E-5
(P)DSYGVX in subroutine dense_eigensolve returned info=    2
 ifail= 2*0
 iclustr= 55,  134
 gap= 1.25311932843017591E-5,  2.25199054265378889E-5
(P)DSYGVX in subroutine dense_eigensolve returned info=    2
 ifail= 2*0
 iclustr= 187,  289
 gap= 1.44816021268318328E-5,  1.01669866561984684E-5
(P)DSYGVX in subroutine dense_eigensolve returned info=    2
 ifail= 2*0
 iclustr= 55,  134
 gap= 1.16334169371982661E-5,  1.25317781349945366E-5
(P)DSYGVX in subroutine dense_eigensolve returned info=    2
 ifail= 2*0
 iclustr= 56,  135
 gap= 2.22429794152571226E-5,  1.42824138503902889E-5
(P)DSYGVX in subroutine dense_eigensolve returned info=    2
 ifail= 2*0
 iclustr= 55,  134
 gap= 1.11195536448907511E-5,  1.4362642388137168E-5
(P)DSYGVX in subroutine dense_eigensolve returned info=    2
 ifail= 2*0
 iclustr= 56,  135
 gap= 3.1011505031333036E-5,  1.36928456805993708E-5
(P)DSYGVX in subroutine dense_eigensolve returned info=    2
 ifail= 2*0
 iclustr= 43,  134
 gap= 1.11816192923090238E-5,  9.16424434931123119E-5
(P)DSYGVX in subroutine dense_eigensolve returned info=    2
 ifail= 2*0
 iclustr= 56,  135
 gap= 1.12631104757389666E-5,  1.26770674819235889E-5
(P)DSYGVX in subroutine dense_eigensolve returned info=    2
 ifail= 2*0
 iclustr= 55,  134
 gap= 1.01585183457022184E-5,  1.40261000902354882E-5
(P)DSYGVX in subroutine dense_eigensolve returned info=    2
 ifail= 2*0
 iclustr= 56,  135
 gap= 1.01945444692351319E-5,  1.27123458453774146E-5

onetep_launcher: !!! ONETEP finished with an error

************************************************
*** onetep_launcher terminated               ***
************************************************
