==================================================================================
It's Mon 25 Dec 2023 10:40:52 PM GMT.
*** Starting onetep_launcher (node nid006840, PIDs 160793 160794 160795 160796 160797 160798 160799 160800 160801 160802 160803 160804 160805 160806)...
    - ONETEP arguments: Co_cluster3_nspF.dat
    - Current directory: /mnt/lustre/a2fs-work3/work/e89/e89/ndmh3/Co_NPs/Co_cluster3_nspF
    - Launcher executable directory: /mnt/lustre/a2fs-work3/work/e89/e89/ndmh3/onetep_mea/utils
    - (-e) ONETEP executable specified through command-line: /work/e89/e89/ndmh3/onetep_mea/bin/onetep.archer2_2023_cray
      ... trying /work/e89/e89/ndmh3/onetep_mea/bin/onetep.archer2_2023_cray
          -> looks OK
*** Setting up environment...
    - (-s) Process stack size: unlimited
    - (-t) OMP_NUM_THREADS: 8
    - (-o) OMP_STACKSIZE: 64M
    - (-c) Maximum core file size: 2048000
    - (-d) decfort_dump_flag: n
    - (-m) I_MPI_OFA_TRANSLATION_CACHE: 0
    - (-m) I_MPI_DAPL_TRANSLATION_CACHE: 0
    - (-m) I_MPI_DAPL_UD_TRANSLATION_CACHE: 0
*** Starting ONETEP...
    - /work/e89/e89/ndmh3/onetep_mea/bin/onetep.archer2_2023_cray Co_cluster3_nspF.dat
=================================================================================
_________________________________________________________________________________
 +---------------------------------------------------------------+
 |                                                               |
 |        ####### #     # ####### ####### ####### ######         |
 |        #     # ##    # #          #    #       #     #        |
 |        #     # # #   # #          #    #       #     #        |
 |        #     # #  #  # #####      #    #####   ######         |
 |        #     # #   # # #          #    #       #              |
 |        #     # #    ## #          #    #       #              |
 |        ####### #     # #######    #    ####### #              |
 |                                                               |
 |        Linear-Scaling Ab Initio Total Energy Program          |
 |                                                               |
 |          Release for academic collaborators of ODG            |
 |                                             Version 7.1.2     |
 | Remote: git@github.com:Miesaz/onetep_mea.git                  |
 | Local branch: spin_polarised_ngwfs                            |
 | Commit ID: 7c696c95508db11e862ad6ab7bb9dc094f19dd1c           |
 | Date: Sun Dec 17 13:55:03 2023 +0000                          |
 | Locally modified files:                                       |
 |   config/conf.archer2_2023_cray                               |
 |                                                               |
 +---------------------------------------------------------------+
 |                                                               |
 |  Authors:                                                     |
 |  Jacek Dziedzic, Peter D. Haynes, Nicholas D. M. Hine,        |
 |  Arash A. Mostofi, Mike C. Payne and Chris-Kriton Skylaris    |
 |                                                               |
 |  Contributors:                                                |
 |  J. Aarons, L. Andrinopoulos, P. W. Avraam, R. A. Bell,       |
 |  A. Bhandari, G. A. Bramley, R. J. Charlton, S. J. Clark,     |
 |  R. J. Clements, G. C. Constantinescu, F. Corsetti,           |
 |  N. Corsini, O. Dieguez, S. M. M. Dubois, K. K. B. Duff,      |
 |  J. M. Escartin, M. Escobar Azor, A. Greco,                   |
 |  H. Helal, Q. O. Hill, L. P. Lee, J.-H. Li,                   |
 |  E. B. Linscott, G. Moynihan, D. D. O`Regan,                  |
 |  O. K. Okan, M. J. S. Phipps, C. J. Pickard,                  |
 |  J. C. A. Prentice, M. I. J. Probert, L. E. Ratcliff,         |
 |  M. Robinson, A. Ruiz Serrano, M. dos Santos Dias,            |
 |  J. S. Spencer, E. W. Tait, G. Teobaldi, D. Turban,           |
 |  V. Vitale, K. A. Wilkinson, C. Weber, J. C. Womack,          |
 |  N. Yeung and T. J. Zuehlsdorff                               |
 |                                                               |
 |                                   Copyright (c) 2004-2023     |
 |                                                               |
 |  Please cite:                                                 |
 |  "The ONETEP linear-scaling density functional theory program"|
 |   J. Chem. Phys. 152(17) 174111 (2020)                        |
 |                                                               |
 |          in all publications arising from your use of ONETEP. |
 |                                                               |
 +---------------------------------------------------------------+
 |                                                               |
 |   ONETEP is based on developments described in the following  |
 |   publications:                                               |
 |                                                               |
 |  "Nonorthogonal generalized Wannier function pseudopotential  |
 |   plane-wave method".                                         |
 |   C.-K. Skylaris, A. A. Mostofi, P. D. Haynes, O. Dieguez,    |
 |   M. C. Payne.                                                |
 |   Phys. Rev. B 66 035119 (2002).                              |
 |                                                               |
 |  "Preconditioned iterative minimization for linear-scaling    |
 |   electronic structure calculations".                         |
 |   A. A. Mostofi, P. D. Haynes, C.-K. Skylaris, M. C. Payne.   |
 |   J. Chem. Phys. 119(17), pp.8842-8848 (2003).                |
 |                                                               |
 |  "Total-energy calculations on a real space grid with         |
 |   localized functions and a plane-wave basis".                |
 |   A. A. Mostofi, C.-K. Skylaris, P. D. Haynes, M. C. Payne.   |
 |   Comput. Phys. Commun. 147, pp.788-802 (2002).               |
 |                                                               |
 |  "Accurate kinetic energy evaluation in electronic structure  |
 |   calculations with localized functions on real space grids"  |
 |   C.-K. Skylaris, A. A. Mostofi, P. D. Haynes, C. J. Pickard, |
 |   M. C. Payne.                                                |
 |   Comput. Phys. Commun. 140, pp.315-322 (2001).               |
 |                                                               |
 |  "Accurate ionic forces and geometry optimization in linear-  |
 |   scaling density-functional theory with local orbitals"      |
 |   N. D. M. Hine, M. Robinson, P. D. Haynes, C.-K. Skylaris,   |
 |   M. C. Payne, and A. A. Mostofi.                             |
 |   Phys. Rev. B 83 195102 (2011).                              |
 |                                                               |
 +---------------------------------------------------------------+

Job started: 25-12-2023 22:40 (+0000)
 
Reading parameters from file "Co_cluster3_nspF.dat" ...... done

If your calculation crashes here, before "Checking processes and threads..."
is displayed, then your stack size is insufficient.
If so, use "ulimit -s unlimited" at runtime.
You can disable this check with "check_stack_size F".

Checking processes and threads...
   Running with 147 MPI processes.
   There are 15 MPI processes running on the same node as the root process.
   Each MPI process is using: 
               1 threads for simulation cell FFTs.
               1 threads for parallel FFT box operations.
               8 threads for loops over batched FFT box operations.
               8 threads in other parallel regions.
   MPI Interface: S1 (use mpi_f08) (-DMPI -DUSE_MPI_F08).
   MPI_ASYNC_PROTECTS_NONBLOCKING: Yes. MPI_SUBARRAYS_SUPPORTED: Yes.
   GPU Interface: None.
... done

Basic input checks...
Resetting ngwf_cg_rotate to TRUE for EDFT calculations
... done

Reading geometry and species blocks from file "Co_cluster3_nspF.dat" ...... done


--------------------------------------------------------------------------------
---------------------------------- INPUT FILE ----------------------------------
--------------------------------------------------------------------------------

charge : 0                                                                      
cutoff_energy : 600 eV                                                          
do_properties : T                                                               
edft : T                                                                        
edft_spin_fix : 0                                                               
fine_grid_scale : 4                                                             
forces_output_detail : VERBOSE                                                  
maxit_ngwf_cg : 30                                                              
ngwf_threshold_orig : 1e-06                                                     
ngwfs_spin_polarized : F                                                        
output_detail : BRIEF                                                           
paw : T                                                                         
pseudo_path : .                                                                 
read_denskern : F                                                               
read_hamiltonian : F                                                            
read_tightbox_ngwfs : F                                                         
spin : 441                                                                      
task : GEOMETRYOPTIMIZATION                                                     
geom_continuation : T                                                           
write_denskern : T                                                              
write_forces : T                                                                
write_hamiltonian : T                                                           
write_tightbox_ngwfs : T                                                        
xc_functional : PBE                                                             
%BLOCK LATTICE_CART                                                             
ang                                                                             
22.70370017       0.00000000       0.00000000                                   
0.00000000      22.70370017       0.00000000                                    
0.00000000       0.00000000      22.70370017                                    
%ENDBLOCK LATTICE_CART                                                          
%BLOCK POSITIONS_ABS                                                            
ang                                                                             
Co1    11.351850    11.351850    11.351850                                      
Co2    13.469133    11.351850    10.043297                                      
Co2    13.469133    11.351850    12.660403                                      
Co2     9.234567    11.351850    10.043297                                      
Co2     9.234567    11.351850    12.660403                                      
Co2    10.043297    13.469133    11.351850                                      
Co2    12.660403    13.469133    11.351850                                      
Co2    10.043297     9.234567    11.351850                                      
Co2    12.660403     9.234567    11.351850                                      
Co2    11.351850    10.043297    13.469133                                      
Co2    11.351850    12.660403    13.469133                                      
Co2    11.351850    10.043297     9.234567                                      
Co2    11.351850    12.660403     9.234567                                      
Co3    15.586417    11.351850     8.734744                                      
Co3    15.586417    11.351850    11.351850                                      
Co3    15.586417    11.351850    13.968956                                      
Co3     7.117283    11.351850     8.734744                                      
Co3     7.117283    11.351850    11.351850                                      
Co3     7.117283    11.351850    13.968956                                      
Co3     8.734744    15.586417    11.351850                                      
Co3    11.351850    15.586417    11.351850                                      
Co3    13.968956    15.586417    11.351850                                      
Co3     8.734744     7.117283    11.351850                                      
Co3    11.351850     7.117283    11.351850                                      
Co3    13.968956     7.117283    11.351850                                      
Co3    11.351850     8.734744    15.586417                                      
Co3    11.351850    11.351850    15.586417                                      
Co3    11.351850    13.968956    15.586417                                      
Co3    11.351850     8.734744     7.117283                                      
Co3    11.351850    11.351850     7.117283                                      
Co3    11.351850    13.968956     7.117283                                      
Co3    13.469133    10.043297    14.777687                                      
Co3    13.469133    12.660403    14.777687                                      
Co3    13.469133    10.043297     7.926014                                      
Co3    13.469133    12.660403     7.926014                                      
Co3     9.234567    10.043297    14.777687                                      
Co3     9.234567    12.660403    14.777687                                      
Co3     9.234567    10.043297     7.926014                                      
Co3     9.234567    12.660403     7.926014                                      
Co3    14.777687    13.469133    10.043297                                      
Co3    14.777687    13.469133    12.660403                                      
Co3     7.926014    13.469133    10.043297                                      
Co3     7.926014    13.469133    12.660403                                      
Co3    14.777687     9.234567    10.043297                                      
Co3    14.777687     9.234567    12.660403                                      
Co3     7.926014     9.234567    10.043297                                      
Co3     7.926014     9.234567    12.660403                                      
Co3    10.043297    14.777687    13.469133                                      
Co3    12.660403    14.777687    13.469133                                      
Co3    10.043297     7.926014    13.469133                                      
Co3    12.660403     7.926014    13.469133                                      
Co3    10.043297    14.777687     9.234567                                      
Co3    12.660403    14.777687     9.234567                                      
Co3    10.043297     7.926014     9.234567                                      
Co3    12.660403     7.926014     9.234567                                      
Co4    17.703700    11.351850     7.426191                                      
Co4    17.703700    11.351850    10.043297                                      
Co4    17.703700    11.351850    12.660403                                      
Co4    17.703700    11.351850    15.277509                                      
Co4     5.000000    11.351850     7.426191                                      
Co4     5.000000    11.351850    10.043297                                      
Co4     5.000000    11.351850    12.660403                                      
Co4     5.000000    11.351850    15.277509                                      
Co4     7.426191    17.703700    11.351850                                      
Co4    10.043297    17.703700    11.351850                                      
Co4    12.660403    17.703700    11.351850                                      
Co4    15.277509    17.703700    11.351850                                      
Co4     7.426191     5.000000    11.351850                                      
Co4    10.043297     5.000000    11.351850                                      
Co4    12.660403     5.000000    11.351850                                      
Co4    15.277509     5.000000    11.351850                                      
Co4    11.351850     7.426191    17.703700                                      
Co4    11.351850    10.043297    17.703700                                      
Co4    11.351850    12.660403    17.703700                                      
Co4    11.351850    15.277509    17.703700                                      
Co4    11.351850     7.426191     5.000000                                      
Co4    11.351850    10.043297     5.000000                                      
Co4    11.351850    12.660403     5.000000                                      
Co4    11.351850    15.277509     5.000000                                      
Co4    15.586417    10.043297    16.086240                                      
Co4    13.469133     8.734744    16.894970                                      
Co4    15.586417    12.660403    16.086240                                      
Co4    13.469133    11.351850    16.894970                                      
Co4    13.469133    13.968956    16.894970                                      
Co4    15.586417    10.043297     6.617461                                      
Co4    13.469133     8.734744     5.808730                                      
Co4    15.586417    12.660403     6.617461                                      
Co4    13.469133    11.351850     5.808730                                      
Co4    13.469133    13.968956     5.808730                                      
Co4     7.117283    10.043297    16.086240                                      
Co4     9.234567     8.734744    16.894970                                      
Co4     7.117283    12.660403    16.086240                                      
Co4     9.234567    11.351850    16.894970                                      
Co4     9.234567    13.968956    16.894970                                      
Co4     7.117283    10.043297     6.617461                                      
Co4     9.234567     8.734744     5.808730                                      
Co4     7.117283    12.660403     6.617461                                      
Co4     9.234567    11.351850     5.808730                                      
Co4     9.234567    13.968956     5.808730                                      
Co4    16.086240    15.586417    10.043297                                      
Co4    16.894970    13.469133     8.734744                                      
Co4    16.086240    15.586417    12.660403                                      
Co4    16.894970    13.469133    11.351850                                      
Co4    16.894970    13.469133    13.968956                                      
Co4     6.617461    15.586417    10.043297                                      
Co4     5.808730    13.469133     8.734744                                      
Co4     6.617461    15.586417    12.660403                                      
Co4     5.808730    13.469133    11.351850                                      
Co4     5.808730    13.469133    13.968956                                      
Co4    16.086240     7.117283    10.043297                                      
Co4    16.894970     9.234567     8.734744                                      
Co4    16.086240     7.117283    12.660403                                      
Co4    16.894970     9.234567    11.351850                                      
Co4    16.894970     9.234567    13.968956                                      
Co4     6.617461     7.117283    10.043297                                      
Co4     5.808730     9.234567     8.734744                                      
Co4     6.617461     7.117283    12.660403                                      
Co4     5.808730     9.234567    11.351850                                      
Co4     5.808730     9.234567    13.968956                                      
Co4    10.043297    16.086240    15.586417                                      
Co4     8.734744    16.894970    13.469133                                      
Co4    12.660403    16.086240    15.586417                                      
Co4    11.351850    16.894970    13.469133                                      
Co4    13.968956    16.894970    13.469133                                      
Co4    10.043297     6.617461    15.586417                                      
Co4     8.734744     5.808730    13.469133                                      
Co4    12.660403     6.617461    15.586417                                      
Co4    11.351850     5.808730    13.469133                                      
Co4    13.968956     5.808730    13.469133                                      
Co4    10.043297    16.086240     7.117283                                      
Co4     8.734744    16.894970     9.234567                                      
Co4    12.660403    16.086240     7.117283                                      
Co4    11.351850    16.894970     9.234567                                      
Co4    13.968956    16.894970     9.234567                                      
Co4    10.043297     6.617461     7.117283                                      
Co4     8.734744     5.808730     9.234567                                      
Co4    12.660403     6.617461     7.117283                                      
Co4    11.351850     5.808730     9.234567                                      
Co4    13.968956     5.808730     9.234567                                      
Co4    14.777687     7.926014    14.777687                                      
Co4    14.777687    14.777687    14.777687                                      
Co4    14.777687     7.926014     7.926014                                      
Co4    14.777687    14.777687     7.926014                                      
Co4     7.926014     7.926014    14.777687                                      
Co4     7.926014    14.777687    14.777687                                      
Co4     7.926014     7.926014     7.926014                                      
Co4     7.926014    14.777687     7.926014                                      
%ENDBLOCK POSITIONS_ABS                                                         
%BLOCK SPECIES                                                                  
Co1 Co 27 -1 10.0                                                               
Co2 Co 27 -1 10.0                                                               
Co3 Co 27 -1 10.0                                                               
Co4 Co 27 -1 10.0                                                               
%ENDBLOCK SPECIES                                                               
%BLOCK SPECIES_ATOMIC_SET                                                       
Co1 "SOLVE INIT SPIN=3"                                                         
Co2 "SOLVE INIT SPIN=3"                                                         
Co3 "SOLVE INIT SPIN=3"                                                         
Co4 "SOLVE INIT SPIN=3"                                                         
%ENDBLOCK SPECIES_ATOMIC_SET                                                    
%BLOCK SPECIES_LDOS_GROUPS                                                      
Co1                                                                             
Co2                                                                             
Co3                                                                             
Co4                                                                             
%ENDBLOCK SPECIES_LDOS_GROUPS                                                   
%BLOCK SPECIES_POT                                                              
Co1 Co.PBE-paw.abinit                                                           
Co2 Co.PBE-paw.abinit                                                           
Co3 Co.PBE-paw.abinit                                                           
Co4 Co.PBE-paw.abinit                                                           
%ENDBLOCK SPECIES_POT                                                           

--------------------------------------------------------------------------------
-------------------------------- END INPUT FILE --------------------------------
--------------------------------------------------------------------------------


 
<<<<<<<<<<<<<<<<<<<<<<<<<<<<<<<<< Full system >>>>>>>>>>>>>>>>>>>>>>>>>>>>>>>>>>
<<<<<<<<<<<<<<<<<<<<<<<<<<< PAW Dataset information >>>>>>>>>>>>>>>>>>>>>>>>>>>
File: Co.PBE-paw.abinit; rc = 2.11 bohr; shape type =  2; rshape = 1.60 bohr;
  Atomic number: 27;  ionic charge: 17.000000
    Partial Wave 1: l = 0
    Partial Wave 2: l = 0
    Partial Wave 3: l = 1
    Partial Wave 4: l = 1
    Partial Wave 5: l = 2
    Partial Wave 6: l = 2
  Core charge supplied for Nonlinear Core Corrections
<<<<<<<<<<<<<<<<<<<<<<<<<<<<<<<<<<<<<<< >>>>>>>>>>>>>>>>>>>>>>>>>>>>>>>>>>>>>>>

-------------------------- Atom counting information ---------------------------
Symbol    Natoms    Nngwfs    Nprojs
  Co       147      1911      2646
.......   ......    ......    ......
Totals:    147      1911      2646
--------------------------------------------------------------------------------

=============================== PSINC grid sizes ===============================
                      Simulation cell:   75 x  75 x  75
                              FFT-box:   75 x  75 x  75
                                  PPD:    5 x   5 x   1
================================================================================

Atom SCF Calculation for Co : Z (AE atom) =  27 : Z (PS atom) =  17
Config String: 3s2.0 3p6.0 3d7.0 4s2.0 4p0.0 INIT SPIN=3
Orbitals (num,occ):  5     2.00 6.00 7.00 2.00 0.00
Orbitals   (num,l):  5        0    1    2    0    1
Atom SCF converged after  37 iterations to a total energy of   -146.10251041
Adjusting orbital occupancies:
Orbitals (num,spin,occ):  5  1     1.00 3.00 5.00 1.00 0.00
Orbitals   (num,spin,l):  5  1        0    1    2    0    1
Orbitals (num,spin,occ):  5  2     1.00 3.00 3.00 0.00 0.00
Orbitals   (num,spin,l):  5  2        0    1    2    0    1

Atom SCF Calculation for Co : Z (AE atom) =  27 : Z (PS atom) =  17
Config String: 3s2.0 3p6.0 3d7.0 4s2.0 4p0.0 INIT SPIN=3
Orbitals (num,occ):  5     2.00 6.00 7.00 2.00 0.00
Orbitals   (num,l):  5        0    1    2    0    1
Atom SCF converged after  37 iterations to a total energy of   -146.10251041
Adjusting orbital occupancies:
Orbitals (num,spin,occ):  5  1     1.00 3.00 5.00 1.00 0.00
Orbitals   (num,spin,l):  5  1        0    1    2    0    1
Orbitals (num,spin,occ):  5  2     1.00 3.00 3.00 0.00 0.00
Orbitals   (num,spin,l):  5  2        0    1    2    0    1

Atom SCF Calculation for Co : Z (AE atom) =  27 : Z (PS atom) =  17
Config String: 3s2.0 3p6.0 3d7.0 4s2.0 4p0.0 INIT SPIN=3
Orbitals (num,occ):  5     2.00 6.00 7.00 2.00 0.00
Orbitals   (num,l):  5        0    1    2    0    1
Atom SCF converged after  37 iterations to a total energy of   -146.10251041
Adjusting orbital occupancies:
Orbitals (num,spin,occ):  5  1     1.00 3.00 5.00 1.00 0.00
Orbitals   (num,spin,l):  5  1        0    1    2    0    1
Orbitals (num,spin,occ):  5  2     1.00 3.00 3.00 0.00 0.00
Orbitals   (num,spin,l):  5  2        0    1    2    0    1

Atom SCF Calculation for Co : Z (AE atom) =  27 : Z (PS atom) =  17
Config String: 3s2.0 3p6.0 3d7.0 4s2.0 4p0.0 INIT SPIN=3
Orbitals (num,occ):  5     2.00 6.00 7.00 2.00 0.00
Orbitals   (num,l):  5        0    1    2    0    1
Atom SCF converged after  37 iterations to a total energy of   -146.10251041
Adjusting orbital occupancies:
Orbitals (num,spin,occ):  5  1     1.00 3.00 5.00 1.00 0.00
Orbitals   (num,spin,l):  5  1        0    1    2    0    1
Orbitals (num,spin,occ):  5  2     1.00 3.00 3.00 0.00 0.00
Orbitals   (num,spin,l):  5  2        0    1    2    0    1

================================================================================
<<<<<<<<<<<<<<<< Resuming previous ONETEP Geometry Optimisation >>>>>>>>>>>>>>>>
================================================================================

 Geometry Optimisation: output file is "Co_cluster3_nspF.geom"
 
 Reading continuation file "Co_cluster3_nspF.continuation" ...done
 Geometry Optimisation: read_tightbox_ngwfs parameter over-ridden to TRUE
 Geometry Optimisation: read_hamiltonian parameter over-ridden to T

BFGS: continuation file name is "Co_cluster3_nspF.continuation"
 BFGS : Restarting previous  geometry optimization.
 BFGS: finished iteration   0  with enthalpy= -2.151735642991E+004 Eh
  
 +-----------+-----------------+-----------------+------------+-----+ <-- BFGS
 | Parameter |      value      |    tolerance    |    units   | OK? | <-- BFGS
 +-----------+-----------------+-----------------+------------+-----+ <-- BFGS
 |  dE/ion   |   0.000000E+000 |   1.000000E-006 |         Eh | No  | <-- BFGS
 |  |F|max   |   3.566238E-002 |   2.000000E-003 |    Eh/Bohr | No  | <-- BFGS
 |  |dR|max  |   0.000000E+000 |   5.000000E-003 |       Bohr | No  | <-- BFGS
 +-----------+-----------------+-----------------+------------+-----+ <-- BFGS
  

================================================================================
 Starting BFGS iteration    1 ...
================================================================================

 Writing continuation file "Co_cluster3_nspF.continuation" ...done
 Backing up NGWFs to file "Co_cluster3_nspF.tightbox_ngwfs.bfgs_back" ... done
 Backing up Hamiltonian to file "Co_cluster3_nspF.ham.bfgs_back" ... done
  
 +------------+-------------+-------------+-----------------+ <-- min BFGS
 |    Step    |   lambda    |   F.delta   |    enthalpy     | <-- min BFGS
 +------------+-------------+-------------+-----------------+ <-- min BFGS
 |  previous  |    0.000000 |    0.009847 |   -21517.356430 | <-- min BFGS
 +------------+-------------+-------------+-----------------+ <-- min BFGS
  

--------------------------------------------------------------------------------
 BFGS: starting iteration   1 with trial guess (lambda=    1.000000)
--------------------------------------------------------------------------------
Calculating Ewald energy ...            70847.190391 Hartree

============================= Charge Augmentation ==============================
                           Aug box size:   33 x  33 x  33
================================================================================

Reading NGWFs from file "Co_cluster3_nspF.tightbox_ngwfs" ... done

================================= Core Density =================================
               Core den box size:   33 x  33 x  33
================================================================================
Density kernel initialisation

################################################################################
###################### NGWF self-consistent optimisation #######################
################################################################################
|ITER|    RMS GRADIENT   |     TOTAL ENERGY    |   step   |     Epredicted      

Reading Hamiltonian from file "Co_cluster3_nspF.ham" ... done
(P)DSYGVX in subroutine dense_eigensolve returned info=    2
 ifail= 2*0
 iclustr= 13,  42
 gap= 1.06396402027885916E-5,  1.7075318900016076E-5
(P)DSYGVX in subroutine dense_eigensolve returned info=    2
 ifail= 2*0
 iclustr= 14,  43
 gap= 3.62833634464065541E-5,  1.54229230958643711E-6
(P)DSYGVX in subroutine dense_eigensolve returned info=    2
 ifail= 2*0
 iclustr= 8,  55
 gap= 1.02732464957030568E-5,  2.10584697524280308E-5
(P)DSYGVX in subroutine dense_eigensolve returned info=    2
 ifail= 2*0
 iclustr= 66,  135
 gap= 1.06107974260892992E-5,  1.47125011478380961E-5
(P)DSYGVX in subroutine dense_eigensolve returned info=    2
 ifail= 2*0
 iclustr= 66,  135
 gap= 1.1284037742040925E-5,  1.24544515527990464E-5
(P)DSYGVX in subroutine dense_eigensolve returned info=    2
 ifail= 2*0
 iclustr= 66,  114
 gap= 1.98043003678848941E-5,  1.46418744180540717E-5
(P)DSYGVX in subroutine dense_eigensolve returned info=    2
 ifail= 2*0
 iclustr= 5,  55
 gap= 1.235385889295181E-5,  2.06538749524544149E-5
(P)DSYGVX in subroutine dense_eigensolve returned info=    2
 ifail= 2*0
 iclustr= 26,  43
 gap= 5.45347337572878432E-5,  5.94520113789356213E-5
(P)DSYGVX in subroutine dense_eigensolve returned info=    2
 ifail= 2*0
 iclustr= 750,  766
 gap= 5.11542916167895389E-5,  5.66400587326503822E-5
(P)DSYGVX in subroutine dense_eigensolve returned info=    2
 ifail= 2*0
 iclustr= 253,  273
 gap= 7.26689585588233023E-5,  4.91413430573952854E-5
(P)DSYGVX in subroutine dense_eigensolve returned info=    2
 ifail= 2*0
 iclustr= 286,  300
 gap= 1.64728136031068773E-5,  4.12053035156180979E-5
(P)DSYGVX in subroutine dense_eigensolve returned info=    2
 ifail= 2*0
 iclustr= 181,  207
 gap= 2.63471035250053953E-5,  1.02207213520810515E-5
(P)DSYGVX in subroutine dense_eigensolve returned info=    2
 ifail= 2*0
 iclustr= 41,  64
 gap= 3.69342579261450847E-5,  5.26844725651141212E-5
(P)DSYGVX in subroutine dense_eigensolve returned info=    2
 ifail= 2*0
 iclustr= 13,  24
 gap= 5.29997646585849642E-5,  7.14434578410558257E-5
(P)DSYGVX in subroutine dense_eigensolve returned info=    2
 ifail= 2*0
 iclustr= 47,  144
 gap= 1.69030783584080806E-5,  5.08612343939339427E-5
(P)DSYGVX in subroutine dense_eigensolve returned info=    2
 ifail= 2*0
 iclustr= 10,  24
 gap= 9.57821859828159928E-5,  8.77494595083820584E-5
(P)DSYGVX in subroutine dense_eigensolve returned info=    2
 ifail= 2*0
 iclustr= 56,  138
 gap= 1.51542705516585922E-5,  1.43960589075380178E-5
(P)DSYGVX in subroutine dense_eigensolve returned info=    2
 ifail= 2*0
 iclustr= 358,  384
 gap= 7.52076289823042153E-5,  6.64103571139834273E-5
(P)DSYGVX in subroutine dense_eigensolve returned info=    2
 ifail= 2*0
 iclustr= 238,  267
 gap= 1.15374874505788006E-5,  2.78915833414244113E-5
(P)DSYGVX in subroutine dense_eigensolve returned info=    2
 ifail= 2*0
 iclustr= 13,  42
 gap= 1.37313268588269845E-5,  2.92956114229520469E-6
(P)DSYGVX in subroutine dense_eigensolve returned info=    2
 ifail= 2*0
 iclustr= 14,  43
 gap= 1.76862839541275992E-5,  2.52075035381252596E-5
(P)DSYGVX in subroutine dense_eigensolve returned info=    2
 ifail= 2*0
 iclustr= 13,  42
 gap= 3.75068111634117221E-6,  1.72507862406278226E-6
(P)DSYGVX in subroutine dense_eigensolve returned info=    2
 ifail= 2*0
 iclustr= 14,  43
 gap= 3.56800548500909581E-5,  1.50510809448609667E-6
(P)DSYGVX in subroutine dense_eigensolve returned info=    2
 ifail= 2*0
 iclustr= 169,  195
 gap= 1.05465906428713636E-5,  2.02488436053226421E-5
(P)DSYGVX in subroutine dense_eigensolve returned info=    2
 ifail= 2*0
 iclustr= 259,  284
 gap= 1.83741718697821906E-5,  1.19258118537209757E-5
(P)DSYGVX in subroutine dense_eigensolve returned info=    2
 ifail= 2*0
 iclustr= 13,  42
 gap= 3.11769296001805208E-6,  2.55301764112425411E-6
(P)DSYGVX in subroutine dense_eigensolve returned info=    2
 ifail= 2*0
 iclustr= 14,  43
 gap= 3.82551788447183644E-5,  1.15327979503341091E-6
(P)DSYGVX in subroutine dense_eigensolve returned info=    2
 ifail= 2*0
 iclustr= 13,  42
 gap= 1.13926521193861266E-5,  3.51719832746948489E-6
(P)DSYGVX in subroutine dense_eigensolve returned info=    2
 ifail= 2*0
 iclustr= 14,  43
 gap= 1.21013631372104634E-5,  1.04959474339976059E-5
(P)DSYGVX in subroutine dense_eigensolve returned info=    2
 ifail= 2*0
 iclustr= 80,  106
 gap= 3.78979778844797715E-5,  2.04679398702121573E-5
(P)DSYGVX in subroutine dense_eigensolve returned info=    2
 ifail= 2*0
 iclustr= 80,  107
 gap= 3.24386456028725233E-5,  2.52591980782219594E-5
(P)DSYGVX in subroutine dense_eigensolve returned info=    2
 ifail= 2*0
 iclustr= 13,  42
 gap= 2.27978543343829822E-6,  6.42515653726547718E-6
(P)DSYGVX in subroutine dense_eigensolve returned info=    2
 ifail= 2*0
 iclustr= 14,  43
 gap= 1.71438006640844356E-5,  1.46478887669147991E-5
(P)DSYGVX in subroutine dense_eigensolve returned info=    2
 ifail= 2*0
 iclustr= 13,  42
 gap= 1.43665749053949127E-5,  1.851696383054934E-6
(P)DSYGVX in subroutine dense_eigensolve returned info=    2
 ifail= 2*0
 iclustr= 14,  43
 gap= 3.3094026326946474E-5,  1.39502291148756866E-6
(P)DSYGVX in subroutine dense_eigensolve returned info=    2
 ifail= 2*0
 iclustr= 31,  55
 gap= 1.48320154130593325E-5,  2.18033046587142189E-5
(P)DSYGVX in subroutine dense_eigensolve returned info=    2
 ifail= 2*0
 iclustr= 44,  67
 gap= 5.15990989333995435E-5,  4.13210366202122062E-5
(P)DSYGVX in subroutine dense_eigensolve returned info=    2
 ifail= 2*0
 iclustr= 13,  42
 gap= 2.45458638233238305E-6,  2.67408445985999298E-6
(P)DSYGVX in subroutine dense_eigensolve returned info=    2
 ifail= 2*0
 iclustr= 14,  43
 gap= 3.72416438505063823E-5,  1.32753685209309978E-6
(P)DSYGVX in subroutine dense_eigensolve returned info=    2
 ifail= 2*0
 iclustr= 13,  42
 gap= 2.73642807230994158E-6,  1.1924872897536128E-5
(P)DSYGVX in subroutine dense_eigensolve returned info=    2
 ifail= 2*0
 iclustr= 14,  43
 gap= 1.23182828006549383E-5,  1.15479129696364258E-5
(P)DSYGVX in subroutine dense_eigensolve returned info=    2
 ifail= 2*0
 iclustr= 74,  106
 gap= 5.22092637721899839E-5,  2.91248075213355232E-5
(P)DSYGVX in subroutine dense_eigensolve returned info=    2
 ifail= 2*0
 iclustr= 50,  80
 gap= 2.25010300693557106E-5,  2.4347077393982298E-5
(P)DSYGVX in subroutine dense_eigensolve returned info=    2
 ifail= 2*0
 iclustr= 13,  42
 gap= 4.43103058081475335E-6,  8.91580068226739896E-6
(P)DSYGVX in subroutine dense_eigensolve returned info=    2
 ifail= 2*0
 iclustr= 14,  43
 gap= 1.35693922194321578E-5,  1.34258470231781516E-5
(P)DSYGVX in subroutine dense_eigensolve returned info=    2
 ifail= 2*0
 iclustr= 13,  42
 gap= 5.03412380901903884E-6,  2.35651495314100615E-6
(P)DSYGVX in subroutine dense_eigensolve returned info=    2
 ifail= 2*0
 iclustr= 14,  43
 gap= 3.71480239396694038E-5,  1.77252015431075651E-6
(P)DSYGVX in subroutine dense_eigensolve returned info=    2
 ifail= 2*0
 iclustr= 31,  73
 gap= 2.61153898143769987E-5,  2.98011802465243591E-5
(P)DSYGVX in subroutine dense_eigensolve returned info=    2
 ifail= 2*0
 iclustr= 57,  80
 gap= 1.50065437550483883E-5,  1.19933739826528617E-5
(P)DSYGVX in subroutine dense_eigensolve returned info=    2
 ifail= 2*0
 iclustr= 13,  42
 gap= 1.02339407763074798E-6,  1.74413311810668763E-6
(P)DSYGVX in subroutine dense_eigensolve returned info=    2
 ifail= 2*0
 iclustr= 14,  43
 gap= 3.63731618222309274E-5,  1.43979404597823948E-6
(P)DSYGVX in subroutine dense_eigensolve returned info=    2
 ifail= 2*0
 iclustr= 13,  42
 gap= 2.30303552913265493E-6,  1.22755183694370288E-5
(P)DSYGVX in subroutine dense_eigensolve returned info=    2
 ifail= 2*0
 iclustr= 14,  43
 gap= 1.28145707480698212E-5,  1.17726239792561703E-5
(P)DSYGVX in subroutine dense_eigensolve returned info=    2
 ifail= 2*0
 iclustr= 52,  73
 gap= 3.0124078850082647E-5,  3.00071135443787866E-5
(P)DSYGVX in subroutine dense_eigensolve returned info=    2
 ifail= 2*0
 iclustr= 50,  62
 gap= 5.97550019751143873E-5,  2.46332609047947843E-5
(P)DSYGVX in subroutine dense_eigensolve returned info=    2
 ifail= 2*0
 iclustr= 13,  42
 gap= 5.30634045174753094E-6,  1.00657605779718355E-5
(P)DSYGVX in subroutine dense_eigensolve returned info=    2
 ifail= 2*0
 iclustr= 14,  43
 gap= 1.1738329056222039E-5,  1.3053012263939315E-5
(P)DSYGVX in subroutine dense_eigensolve returned info=    2
 ifail= 2*0
 iclustr= 13,  42
 gap= 3.31897785181874938E-6,  2.61595568370091499E-6
(P)DSYGVX in subroutine dense_eigensolve returned info=    2
 ifail= 2*0
 iclustr= 14,  43
 gap= 3.69047478620962232E-5,  1.49919178022151226E-6
(P)DSYGVX in subroutine dense_eigensolve returned info=    2
 ifail= 2*0
 iclustr= 74,  121
 gap= 1.64583624923413879E-5,  4.78977191379844784E-5
(P)DSYGVX in subroutine dense_eigensolve returned info=    2
 ifail= 2*0
 iclustr= 50,  71
 gap= 1.27006756937505991E-5,  5.34975694965685145E-5
(P)DSYGVX in subroutine dense_eigensolve returned info=    2
 ifail= 2*0
 iclustr= 13,  42
 gap= 4.62711224622759678E-6,  2.18753067299510543E-6
(P)DSYGVX in subroutine dense_eigensolve returned info=    2
 ifail= 2*0
 iclustr= 14,  43
 gap= 3.50365128433550372E-5,  1.00958691240233027E-6
   0     0.00002082652753 -21517.33213484845690   0.218252 -21517.33415883479390        
(P)DSYGVX in subroutine dense_eigensolve returned info=    2
 ifail= 2*0
 iclustr= 43,  73
 gap= 1.25930588938208703E-5,  2.86695381242061817E-5
(P)DSYGVX in subroutine dense_eigensolve returned info=    2
 ifail= 2*0
 iclustr= 53,  144
 gap= 2.13584849938047345E-5,  2.73892789349734786E-5
(P)DSYGVX in subroutine dense_eigensolve returned info=    2
 ifail= 2*0
 iclustr= 13,  42
 gap= 3.31702191408122496E-5,  1.06299670972379776E-5
(P)DSYGVX in subroutine dense_eigensolve returned info=    2
 ifail= 2*0
 iclustr= 14,  55
 gap= 1.27980348278451351E-5,  1.09195659006801217E-5
(P)DSYGVX in subroutine dense_eigensolve returned info=    2
 ifail= 2*0
 iclustr= 13,  42
 gap= 4.6819922251371722E-6,  1.07374112836868008E-5
(P)DSYGVX in subroutine dense_eigensolve returned info=    2
 ifail= 2*0
 iclustr= 14,  43
 gap= 1.0537262283076374E-5,  1.30175326564866596E-5
(P)DSYGVX in subroutine dense_eigensolve returned info=    2
 ifail= 2*0
 iclustr= 13,  42
 gap= 4.02188463302162225E-6,  2.55266029053781201E-6
(P)DSYGVX in subroutine dense_eigensolve returned info=    2
 ifail= 2*0
 iclustr= 14,  43
 gap= 3.66990552653323449E-5,  1.14936119159474619E-6
(P)DSYGVX in subroutine dense_eigensolve returned info=    2
 ifail= 2*0
 iclustr= 74,  121
 gap= 3.002985321092271E-5,  1.43972160959893603E-5
(P)DSYGVX in subroutine dense_eigensolve returned info=    2
 ifail= 2*0
 iclustr= 50,  71
 gap= 2.86836723295332329E-5,  4.54601810864996926E-5
(P)DSYGVX in subroutine dense_eigensolve returned info=    2
 ifail= 2*0
 iclustr= 13,  42
 gap= 1.4335539055623438E-6,  1.18659205683334847E-6
(P)DSYGVX in subroutine dense_eigensolve returned info=    2
 ifail= 2*0
 iclustr= 14,  43
 gap= 3.29500922753671243E-5,  2.00373670322343016E-6
(P)DSYGVX in subroutine dense_eigensolve returned info=    2
 ifail= 2*0
 iclustr= 13,  42
 gap= 1.07655611782041742E-5,  1.45299850259034691E-5
(P)DSYGVX in subroutine dense_eigensolve returned info=    2
 ifail= 2*0
 iclustr= 14,  43
 gap= 1.11185907585897123E-5,  1.14188189603408232E-5
(P)DSYGVX in subroutine dense_eigensolve returned info=    2
 ifail= 2*0
 iclustr= 13,  24
 gap= 2.62099580469937639E-5,  1.1002894239198709E-5
(P)DSYGVX in subroutine dense_eigensolve returned info=    2
 ifail= 2*0
 iclustr= 26,  52
 gap= 1.07400956893274238E-5,  1.78717655932689285E-5
(P)DSYGVX in subroutine dense_eigensolve returned info=    2
 ifail= 2*0
 iclustr= 13,  42
 gap= 4.25220528395835121E-6,  1.11334810037560006E-5
(P)DSYGVX in subroutine dense_eigensolve returned info=    2
 ifail= 2*0
 iclustr= 14,  43
 gap= 1.19080026952034068E-5,  1.3168981699817105E-5
(P)DSYGVX in subroutine dense_eigensolve returned info=    2
 ifail= 2*0
 iclustr= 13,  42
 gap= 4.52785647164640859E-6,  2.53008648538928673E-6
(P)DSYGVX in subroutine dense_eigensolve returned info=    2
 ifail= 2*0
 iclustr= 14,  43
 gap= 3.64827619555796052E-5,  1.58129646553507219E-6
(P)DSYGVX in subroutine dense_eigensolve returned info=    2
 ifail= 2*0
 iclustr= 43,  73
 gap= 4.496126554386817E-5,  1.1716287005594591E-5
(P)DSYGVX in subroutine dense_eigensolve returned info=    2
 ifail= 2*0
 iclustr= 63,  86
 gap= 3.47936115941279862E-5,  1.32510842297185189E-5
(P)DSYGVX in subroutine dense_eigensolve returned info=    2
 ifail= 2*0
 iclustr= 13,  42
 gap= 1.86957595471973859E-6,  2.33890823865404473E-6
(P)DSYGVX in subroutine dense_eigensolve returned info=    2
 ifail= 2*0
 iclustr= 14,  43
 gap= 3.21126720251246761E-5,  1.05426262190375519E-6
(P)DSYGVX in subroutine dense_eigensolve returned info=    2
 ifail= 2*0
 iclustr= 13,  42
 gap= 1.08744204970611428E-5,  1.43635945197542677E-5
(P)DSYGVX in subroutine dense_eigensolve returned info=    2
 ifail= 2*0
 iclustr= 14,  43
 gap= 1.10728905096263966E-5,  1.19591494314556146E-5
(P)DSYGVX in subroutine dense_eigensolve returned info=    2
 ifail= 2*0
 iclustr= 13,  24
 gap= 2.56267884009915269E-5,  1.06912020017701488E-5
(P)DSYGVX in subroutine dense_eigensolve returned info=    2
 ifail= 2*0
 iclustr= 26,  52
 gap= 1.04300243498555687E-5,  1.73105178053587869E-5
(P)DSYGVX in subroutine dense_eigensolve returned info=    2
 ifail= 2*0
 iclustr= 13,  42
 gap= 3.84442210445395346E-6,  1.13609691196253471E-5
(P)DSYGVX in subroutine dense_eigensolve returned info=    2
 ifail= 2*0
 iclustr= 14,  43
 gap= 1.04900686682996396E-5,  1.34188602744444721E-5
(P)DSYGVX in subroutine dense_eigensolve returned info=    2
 ifail= 2*0
 iclustr= 13,  42
 gap= 3.01464846142177904E-6,  2.78939013297806145E-6
(P)DSYGVX in subroutine dense_eigensolve returned info=    2
 ifail= 2*0
 iclustr= 14,  43
 gap= 3.62361985304748255E-5,  1.17285255191301444E-6
(P)DSYGVX in subroutine dense_eigensolve returned info=    2
 ifail= 2*0
 iclustr= 43,  103
 gap= 2.98703904310460481E-5,  1.95775603443637427E-5
(P)DSYGVX in subroutine dense_eigensolve returned info=    2
 ifail= 2*0
 iclustr= 53,  86
 gap= 2.93668667944701673E-5,  2.11272432202338052E-5
(P)DSYGVX in subroutine dense_eigensolve returned info=    2
 ifail= 2*0
 iclustr= 13,  42
 gap= 2.23157546612886854E-6,  1.25428436569993502E-6
(P)DSYGVX in subroutine dense_eigensolve returned info=    2
 ifail= 2*0
 iclustr= 14,  43
 gap= 3.14652502691699419E-5,  1.14740841107550741E-6
(P)DSYGVX in subroutine dense_eigensolve returned info=    2
 ifail= 2*0
 iclustr= 13,  42
 gap= 1.09514568653559671E-5,  1.41252351233037133E-5
(P)DSYGVX in subroutine dense_eigensolve returned info=    2
 ifail= 2*0
 iclustr= 14,  43
 gap= 1.10534276738275002E-5,  1.2529973292300692E-5
(P)DSYGVX in subroutine dense_eigensolve returned info=    2
 ifail= 2*0
 iclustr= 13,  24
 gap= 2.49888235721379451E-5,  1.09636620757028742E-5
(P)DSYGVX in subroutine dense_eigensolve returned info=    2
 ifail= 2*0
 iclustr= 26,  52
 gap= 1.02630504026216581E-5,  1.50883565458902194E-5
(P)DSYGVX in subroutine dense_eigensolve returned info=    2
 ifail= 2*0
 iclustr= 13,  42
 gap= 3.32698384486723841E-6,  1.1472936052057371E-5
(P)DSYGVX in subroutine dense_eigensolve returned info=    2
 ifail= 2*0
 iclustr= 14,  43
 gap= 1.11786115680448771E-5,  1.37502962552506971E-5
(P)DSYGVX in subroutine dense_eigensolve returned info=    2
 ifail= 2*0
 iclustr= 13,  42
 gap= 1.86636816537162159E-6,  2.83173593940744525E-6
(P)DSYGVX in subroutine dense_eigensolve returned info=    2
 ifail= 2*0
 iclustr= 14,  43
 gap= 3.60157193790598614E-5,  1.41793102492705183E-6
(P)DSYGVX in subroutine dense_eigensolve returned info=    2
 ifail= 2*0
 iclustr= 43,  76
 gap= 4.50891887697918119E-5,  3.10787624472221212E-5
(P)DSYGVX in subroutine dense_eigensolve returned info=    2
 ifail= 2*0
 iclustr= 56,  86
 gap= 2.61198887403857369E-5,  1.96110660909243651E-5
(P)DSYGVX in subroutine dense_eigensolve returned info=    2
 ifail= 2*0
 iclustr= 13,  42
 gap= 2.53374529143703433E-6,  1.0909304898441189E-6
(P)DSYGVX in subroutine dense_eigensolve returned info=    2
 ifail= 2*0
 iclustr= 14,  43
 gap= 3.07947428290298447E-5,  1.01679169502260858E-6
(P)DSYGVX in subroutine dense_eigensolve returned info=    2
 ifail= 2*0
 iclustr= 13,  42
 gap= 1.09957991950539013E-5,  1.3884941104810895E-5
(P)DSYGVX in subroutine dense_eigensolve returned info=    2
 ifail= 2*0
 iclustr= 14,  43
 gap= 1.10384259508621588E-5,  1.31076455189906591E-5
(P)DSYGVX in subroutine dense_eigensolve returned info=    2
 ifail= 2*0
 iclustr= 13,  24
 gap= 2.07409849675794979E-5,  1.04201779663259109E-5
(P)DSYGVX in subroutine dense_eigensolve returned info=    2
 ifail= 2*0
 iclustr= 26,  52
 gap= 1.01978587002011016E-5,  1.70756322504112679E-5
(P)DSYGVX in subroutine dense_eigensolve returned info=    2
 ifail= 2*0
 iclustr= 13,  42
 gap= 2.95321589638411336E-6,  1.15092970147672692E-5
(P)DSYGVX in subroutine dense_eigensolve returned info=    2
 ifail= 2*0
 iclustr= 14,  43
 gap= 1.17145663182376373E-5,  1.41417129163758297E-5
(P)DSYGVX in subroutine dense_eigensolve returned info=    2
 ifail= 2*0
 iclustr= 13,  42
 gap= 4.52811161252008255E-6,  2.23912006245725466E-6
(P)DSYGVX in subroutine dense_eigensolve returned info=    2
 ifail= 2*0
 iclustr= 14,  43
 gap= 3.47423792193158752E-5,  1.52082937899801632E-6
(P)DSYGVX in subroutine dense_eigensolve returned info=    2
 ifail= 2*0
 iclustr= 43,  76
 gap= 2.2123678243295587E-5,  1.22643782127504822E-5
(P)DSYGVX in subroutine dense_eigensolve returned info=    2
 ifail= 2*0
 iclustr= 56,  141
 gap= 1.85770990757949198E-5,  2.4885182850957794E-5
(P)DSYGVX in subroutine dense_eigensolve returned info=    2
 ifail= 2*0
 iclustr= 13,  42
 gap= 2.7985209150426546E-6,  1.88262888216336887E-5
(P)DSYGVX in subroutine dense_eigensolve returned info=    2
 ifail= 2*0
 iclustr= 14,  43
 gap= 3.0227322234740634E-5,  1.24990803117150289E-6
   1     0.00001689697800 -21517.34973713167710   0.353966 -21517.35189784115570        
(P)DSYGVX in subroutine dense_eigensolve returned info=    2
 ifail= 2*0
 iclustr= 13,  24
 gap= 2.42806533270246394E-5,  1.40739538198547E-5
(P)DSYGVX in subroutine dense_eigensolve returned info=    2
 ifail= 2*0
 iclustr= 26,  52
 gap= 1.05688476804965338E-5,  1.76851595558301444E-5
(P)DSYGVX in subroutine dense_eigensolve returned info=    2
 ifail= 2*0
 iclustr= 13,  42
 gap= 1.044973540109253E-5,  1.17770475389651275E-5
(P)DSYGVX in subroutine dense_eigensolve returned info=    2
 ifail= 2*0
 iclustr= 14,  55
 gap= 1.29098086132104846E-5,  1.36961434589976048E-5
(P)DSYGVX in subroutine dense_eigensolve returned info=    2
 ifail= 2*0
 iclustr= 13,  42
 gap= 3.05262970214901572E-6,  1.13250860167035111E-5
(P)DSYGVX in subroutine dense_eigensolve returned info=    2
 ifail= 2*0
 iclustr= 14,  43
 gap= 1.1607822872842747E-5,  1.46605171950394526E-5
(P)DSYGVX in subroutine dense_eigensolve returned info=    2
 ifail= 2*0
 iclustr= 13,  42
 gap= 3.7160452177408041E-6,  2.02152305193767792E-5
(P)DSYGVX in subroutine dense_eigensolve returned info=    2
 ifail= 2*0
 iclustr= 14,  43
 gap= 3.30415762804129066E-5,  1.76083367548805828E-6
(P)DSYGVX in subroutine dense_eigensolve returned info=    2
 ifail= 2*0
 iclustr= 46,  76
 gap= 3.58875175974173027E-5,  1.77539874994616485E-5
(P)DSYGVX in subroutine dense_eigensolve returned info=    2
 ifail= 2*0
 iclustr= 26,  52
 gap= 1.2025075231425872E-5,  1.74254289976421451E-5
(P)DSYGVX in subroutine dense_eigensolve returned info=    2
 ifail= 2*0
 iclustr= 13,  42
 gap= 3.29792074409573853E-6,  1.81337872170807447E-5
(P)DSYGVX in subroutine dense_eigensolve returned info=    2
 ifail= 2*0
 iclustr= 14,  43
 gap= 2.91564100685857501E-5,  1.05149806430312287E-5
(P)DSYGVX in subroutine dense_eigensolve returned info=    2
 ifail= 2*0
 iclustr= 13,  42
 gap= 1.10174577630200418E-5,  1.34872923689768813E-5
(P)DSYGVX in subroutine dense_eigensolve returned info=    2
 ifail= 2*0
 iclustr= 14,  43
 gap= 1.09262724815274571E-5,  1.41857836854545117E-5
(P)DSYGVX in subroutine dense_eigensolve returned info=    2
 ifail= 2*0
 iclustr= 7,  24
 gap= 1.91246750552518727E-5,  8.14336817422061629E-5
(P)DSYGVX in subroutine dense_eigensolve returned info=    2
 ifail= 2*0
 iclustr= 56,  138
 gap= 1.76902697159221684E-5,  3.24618570089983468E-5
(P)DSYGVX in subroutine dense_eigensolve returned info=    2
 ifail= 2*0
 iclustr= 13,  42
 gap= 2.74211666604936727E-6,  1.13908101157011093E-5
(P)DSYGVX in subroutine dense_eigensolve returned info=    2
 ifail= 2*0
 iclustr= 14,  43
 gap= 1.20580647392650899E-5,  1.51090951605717635E-5
(P)DSYGVX in subroutine dense_eigensolve returned info=    2
 ifail= 2*0
 iclustr= 13,  42
 gap= 4.26190223052552937E-6,  2.05493952042299636E-5
(P)DSYGVX in subroutine dense_eigensolve returned info=    2
 ifail= 2*0
 iclustr= 14,  43
 gap= 3.35569468392188342E-5,  1.17021958663213723E-6
(P)DSYGVX in subroutine dense_eigensolve returned info=    2
 ifail= 2*0
 iclustr= 46,  103
 gap= 1.00414375330643658E-5,  3.21832625581225349E-5
(P)DSYGVX in subroutine dense_eigensolve returned info=    2
 ifail= 2*0
 iclustr= 26,  52
 gap= 1.19686584464626008E-5,  1.72906151699171888E-5
(P)DSYGVX in subroutine dense_eigensolve returned info=    2
 ifail= 2*0
 iclustr= 13,  42
 gap= 3.38295471004984734E-6,  1.79514142364300337E-5
(P)DSYGVX in subroutine dense_eigensolve returned info=    2
 ifail= 2*0
 iclustr= 14,  43
 gap= 2.90801916708278869E-5,  1.135159892777931E-5
(P)DSYGVX in subroutine dense_eigensolve returned info=    2
 ifail= 2*0
 iclustr= 13,  42
 gap= 1.09556300355518458E-5,  1.33754359638647673E-5
(P)DSYGVX in subroutine dense_eigensolve returned info=    2
 ifail= 2*0
 iclustr= 14,  43
 gap= 1.08438402611616237E-5,  1.4731737793735633E-5
(P)DSYGVX in subroutine dense_eigensolve returned info=    2
 ifail= 2*0
 iclustr= 10,  24
 gap= 3.97086306865213591E-5,  7.77974791812270606E-5
(P)DSYGVX in subroutine dense_eigensolve returned info=    2
 ifail= 2*0
 iclustr= 56,  138
 gap= 1.79185478447088412E-5,  3.25348606723335637E-5
(P)DSYGVX in subroutine dense_eigensolve returned info=    2
 ifail= 2*0
 iclustr= 13,  42
 gap= 2.42202893973694355E-6,  1.141627893515572E-5
(P)DSYGVX in subroutine dense_eigensolve returned info=    2
 ifail= 2*0
 iclustr= 14,  43
 gap= 1.25511667252135409E-5,  1.55919670464052715E-5
(P)DSYGVX in subroutine dense_eigensolve returned info=    2
 ifail= 2*0
 iclustr= 13,  42
 gap= 3.90494509518820593E-6,  2.01294337528662423E-5
(P)DSYGVX in subroutine dense_eigensolve returned info=    2
 ifail= 2*0
 iclustr= 14,  43
 gap= 3.29257711656219748E-5,  1.06195714091135472E-5
(P)DSYGVX in subroutine dense_eigensolve returned info=    2
 ifail= 2*0
 iclustr= 13,  24
 gap= 2.5446056583502088E-5,  1.21720268196371582E-5
(P)DSYGVX in subroutine dense_eigensolve returned info=    2
 ifail= 2*0
 iclustr= 26,  52
 gap= 1.18954438974775766E-5,  1.71224790029829858E-5
(P)DSYGVX in subroutine dense_eigensolve returned info=    2
 ifail= 2*0
 iclustr= 13,  42
 gap= 3.48859405874695493E-6,  1.7746573012409141E-5
(P)DSYGVX in subroutine dense_eigensolve returned info=    2
 ifail= 2*0
 iclustr= 14,  43
 gap= 2.88832862069972579E-5,  1.21488384749621956E-5
(P)DSYGVX in subroutine dense_eigensolve returned info=    2
 ifail= 2*0
 iclustr= 13,  42
 gap= 1.08949600503599039E-5,  1.32373935335455932E-5
(P)DSYGVX in subroutine dense_eigensolve returned info=    2
 ifail= 2*0
 iclustr= 14,  43
 gap= 1.07938897764384533E-5,  1.53052130523451413E-5
(P)DSYGVX in subroutine dense_eigensolve returned info=    2
 ifail= 2*0
 iclustr= 10,  24
 gap= 5.62567914418619013E-5,  7.43584925739771801E-5
(P)DSYGVX in subroutine dense_eigensolve returned info=    2
 ifail= 2*0
 iclustr= 56,  138
 gap= 1.81344656026973912E-5,  3.22665877437420479E-5
(P)DSYGVX in subroutine dense_eigensolve returned info=    2
 ifail= 2*0
 iclustr= 13,  42
 gap= 2.14750218646189328E-6,  1.14047441371046676E-5
(P)DSYGVX in subroutine dense_eigensolve returned info=    2
 ifail= 2*0
 iclustr= 14,  43
 gap= 1.27033014658492934E-5,  1.6097437778374795E-5
(P)DSYGVX in subroutine dense_eigensolve returned info=    2
 ifail= 2*0
 iclustr= 13,  42
 gap= 3.5984041886360384E-6,  1.97335113536664168E-5
(P)DSYGVX in subroutine dense_eigensolve returned info=    2
 ifail= 2*0
 iclustr= 14,  43
 gap= 3.25691979331773075E-5,  1.14819004218507166E-5
(P)DSYGVX in subroutine dense_eigensolve returned info=    2
 ifail= 2*0
 iclustr= 13,  24
 gap= 2.52043314429746975E-5,  1.02719681603448125E-5
(P)DSYGVX in subroutine dense_eigensolve returned info=    2
 ifail= 2*0
 iclustr= 26,  52
 gap= 1.18535926467523331E-5,  1.52900012024659165E-5
(P)DSYGVX in subroutine dense_eigensolve returned info=    2
 ifail= 2*0
 iclustr= 13,  42
 gap= 3.60312680483571119E-6,  1.75314410457005328E-5
(P)DSYGVX in subroutine dense_eigensolve returned info=    2
 ifail= 2*0
 iclustr= 14,  43
 gap= 2.86729228093103736E-5,  1.29326534355699003E-5
(P)DSYGVX in subroutine dense_eigensolve returned info=    2
 ifail= 2*0
 iclustr= 13,  42
 gap= 1.07221270747781124E-5,  1.30900858098074171E-5
(P)DSYGVX in subroutine dense_eigensolve returned info=    2
 ifail= 2*0
 iclustr= 14,  43
 gap= 1.07654016248628033E-5,  1.58977922224437508E-5
(P)DSYGVX in subroutine dense_eigensolve returned info=    2
 ifail= 2*0
 iclustr= 10,  24
 gap= 2.15262651911713197E-5,  7.10771383188521646E-5
(P)DSYGVX in subroutine dense_eigensolve returned info=    2
 ifail= 2*0
 iclustr= 56,  138
 gap= 1.8339982761936075E-5,  1.22218519495705494E-5
(P)DSYGVX in subroutine dense_eigensolve returned info=    2
 ifail= 2*0
 iclustr= 13,  42
 gap= 1.00422237620727502E-6,  1.13688742535875929E-5
(P)DSYGVX in subroutine dense_eigensolve returned info=    2
 ifail= 2*0
 iclustr= 14,  43
 gap= 1.25124752316623464E-5,  1.65647142503738615E-5
(P)DSYGVX in subroutine dense_eigensolve returned info=    2
 ifail= 2*0
 iclustr= 13,  42
 gap= 3.36911912231141947E-6,  1.9358897982228388E-5
(P)DSYGVX in subroutine dense_eigensolve returned info=    2
 ifail= 2*0
 iclustr= 14,  43
 gap= 3.1240195813152523E-5,  1.22389838906916658E-5
(P)DSYGVX in subroutine dense_eigensolve returned info=    2
 ifail= 2*0
 iclustr= 13,  24
 gap= 2.4971739776383664E-5,  1.01452405062232559E-5
(P)DSYGVX in subroutine dense_eigensolve returned info=    2
 ifail= 2*0
 iclustr= 26,  52
 gap= 1.22021772785581064E-5,  1.70664141806220389E-5
(P)DSYGVX in subroutine dense_eigensolve returned info=    2
 ifail= 2*0
 iclustr= 13,  42
 gap= 3.41329569886670133E-6,  1.73149471939562684E-5
(P)DSYGVX in subroutine dense_eigensolve returned info=    2
 ifail= 2*0
 iclustr= 14,  43
 gap= 2.78730660768880329E-5,  1.36191605078356734E-5
   2     0.00002530743788 -21517.36008306135050   0.154734 -21517.36220190361200        
(P)DSYGVX in subroutine dense_eigensolve returned info=    2
 ifail= 2*0
 iclustr= 10,  30
 gap= 4.80498546177583229E-5,  6.34034139352373399E-5
(P)DSYGVX in subroutine dense_eigensolve returned info=    2
 ifail= 2*0
 iclustr= 56,  135
 gap= 1.77027463106603363E-5,  2.02134551658408E-5
(P)DSYGVX in subroutine dense_eigensolve returned info=    2
 ifail= 2*0
 iclustr= 13,  42
 gap= 1.27063567497861606E-5,  2.19565888932271558E-5
(P)DSYGVX in subroutine dense_eigensolve returned info=    2
 ifail= 2*0
 iclustr= 14,  55
 gap= 1.9690002350986955E-5,  1.10715935354112489E-6
(P)DSYGVX in subroutine dense_eigensolve returned info=    2
 ifail= 2*0
 iclustr= 13,  42
 gap= 3.56825402271328229E-6,  1.01891992383848492E-5
(P)DSYGVX in subroutine dense_eigensolve returned info=    2
 ifail= 2*0
 iclustr= 14,  43
 gap= 1.02560668596145683E-5,  1.74114109710539576E-5
(P)DSYGVX in subroutine dense_eigensolve returned info=    2
 ifail= 2*0
 iclustr= 13,  42
 gap= 2.61185241472557509E-6,  2.18043167295225835E-5
(P)DSYGVX in subroutine dense_eigensolve returned info=    2
 ifail= 2*0
 iclustr= 14,  43
 gap= 3.43838401915841656E-5,  1.39267564182620825E-5
(P)DSYGVX in subroutine dense_eigensolve returned info=    2
 ifail= 2*0
 iclustr= 46,  103
 gap= 1.19411659343690298E-5,  2.18872760411110057E-5
(P)DSYGVX in subroutine dense_eigensolve returned info=    2
 ifail= 2*0
 iclustr= 26,  46
 gap= 1.18678489478501694E-5,  1.84952814908474719E-5
(P)DSYGVX in subroutine dense_eigensolve returned info=    2
 ifail= 2*0
 iclustr= 13,  42
 gap= 3.81236184815672122E-6,  1.66590039267529159E-5
(P)DSYGVX in subroutine dense_eigensolve returned info=    2
 ifail= 2*0
 iclustr= 14,  43
 gap= 2.71019623717365213E-5,  1.48164046743708344E-5
(P)DSYGVX in subroutine dense_eigensolve returned info=    2
 ifail= 2*0
 iclustr= 13,  42
 gap= 1.20667863817966631E-6,  1.33596277592335121E-5
(P)DSYGVX in subroutine dense_eigensolve returned info=    2
 ifail= 2*0
 iclustr= 14,  43
 gap= 1.96808343701030056E-5,  1.67359222373639212E-5
(P)DSYGVX in subroutine dense_eigensolve returned info=    2
 ifail= 2*0
 iclustr= 10,  42
 gap= 4.73821782574167431E-5,  1.06198161711106249E-5
(P)DSYGVX in subroutine dense_eigensolve returned info=    2
 ifail= 2*0
 iclustr= 14,  52
 gap= 1.06083955958634274E-5,  1.22172689137320128E-5
(P)DSYGVX in subroutine dense_eigensolve returned info=    2
 ifail= 2*0
 iclustr= 13,  42
 gap= 3.35838066771102038E-6,  1.00486586331815829E-5
(P)DSYGVX in subroutine dense_eigensolve returned info=    2
 ifail= 2*0
 iclustr= 14,  43
 gap= 1.06437460858396812E-5,  1.79264652421965448E-5
(P)DSYGVX in subroutine dense_eigensolve returned info=    2
 ifail= 2*0
 iclustr= 13,  42
 gap= 2.51056598906357313E-6,  2.16106499284935865E-5
(P)DSYGVX in subroutine dense_eigensolve returned info=    2
 ifail= 2*0
 iclustr= 14,  43
 gap= 3.42144917888343209E-5,  1.46338571148004892E-5
(P)DSYGVX in subroutine dense_eigensolve returned info=    2
 ifail= 2*0
 iclustr= 46,  103
 gap= 1.44414248169755318E-5,  2.3270371435068601E-5
(P)DSYGVX in subroutine dense_eigensolve returned info=    2
 ifail= 2*0
 iclustr= 26,  52
 gap= 1.14916274044854753E-5,  1.78501592692681437E-5
(P)DSYGVX in subroutine dense_eigensolve returned info=    2
 ifail= 2*0
 iclustr= 13,  42
 gap= 4.03472160596917511E-6,  1.62519564704842092E-5
(P)DSYGVX in subroutine dense_eigensolve returned info=    2
 ifail= 2*0
 iclustr= 14,  43
 gap= 2.64136806254702053E-5,  1.55925283226323967E-5
(P)DSYGVX in subroutine dense_eigensolve returned info=    2
 ifail= 2*0
 iclustr= 13,  42
 gap= 1.31675697639531243E-6,  1.29872962942328431E-5
(P)DSYGVX in subroutine dense_eigensolve returned info=    2
 ifail= 2*0
 iclustr= 14,  43
 gap= 1.00490795106022663E-5,  1.7379620972445496E-5
(P)DSYGVX in subroutine dense_eigensolve returned info=    2
 ifail= 2*0
 iclustr= 10,  42
 gap= 4.72518327357362075E-5,  1.11442115140971022E-5
(P)DSYGVX in subroutine dense_eigensolve returned info=    2
 ifail= 2*0
 iclustr= 14,  55
 gap= 1.06369647571249178E-5,  1.03064221782102047E-5
(P)DSYGVX in subroutine dense_eigensolve returned info=    2
 ifail= 2*0
 iclustr= 13,  42
 gap= 3.19297558239146507E-6,  9.9611280309411752E-6
(P)DSYGVX in subroutine dense_eigensolve returned info=    2
 ifail= 2*0
 iclustr= 14,  43
 gap= 1.09877565095496216E-5,  1.84705080658983474E-5
(P)DSYGVX in subroutine dense_eigensolve returned info=    2
 ifail= 2*0
 iclustr= 13,  42
 gap= 1.36626173830227923E-6,  2.06980816523658048E-5
(P)DSYGVX in subroutine dense_eigensolve returned info=    2
 ifail= 2*0
 iclustr= 14,  43
 gap= 3.35827775839275564E-5,  1.48151742789771492E-5
(P)DSYGVX in subroutine dense_eigensolve returned info=    2
 ifail= 2*0
 iclustr= 13,  24
 gap= 2.55926500846963555E-5,  1.40049585327772752E-5
(P)DSYGVX in subroutine dense_eigensolve returned info=    2
 ifail= 2*0
 iclustr= 26,  52
 gap= 1.12571789542700249E-5,  1.75019849955593096E-5
(P)DSYGVX in subroutine dense_eigensolve returned info=    2
 ifail= 2*0
 iclustr= 13,  42
 gap= 4.23956176637391215E-6,  1.58987184188339366E-5
(P)DSYGVX in subroutine dense_eigensolve returned info=    2
 ifail= 2*0
 iclustr= 14,  43
 gap= 2.62239269104838593E-5,  1.6570825751448917E-5
(P)DSYGVX in subroutine dense_eigensolve returned info=    2
 ifail= 2*0
 iclustr= 13,  42
 gap= 1.29948385292390594E-6,  1.26563310263570015E-5
(P)DSYGVX in subroutine dense_eigensolve returned info=    2
 ifail= 2*0
 iclustr= 14,  43
 gap= 1.01932862849892355E-5,  1.80344400153190829E-5
(P)DSYGVX in subroutine dense_eigensolve returned info=    2
 ifail= 2*0
 iclustr= 10,  42
 gap= 4.7089723316586723E-5,  1.13952770225640154E-5
(P)DSYGVX in subroutine dense_eigensolve returned info=    2
 ifail= 2*0
 iclustr= 14,  55
 gap= 1.07657243143527918E-5,  1.65869002102161138E-5
(P)DSYGVX in subroutine dense_eigensolve returned info=    2
 ifail= 2*0
 iclustr= 13,  42
 gap= 3.07607534091872834E-6,  9.86244472211990347E-6
(P)DSYGVX in subroutine dense_eigensolve returned info=    2
 ifail= 2*0
 iclustr= 14,  43
 gap= 1.12496385067183792E-5,  1.89898755434776817E-5
(P)DSYGVX in subroutine dense_eigensolve returned info=    2
 ifail= 2*0
 iclustr= 13,  42
 gap= 4.40387821244581085E-6,  1.99111984512017502E-5
(P)DSYGVX in subroutine dense_eigensolve returned info=    2
 ifail= 2*0
 iclustr= 14,  43
 gap= 3.29833105976805088E-5,  1.53172241525063733E-5
(P)DSYGVX in subroutine dense_eigensolve returned info=    2
 ifail= 2*0
 iclustr= 13,  24
 gap= 2.52521018556376105E-5,  1.31737802280642202E-5
(P)DSYGVX in subroutine dense_eigensolve returned info=    2
 ifail= 2*0
 iclustr= 26,  52
 gap= 1.10929962777809325E-5,  1.73697463558036365E-5
(P)DSYGVX in subroutine dense_eigensolve returned info=    2
 ifail= 2*0
 iclustr= 13,  42
 gap= 4.42901354968444687E-6,  1.55655762426137089E-5
(P)DSYGVX in subroutine dense_eigensolve returned info=    2
 ifail= 2*0
 iclustr= 14,  43
 gap= 2.56621427985466072E-5,  1.72521026849150348E-5
(P)DSYGVX in subroutine dense_eigensolve returned info=    2
 ifail= 2*0
 iclustr= 13,  42
 gap= 1.01535791599940168E-5,  1.23484870641039294E-5
(P)DSYGVX in subroutine dense_eigensolve returned info=    2
 ifail= 2*0
 iclustr= 14,  43
 gap= 1.02666740661972528E-5,  1.85634841100607462E-5
(P)DSYGVX in subroutine dense_eigensolve returned info=    2
 ifail= 2*0
 iclustr= 10,  42
 gap= 4.48635153284050305E-5,  1.07773581303518887E-5
(P)DSYGVX in subroutine dense_eigensolve returned info=    2
 ifail= 2*0
 iclustr= 14,  55
 gap= 1.09319881867828573E-5,  1.59779807525752995E-5
(P)DSYGVX in subroutine dense_eigensolve returned info=    2
 ifail= 2*0
 iclustr= 13,  42
 gap= 2.99100984404595192E-6,  9.75282856041362766E-6
(P)DSYGVX in subroutine dense_eigensolve returned info=    2
 ifail= 2*0
 iclustr= 14,  43
 gap= 1.14424003219220925E-5,  1.94596412918164889E-5
(P)DSYGVX in subroutine dense_eigensolve returned info=    2
 ifail= 2*0
 iclustr= 13,  42
 gap= 4.16292835732890527E-6,  1.92158789415971996E-5
(P)DSYGVX in subroutine dense_eigensolve returned info=    2
 ifail= 2*0
 iclustr= 14,  43
 gap= 3.22769966591758442E-5,  1.5932707891909576E-5
(P)DSYGVX in subroutine dense_eigensolve returned info=    2
 ifail= 2*0
 iclustr= 13,  24
 gap= 2.49141989392549102E-5,  1.24548150753413216E-5
(P)DSYGVX in subroutine dense_eigensolve returned info=    2
 ifail= 2*0
 iclustr= 56,  138
 gap= 1.63786799627055576E-5,  2.34946648322379841E-5
(P)DSYGVX in subroutine dense_eigensolve returned info=    2
 ifail= 2*0
 iclustr= 13,  42
 gap= 4.60486992302448603E-6,  1.52459329135562875E-5
(P)DSYGVX in subroutine dense_eigensolve returned info=    2
 ifail= 2*0
 iclustr= 14,  43
 gap= 2.53671444414206462E-5,  1.80514286183526672E-5
   3     0.00001078517884 -21517.36896606837400   0.115396 -21517.36925305619660        
(P)DSYGVX in subroutine dense_eigensolve returned info=    2
 ifail= 2*0
 iclustr= 13,  42
 gap= 4.33534613302546606E-5,  1.0877930351773708E-5
(P)DSYGVX in subroutine dense_eigensolve returned info=    2
 ifail= 2*0
 iclustr= 14,  55
 gap= 1.11733038330919302E-5,  1.60438398613660225E-5
(P)DSYGVX in subroutine dense_eigensolve returned info=    2
 ifail= 2*0
 iclustr= 13,  42
 gap= 2.15270337271908627E-5,  1.51523753457009619E-5
(P)DSYGVX in subroutine dense_eigensolve returned info=    2
 ifail= 2*0
 iclustr= 14,  43
 gap= 1.92450385896846632E-5,  3.51587646180230966E-5
(P)DSYGVX in subroutine dense_eigensolve returned info=    2
 ifail= 2*0
 iclustr= 13,  42
 gap= 3.01697705540995163E-6,  9.62395637634505394E-6
(P)DSYGVX in subroutine dense_eigensolve returned info=    2
 ifail= 2*0
 iclustr= 14,  43
 gap= 1.15217284335661486E-5,  1.99179218702384265E-5
(P)DSYGVX in subroutine dense_eigensolve returned info=    2
 ifail= 2*0
 iclustr= 13,  42
 gap= 3.40594198794433186E-6,  1.83724134904891963E-5
(P)DSYGVX in subroutine dense_eigensolve returned info=    2
 ifail= 2*0
 iclustr= 14,  43
 gap= 3.11923788511514412E-5,  1.66207093864869371E-5
(P)DSYGVX in subroutine dense_eigensolve returned info=    2
 ifail= 2*0
 iclustr= 13,  24
 gap= 2.45598537941779252E-5,  1.13301182963313199E-5
(P)DSYGVX in subroutine dense_eigensolve returned info=    2
 ifail= 2*0
 iclustr= 56,  138
 gap= 1.47487410640020386E-5,  2.95340645888061616E-5
(P)DSYGVX in subroutine dense_eigensolve returned info=    2
 ifail= 2*0
 iclustr= 13,  42
 gap= 4.09528851870560688E-6,  1.48857866822826884E-5
(P)DSYGVX in subroutine dense_eigensolve returned info=    2
 ifail= 2*0
 iclustr= 14,  43
 gap= 2.48056917892671679E-5,  1.87611232938229411E-5
(P)DSYGVX in subroutine dense_eigensolve returned info=    2
 ifail= 2*0
 iclustr= 13,  42
 gap= 4.70816825955192776E-6,  1.18604892706330602E-5
(P)DSYGVX in subroutine dense_eigensolve returned info=    2
 ifail= 2*0
 iclustr= 14,  43
 gap= 1.04284447601696375E-5,  1.9684579308717665E-5
(P)DSYGVX in subroutine dense_eigensolve returned info=    2
 ifail= 2*0
 iclustr= 13,  42
 gap= 3.81219590533509595E-5,  1.07712874949375607E-5
(P)DSYGVX in subroutine dense_eigensolve returned info=    2
 ifail= 2*0
 iclustr= 14,  55
 gap= 1.1477601229066538E-5,  1.38347359645093703E-5
(P)DSYGVX in subroutine dense_eigensolve returned info=    2
 ifail= 2*0
 iclustr= 13,  42
 gap= 2.25197736971984392E-6,  9.55999488778720758E-6
(P)DSYGVX in subroutine dense_eigensolve returned info=    2
 ifail= 2*0
 iclustr= 14,  43
 gap= 1.17344446423993445E-5,  2.03542111279981632E-5
(P)DSYGVX in subroutine dense_eigensolve returned info=    2
 ifail= 2*0
 iclustr= 13,  42
 gap= 3.695213104738198E-6,  1.82140626754652227E-5
(P)DSYGVX in subroutine dense_eigensolve returned info=    2
 ifail= 2*0
 iclustr= 14,  43
 gap= 3.09792899717255618E-5,  1.72100649345931872E-5
(P)DSYGVX in subroutine dense_eigensolve returned info=    2
 ifail= 2*0
 iclustr= 13,  24
 gap= 1.69873462921832748E-5,  1.10430519642801274E-5
(P)DSYGVX in subroutine dense_eigensolve returned info=    2
 ifail= 2*0
 iclustr= 56,  138
 gap= 1.7624931833632899E-5,  2.94956511035877304E-5
(P)DSYGVX in subroutine dense_eigensolve returned info=    2
 ifail= 2*0
 iclustr= 13,  42
 gap= 3.79804503478858512E-6,  1.46551712667259628E-5
(P)DSYGVX in subroutine dense_eigensolve returned info=    2
 ifail= 2*0
 iclustr= 14,  43
 gap= 2.45071612077824384E-5,  1.92560321612928244E-5
(P)DSYGVX in subroutine dense_eigensolve returned info=    2
 ifail= 2*0
 iclustr= 13,  42
 gap= 4.6422590212961133E-6,  1.16614399187741373E-5
(P)DSYGVX in subroutine dense_eigensolve returned info=    2
 ifail= 2*0
 iclustr= 14,  43
 gap= 1.04338912945664907E-5,  2.01540641868918827E-5
(P)DSYGVX in subroutine dense_eigensolve returned info=    2
 ifail= 2*0
 iclustr= 13,  42
 gap= 3.63386823196207631E-5,  1.1179546159279651E-5
(P)DSYGVX in subroutine dense_eigensolve returned info=    2
 ifail= 2*0
 iclustr= 14,  55
 gap= 1.17023170429270669E-5,  1.30509868924240733E-5
(P)DSYGVX in subroutine dense_eigensolve returned info=    2
 ifail= 2*0
 iclustr= 13,  42
 gap= 1.09399819800001708E-5,  2.20728274398972391E-6
(P)DSYGVX in subroutine dense_eigensolve returned info=    2
 ifail= 2*0
 iclustr= 14,  43
 gap= 1.19331110166161092E-5,  2.07978450565306188E-5
(P)DSYGVX in subroutine dense_eigensolve returned info=    2
 ifail= 2*0
 iclustr= 13,  42
 gap= 3.52952287856156508E-6,  1.7749464144751278E-5
(P)DSYGVX in subroutine dense_eigensolve returned info=    2
 ifail= 2*0
 iclustr= 14,  43
 gap= 3.03312390387761504E-5,  1.78627115669258205E-5
(P)DSYGVX in subroutine dense_eigensolve returned info=    2
 ifail= 2*0
 iclustr= 7,  24
 gap= 1.08754972631974462E-5,  4.23145086650104438E-5
(P)DSYGVX in subroutine dense_eigensolve returned info=    2
 ifail= 2*0
 iclustr= 56,  138
 gap= 1.78163782287914028E-5,  1.33235857840354728E-5
(P)DSYGVX in subroutine dense_eigensolve returned info=    2
 ifail= 2*0
 iclustr= 13,  42
 gap= 3.8369916616012172E-6,  1.4421320895454863E-5
(P)DSYGVX in subroutine dense_eigensolve returned info=    2
 ifail= 2*0
 iclustr= 14,  43
 gap= 2.42249202359826376E-5,  1.97481000997807945E-5
(P)DSYGVX in subroutine dense_eigensolve returned info=    2
 ifail= 2*0
 iclustr= 13,  42
 gap= 4.9492016220448768E-6,  1.14650177652040649E-5
(P)DSYGVX in subroutine dense_eigensolve returned info=    2
 ifail= 2*0
 iclustr= 14,  43
 gap= 1.04476753527915331E-5,  2.06203691074355331E-5
(P)DSYGVX in subroutine dense_eigensolve returned info=    2
 ifail= 2*0
 iclustr= 13,  42
 gap= 1.13079057797766433E-5,  1.0101414776006012E-5
(P)DSYGVX in subroutine dense_eigensolve returned info=    2
 ifail= 2*0
 iclustr= 14,  55
 gap= 1.19392527179700574E-5,  1.20932957061776018E-5
(P)DSYGVX in subroutine dense_eigensolve returned info=    2
 ifail= 2*0
 iclustr= 13,  42
 gap= 3.60705813963006549E-6,  9.40119963565089096E-6
(P)DSYGVX in subroutine dense_eigensolve returned info=    2
 ifail= 2*0
 iclustr= 14,  43
 gap= 1.21078821940998264E-5,  2.12244276739105498E-5
(P)DSYGVX in subroutine dense_eigensolve returned info=    2
 ifail= 2*0
 iclustr= 13,  42
 gap= 3.85510667609025117E-6,  1.73172860509157123E-5
(P)DSYGVX in subroutine dense_eigensolve returned info=    2
 ifail= 2*0
 iclustr= 14,  43
 gap= 2.97372556234014372E-5,  1.85188649182216667E-5
(P)DSYGVX in subroutine dense_eigensolve returned info=    2
 ifail= 2*0
 iclustr= 10,  24
 gap= 4.43493127233328234E-5,  9.11676335709880485E-5
(P)DSYGVX in subroutine dense_eigensolve returned info=    2
 ifail= 2*0
 iclustr= 56,  138
 gap= 1.79977757553541573E-5,  1.85863491780473819E-5
(P)DSYGVX in subroutine dense_eigensolve returned info=    2
 ifail= 2*0
 iclustr= 13,  42
 gap= 3.58158028433087457E-6,  1.41924544958608826E-5
(P)DSYGVX in subroutine dense_eigensolve returned info=    2
 ifail= 2*0
 iclustr= 14,  43
 gap= 2.39644044727105223E-5,  2.02375835404771388E-5
(P)DSYGVX in subroutine dense_eigensolve returned info=    2
 ifail= 2*0
 iclustr= 13,  42
 gap= 3.65504584423922795E-6,  1.12770215108877033E-5
(P)DSYGVX in subroutine dense_eigensolve returned info=    2
 ifail= 2*0
 iclustr= 14,  43
 gap= 1.04726918132270603E-5,  2.10857345635548113E-5
(P)DSYGVX in subroutine dense_eigensolve returned info=    2
 ifail= 2*0
 iclustr= 13,  42
 gap= 1.49464908585692642E-5,  4.65012356517115579E-5
(P)DSYGVX in subroutine dense_eigensolve returned info=    2
 ifail= 2*0
 iclustr= 14,  55
 gap= 1.19996193307126095E-5,  1.10410645198147498E-5
(P)DSYGVX in subroutine dense_eigensolve returned info=    2
 ifail= 2*0
 iclustr= 13,  42
 gap= 3.69072941753834742E-6,  9.32014335240609772E-6
(P)DSYGVX in subroutine dense_eigensolve returned info=    2
 ifail= 2*0
 iclustr= 14,  43
 gap= 1.22773778368807517E-5,  2.16375871981499059E-5
(P)DSYGVX in subroutine dense_eigensolve returned info=    2
 ifail= 2*0
 iclustr= 13,  42
 gap= 1.18434468522921816E-6,  1.69073127701303137E-5
(P)DSYGVX in subroutine dense_eigensolve returned info=    2
 ifail= 2*0
 iclustr= 14,  43
 gap= 2.91872027397253852E-5,  1.9168196182131172E-5
(P)DSYGVX in subroutine dense_eigensolve returned info=    2
 ifail= 2*0
 iclustr= 10,  24
 gap= 8.86284995479847982E-5,  8.5533467835365807E-5
(P)DSYGVX in subroutine dense_eigensolve returned info=    2
 ifail= 2*0
 iclustr= 56,  138
 gap= 1.80315232246524174E-5,  2.45300858147124669E-5
(P)DSYGVX in subroutine dense_eigensolve returned info=    2
 ifail= 2*0
 iclustr= 13,  42
 gap= 1.96180549845811252E-6,  1.39690370285209842E-5
(P)DSYGVX in subroutine dense_eigensolve returned info=    2
 ifail= 2*0
 iclustr= 14,  43
 gap= 2.37312228018282025E-5,  2.07213582551423932E-5
   4     0.00001394819712 -21517.37352872662810   0.021569 -21517.37362913598550        
(P)DSYGVX in subroutine dense_eigensolve returned info=    2
 ifail= 2*0
 iclustr= 13,  42
 gap= 1.38997992023691892E-5,  4.4493442584974443E-5
(P)DSYGVX in subroutine dense_eigensolve returned info=    2
 ifail= 2*0
 iclustr= 14,  55
 gap= 1.25051267060590526E-5,  1.17000208815397239E-5
(P)DSYGVX in subroutine dense_eigensolve returned info=    2
 ifail= 2*0
 iclustr= 13,  42
 gap= 1.60032824959111198E-5,  1.21988450431625994E-6
(P)DSYGVX in subroutine dense_eigensolve returned info=    2
 ifail= 2*0
 iclustr= 14,  43
 gap= 1.48599846592892986E-5,  3.27640260849021691E-5
(P)DSYGVX in subroutine dense_eigensolve returned info=    2
 ifail= 2*0
 iclustr= 13,  42
 gap= 3.47870624343632078E-6,  8.99087169169268118E-6
(P)DSYGVX in subroutine dense_eigensolve returned info=    2
 ifail= 2*0
 iclustr= 14,  43
 gap= 1.18449601632065859E-5,  2.21182330917346047E-5
(P)DSYGVX in subroutine dense_eigensolve returned info=    2
 ifail= 2*0
 iclustr= 13,  42
 gap= 2.64228364094756098E-6,  1.73404658225789421E-5
(P)DSYGVX in subroutine dense_eigensolve returned info=    2
 ifail= 2*0
 iclustr= 14,  43
 gap= 3.00518499213315026E-5,  1.95327743478374198E-5
(P)DSYGVX in subroutine dense_eigensolve returned info=    2
 ifail= 2*0
 iclustr= 10,  24
 gap= 4.73909701524255494E-5,  9.12470421874479818E-5
(P)DSYGVX in subroutine dense_eigensolve returned info=    2
 ifail= 2*0
 iclustr= 56,  138
 gap= 1.7852644169262468E-5,  1.67441844303535246E-5
(P)DSYGVX in subroutine dense_eigensolve returned info=    2
 ifail= 2*0
 iclustr= 13,  42
 gap= 1.51104178568696519E-6,  1.36252415671805765E-5
(P)DSYGVX in subroutine dense_eigensolve returned info=    2
 ifail= 2*0
 iclustr= 14,  43
 gap= 2.33439178309281862E-5,  2.12304260708853044E-5
(P)DSYGVX in subroutine dense_eigensolve returned info=    2
 ifail= 2*0
 iclustr= 13,  42
 gap= 2.13688431513012521E-6,  1.10896333124165948E-5
(P)DSYGVX in subroutine dense_eigensolve returned info=    2
 ifail= 2*0
 iclustr= 14,  43
 gap= 1.03525208657970251E-5,  2.19589183805854524E-5
(P)DSYGVX in subroutine dense_eigensolve returned info=    2
 ifail= 2*0
 iclustr= 13,  42
 gap= 4.04093819662119816E-5,  4.28579245820219192E-5
(P)DSYGVX in subroutine dense_eigensolve returned info=    2
 ifail= 2*0
 iclustr= 14,  55
 gap= 1.29088998631913526E-5,  1.03621945339480916E-5
(P)DSYGVX in subroutine dense_eigensolve returned info=    2
 ifail= 2*0
 iclustr= 13,  42
 gap= 2.25470715871632148E-6,  8.87900579512244622E-6
(P)DSYGVX in subroutine dense_eigensolve returned info=    2
 ifail= 2*0
 iclustr= 14,  43
 gap= 1.19691580200403648E-5,  2.2529426169940975E-5
(P)DSYGVX in subroutine dense_eigensolve returned info=    2
 ifail= 2*0
 iclustr= 13,  42
 gap= 4.24289419608204804E-6,  1.70557583168066517E-5
(P)DSYGVX in subroutine dense_eigensolve returned info=    2
 ifail= 2*0
 iclustr= 14,  43
 gap= 2.98014986048622402E-5,  2.01137108807063635E-5
(P)DSYGVX in subroutine dense_eigensolve returned info=    2
 ifail= 2*0
 iclustr= 10,  24
 gap= 9.35103363241756127E-5,  8.55912208261254257E-5
(P)DSYGVX in subroutine dense_eigensolve returned info=    2
 ifail= 2*0
 iclustr= 56,  138
 gap= 1.74371722792447735E-5,  2.3242030676898842E-5
(P)DSYGVX in subroutine dense_eigensolve returned info=    2
 ifail= 2*0
 iclustr= 13,  42
 gap= 2.26925336578304951E-6,  1.33672362698597722E-5
(P)DSYGVX in subroutine dense_eigensolve returned info=    2
 ifail= 2*0
 iclustr= 14,  43
 gap= 2.30987451871230859E-5,  2.1719669114123822E-5
(P)DSYGVX in subroutine dense_eigensolve returned info=    2
 ifail= 2*0
 iclustr= 13,  42
 gap= 1.31584628105981665E-6,  1.08685788272746089E-5
(P)DSYGVX in subroutine dense_eigensolve returned info=    2
 ifail= 2*0
 iclustr= 14,  43
 gap= 1.04320418818914344E-5,  2.23992503970524817E-5
[...]
 iclustr= 13,  42
 gap= 1.22814718591566873E-5,  5.44037379339178297E-5
(P)DSYGVX in subroutine dense_eigensolve returned info=    2
 ifail= 2*0
 iclustr= 26,  55
 gap= 1.24329787084725407E-5,  1.0865014580727094E-6
(P)DSYGVX in subroutine dense_eigensolve returned info=    2
 ifail= 2*0
 iclustr= 13,  42
 gap= 1.30124164514931483E-5,  4.1917555645274392E-5
(P)DSYGVX in subroutine dense_eigensolve returned info=    2
 ifail= 2*0
 iclustr= 26,  55
 gap= 1.20639981107887971E-5,  3.44227834160958817E-6
(P)DSYGVX in subroutine dense_eigensolve returned info=    2
 ifail= 2*0
 iclustr= 13,  42
 gap= 1.11816101596121667E-5,  1.53947474743165246E-5
(P)DSYGVX in subroutine dense_eigensolve returned info=    2
 ifail= 2*0
 iclustr= 26,  55
 gap= 1.60811338784834681E-5,  1.26054614251597343E-6
(P)DSYGVX in subroutine dense_eigensolve returned info=    2
 ifail= 2*0
 iclustr= 13,  42
 gap= 1.17951268594781459E-5,  3.88758053817770668E-5
(P)DSYGVX in subroutine dense_eigensolve returned info=    2
 ifail= 2*0
 iclustr= 26,  55
 gap= 1.24029365716655088E-5,  3.44054916886141385E-6
(P)DSYGVX in subroutine dense_eigensolve returned info=    2
 ifail= 2*0
 iclustr= 13,  42
 gap= 1.21473326819242087E-5,  4.00280364714190485E-5
(P)DSYGVX in subroutine dense_eigensolve returned info=    2
 ifail= 2*0
 iclustr= 26,  55
 gap= 1.17153807915805784E-5,  3.3396471579207888E-6
(P)DSYGVX in subroutine dense_eigensolve returned info=    2
 ifail= 2*0
 iclustr= 13,  42
 gap= 1.23291976785390652E-5,  4.06900877527302719E-5
(P)DSYGVX in subroutine dense_eigensolve returned info=    2
 ifail= 2*0
 iclustr= 26,  55
 gap= 1.16640276998377667E-5,  4.35892772404896537E-6
(P)DSYGVX in subroutine dense_eigensolve returned info=    2
 ifail= 2*0
 iclustr= 13,  42
 gap= 1.29898531853236147E-5,  5.56000563754541601E-5
(P)DSYGVX in subroutine dense_eigensolve returned info=    2
 ifail= 2*0
 iclustr= 26,  55
 gap= 1.15761204141537074E-5,  1.12508888485828064E-6
(P)DSYGVX in subroutine dense_eigensolve returned info=    2
 ifail= 2*0
 iclustr= 13,  42
 gap= 1.30580760094365304E-5,  4.29623275152396937E-5
(P)DSYGVX in subroutine dense_eigensolve returned info=    2
 ifail= 2*0
 iclustr= 26,  55
 gap= 1.20931770954438302E-5,  3.78631928351138453E-6
   9     0.00000168933676 -21517.63963485523350   0.001546 -21517.63963513726780        
(P)DSYGVX in subroutine dense_eigensolve returned info=    2
 ifail= 2*0
 iclustr= 13,  42
 gap= 2.04759505936565987E-5,  4.91309864841179162E-5
(P)DSYGVX in subroutine dense_eigensolve returned info=    2
 ifail= 2*0
 iclustr= 2,  25
 gap= 3.13722461481463438E-5,  1.24768294684636043E-5
(P)DSYGVX in subroutine dense_eigensolve returned info=    2
 ifail= 2*0
 iclustr= 13,  42
 gap= 1.38510846102694947E-5,  3.56972446117641333E-5
(P)DSYGVX in subroutine dense_eigensolve returned info=    2
 ifail= 2*0
 iclustr= 2,  25
 gap= 3.69346680636724184E-5,  1.22491826211299009E-5
(P)DSYGVX in subroutine dense_eigensolve returned info=    2
 ifail= 2*0
 iclustr= 13,  42
 gap= 1.21829040258541687E-5,  4.11470561338862602E-5
(P)DSYGVX in subroutine dense_eigensolve returned info=    2
 ifail= 2*0
 iclustr= 26,  55
 gap= 1.18649540779962743E-5,  3.24882502607135667E-6
(P)DSYGVX in subroutine dense_eigensolve returned info=    2
 ifail= 2*0
 iclustr= 13,  42
 gap= 1.23522332796215242E-5,  4.17903273807345666E-5
(P)DSYGVX in subroutine dense_eigensolve returned info=    2
 ifail= 2*0
 iclustr= 26,  55
 gap= 1.18020278461485097E-5,  4.15702227193834159E-6
(P)DSYGVX in subroutine dense_eigensolve returned info=    2
 ifail= 2*0
 iclustr= 13,  42
 gap= 1.39866869968840797E-5,  5.72266266050264419E-5
(P)DSYGVX in subroutine dense_eigensolve returned info=    2
 ifail= 2*0
 iclustr= 26,  55
 gap= 1.04843554697379106E-5,  1.23675100864776517E-6
(P)DSYGVX in subroutine dense_eigensolve returned info=    2
 ifail= 2*0
 iclustr= 13,  42
 gap= 1.31960243849231277E-5,  4.42212866938530676E-5
(P)DSYGVX in subroutine dense_eigensolve returned info=    2
 ifail= 2*0
 iclustr= 26,  55
 gap= 1.21480182712823528E-5,  4.06849712270783709E-6
(P)DSYGVX in subroutine dense_eigensolve returned info=    2
 ifail= 2*0
 iclustr= 13,  42
 gap= 1.13298969399574239E-5,  1.53234097344397791E-5
(P)DSYGVX in subroutine dense_eigensolve returned info=    2
 ifail= 2*0
 iclustr= 26,  55
 gap= 1.39346207522396962E-5,  1.16345876370471254E-6
(P)DSYGVX in subroutine dense_eigensolve returned info=    2
 ifail= 2*0
 iclustr= 13,  42
 gap= 1.17996589098953737E-5,  4.09632711310354297E-5
(P)DSYGVX in subroutine dense_eigensolve returned info=    2
 ifail= 2*0
 iclustr= 26,  55
 gap= 1.29124431756843737E-5,  2.99333835627798521E-6
(P)DSYGVX in subroutine dense_eigensolve returned info=    2
 ifail= 2*0
 iclustr= 13,  42
 gap= 1.2225837784390653E-5,  4.2384394091488473E-5
(P)DSYGVX in subroutine dense_eigensolve returned info=    2
 ifail= 2*0
 iclustr= 26,  55
 gap= 1.19992039495575731E-5,  3.12773679422004052E-6
(P)DSYGVX in subroutine dense_eigensolve returned info=    2
 ifail= 2*0
 iclustr= 13,  42
 gap= 1.23902067625572301E-5,  4.30011892834330814E-5
(P)DSYGVX in subroutine dense_eigensolve returned info=    2
 ifail= 2*0
 iclustr= 26,  55
 gap= 1.19235910966349744E-5,  3.97667633198026211E-6
(P)DSYGVX in subroutine dense_eigensolve returned info=    2
 ifail= 2*0
 iclustr= 13,  42
 gap= 1.47163289381029007E-5,  5.77364661370946531E-5
(P)DSYGVX in subroutine dense_eigensolve returned info=    2
 ifail= 2*0
 iclustr= 26,  55
 gap= 1.06752099330427754E-5,  1.01573222820816229E-5
(P)DSYGVX in subroutine dense_eigensolve returned info=    2
 ifail= 2*0
 iclustr= 13,  42
 gap= 1.32280052258785926E-5,  4.53670115695571015E-5
(P)DSYGVX in subroutine dense_eigensolve returned info=    2
 ifail= 2*0
 iclustr= 26,  55
 gap= 1.21788516517828275E-5,  4.19683419763602312E-6
(P)DSYGVX in subroutine dense_eigensolve returned info=    2
 ifail= 2*0
 iclustr= 13,  42
 gap= 1.13217048148309345E-5,  1.48578200022191907E-5
(P)DSYGVX in subroutine dense_eigensolve returned info=    2
 ifail= 2*0
 iclustr= 26,  55
 gap= 1.30469709550767382E-5,  1.27011641386830243E-6
(P)DSYGVX in subroutine dense_eigensolve returned info=    2
 ifail= 2*0
 iclustr= 13,  42
 gap= 1.18390329300405368E-5,  4.21755950202172224E-5
(P)DSYGVX in subroutine dense_eigensolve returned info=    2
 ifail= 2*0
 iclustr= 26,  55
 gap= 1.28056848420668774E-5,  3.00158337751218085E-6
(P)DSYGVX in subroutine dense_eigensolve returned info=    2
 ifail= 2*0
 iclustr= 13,  42
 gap= 1.22765229024254041E-5,  4.35996290960301457E-5
(P)DSYGVX in subroutine dense_eigensolve returned info=    2
 ifail= 2*0
 iclustr= 26,  55
 gap= 1.21123962380630688E-5,  3.02671366244093525E-6
(P)DSYGVX in subroutine dense_eigensolve returned info=    2
 ifail= 2*0
 iclustr= 13,  42
 gap= 1.24365640589625584E-5,  4.42132006707264397E-5
(P)DSYGVX in subroutine dense_eigensolve returned info=    2
 ifail= 2*0
 iclustr= 26,  55
 gap= 1.19416251100437399E-5,  3.79462050555020063E-6
(P)DSYGVX in subroutine dense_eigensolve returned info=    2
 ifail= 2*0
 iclustr= 13,  42
 gap= 1.53600280108966336E-5,  5.89121503604943473E-5
(P)DSYGVX in subroutine dense_eigensolve returned info=    2
 ifail= 2*0
 iclustr= 26,  55
 gap= 1.01351121875338264E-5,  1.41445687279176046E-6
(P)DSYGVX in subroutine dense_eigensolve returned info=    2
 ifail= 2*0
 iclustr= 13,  42
 gap= 1.32423914960043344E-5,  4.65720020314888084E-5
(P)DSYGVX in subroutine dense_eigensolve returned info=    2
 ifail= 2*0
 iclustr= 26,  55
 gap= 1.17901612248304008E-5,  4.28970592836239383E-6
(P)DSYGVX in subroutine dense_eigensolve returned info=    2
 ifail= 2*0
 iclustr= 13,  42
 gap= 1.12960997888176407E-5,  1.4404945846105102E-5
(P)DSYGVX in subroutine dense_eigensolve returned info=    2
 ifail= 2*0
 iclustr= 26,  55
 gap= 1.20342085926263569E-5,  1.34163870140685966E-6
(P)DSYGVX in subroutine dense_eigensolve returned info=    2
 ifail= 2*0
 iclustr= 13,  42
 gap= 1.18862612333386458E-5,  4.34254844756157447E-5
(P)DSYGVX in subroutine dense_eigensolve returned info=    2
 ifail= 2*0
 iclustr= 26,  55
 gap= 1.18345692081532243E-5,  3.03028755832266534E-6
(P)DSYGVX in subroutine dense_eigensolve returned info=    2
 ifail= 2*0
 iclustr= 13,  42
 gap= 1.23340024799169837E-5,  4.48688874321327819E-5
(P)DSYGVX in subroutine dense_eigensolve returned info=    2
 ifail= 2*0
 iclustr= 26,  55
 gap= 1.17595865751053829E-5,  2.93943348665495584E-6
(P)DSYGVX in subroutine dense_eigensolve returned info=    2
 ifail= 2*0
 iclustr= 13,  42
 gap= 1.00236816300132619E-5,  4.54699274518838818E-5
(P)DSYGVX in subroutine dense_eigensolve returned info=    2
 ifail= 2*0
 iclustr= 26,  55
 gap= 1.15671778908549917E-5,  3.68313478700122865E-6
(P)DSYGVX in subroutine dense_eigensolve returned info=    2
 ifail= 2*0
 iclustr= 13,  42
 gap= 1.59965236690241602E-5,  5.97532761077458946E-5
(P)DSYGVX in subroutine dense_eigensolve returned info=    2
 ifail= 2*0
 iclustr= 26,  55
 gap= 1.57240488748783069E-5,  1.52712542459333119E-6
(P)DSYGVX in subroutine dense_eigensolve returned info=    2
 ifail= 2*0
 iclustr= 13,  42
 gap= 1.32355416054219755E-5,  4.76862703241087571E-5
(P)DSYGVX in subroutine dense_eigensolve returned info=    2
 ifail= 2*0
 iclustr= 26,  55
 gap= 1.08980323563978884E-5,  4.38066911649023094E-6
(P)DSYGVX in subroutine dense_eigensolve returned info=    2
 ifail= 2*0
 iclustr= 13,  42
 gap= 1.12660728119719569E-5,  1.39202144521094117E-5
(P)DSYGVX in subroutine dense_eigensolve returned info=    2
 ifail= 2*0
 iclustr= 26,  55
 gap= 1.10756850640443292E-5,  1.24491604842886667E-6
(P)DSYGVX in subroutine dense_eigensolve returned info=    2
 ifail= 2*0
 iclustr= 13,  42
 gap= 1.19398647202806641E-5,  4.4705567757206361E-5
(P)DSYGVX in subroutine dense_eigensolve returned info=    2
 ifail= 2*0
 iclustr= 26,  55
 gap= 1.08805892887670016E-5,  3.05542200632011281E-6
(P)DSYGVX in subroutine dense_eigensolve returned info=    2
 ifail= 2*0
 iclustr= 13,  42
 gap= 1.2397296512949468E-5,  4.61592451591592661E-5
(P)DSYGVX in subroutine dense_eigensolve returned info=    2
 ifail= 2*0
 iclustr= 26,  55
 gap= 1.08244102642603898E-5,  2.86528979344649144E-6
(P)DSYGVX in subroutine dense_eigensolve returned info=    2
 ifail= 2*0
 iclustr= 13,  42
 gap= 1.02087822365819895E-5,  4.67144903423445548E-5
(P)DSYGVX in subroutine dense_eigensolve returned info=    2
 ifail= 2*0
 iclustr= 26,  55
 gap= 1.064694894197514E-5,  3.55881803294964114E-6
(P)DSYGVX in subroutine dense_eigensolve returned info=    2
 ifail= 2*0
 iclustr= 13,  42
 gap= 1.66149808916218302E-5,  6.07262716896582057E-5
(P)DSYGVX in subroutine dense_eigensolve returned info=    2
 ifail= 2*0
 iclustr= 26,  55
 gap= 1.62675618359939665E-5,  1.65909233585890831E-6
(P)DSYGVX in subroutine dense_eigensolve returned info=    2
 ifail= 2*0
 iclustr= 13,  42
 gap= 1.32340015686379086E-5,  4.88307452735480601E-5
(P)DSYGVX in subroutine dense_eigensolve returned info=    2
 ifail= 2*0
 iclustr= 26,  55
 gap= 1.00470962019141925E-5,  4.46856776263323636E-6
  10     0.00000141633651 -21517.64030192716750   0.001169 -21517.64030210846250        
(P)DSYGVX in subroutine dense_eigensolve returned info=    2
 ifail= 2*0
 iclustr= 13,  42
 gap= 1.2731765619459621E-5,  5.37920740198274269E-5
(P)DSYGVX in subroutine dense_eigensolve returned info=    2
 ifail= 2*0
 iclustr= 2,  25
 gap= 5.40533132234746695E-5,  1.56419167643793203E-5
(P)DSYGVX in subroutine dense_eigensolve returned info=    2
 ifail= 2*0
 iclustr= 13,  42
 gap= 1.80666019105105045E-5,  2.8896976368082215E-5
(P)DSYGVX in subroutine dense_eigensolve returned info=    2
 ifail= 2*0
 iclustr= 2,  25
 gap= 4.96184085928921983E-5,  1.36536704777768916E-5
(P)DSYGVX in subroutine dense_eigensolve returned info=    2
 ifail= 2*0
 iclustr= 13,  42
 gap= 1.24556403275654615E-5,  4.74658862544479629E-5
(P)DSYGVX in subroutine dense_eigensolve returned info=    2
 ifail= 2*0
 iclustr= 26,  55
 gap= 1.23532679434674811E-5,  2.78369129367456327E-6
(P)DSYGVX in subroutine dense_eigensolve returned info=    2
 ifail= 2*0
 iclustr= 13,  42
 gap= 1.03380778815082662E-5,  4.79085105398050081E-5
(P)DSYGVX in subroutine dense_eigensolve returned info=    2
 ifail= 2*0
 iclustr= 26,  55
 gap= 1.22566057565549944E-5,  3.40122479443011368E-6
(P)DSYGVX in subroutine dense_eigensolve returned info=    2
 ifail= 2*0
 iclustr= 13,  42
 gap= 1.73928942937675409E-5,  6.19298419908286994E-5
(P)DSYGVX in subroutine dense_eigensolve returned info=    2
 ifail= 2*0
 iclustr= 26,  55
 gap= 1.69316159279240991E-5,  1.87721691783559065E-6
(P)DSYGVX in subroutine dense_eigensolve returned info=    2
 ifail= 2*0
 iclustr= 13,  42
 gap= 1.32455806075143145E-5,  5.01148186499248763E-5
(P)DSYGVX in subroutine dense_eigensolve returned info=    2
 ifail= 2*0
 iclustr= 26,  55
 gap= 1.23212523046589864E-5,  4.54759525192439936E-6
(P)DSYGVX in subroutine dense_eigensolve returned info=    2
 ifail= 2*0
 iclustr= 13,  42
 gap= 1.13731897567860384E-5,  1.36966654316792079E-5
(P)DSYGVX in subroutine dense_eigensolve returned info=    2
 ifail= 2*0
 iclustr= 26,  55
 gap= 1.39514957888336419E-5,  1.31044832161883066E-6
(P)DSYGVX in subroutine dense_eigensolve returned info=    2
 ifail= 2*0
 iclustr= 13,  42
 gap= 1.20106662029671702E-5,  4.72281528544220476E-5
(P)DSYGVX in subroutine dense_eigensolve returned info=    2
 ifail= 2*0
 iclustr= 26,  55
 gap= 1.35263690261212154E-5,  2.8087147169905105E-6
(P)DSYGVX in subroutine dense_eigensolve returned info=    2
 ifail= 2*0
 iclustr= 13,  42
 gap= 1.24942844260983549E-5,  4.87802839231466482E-5
(P)DSYGVX in subroutine dense_eigensolve returned info=    2
 ifail= 2*0
 iclustr= 26,  55
 gap= 1.24128468683443368E-5,  2.68434686864860282E-6
(P)DSYGVX in subroutine dense_eigensolve returned info=    2
 ifail= 2*0
 iclustr= 13,  42
 gap= 1.04950172682680214E-5,  4.91781047920647512E-5
(P)DSYGVX in subroutine dense_eigensolve returned info=    2
 ifail= 2*0
 iclustr= 26,  55
 gap= 1.23146630841901449E-5,  3.25804731928550495E-6
(P)DSYGVX in subroutine dense_eigensolve returned info=    2
 ifail= 2*0
 iclustr= 13,  42
 gap= 1.80069294547827074E-5,  6.24258201929983299E-5
(P)DSYGVX in subroutine dense_eigensolve returned info=    2
 ifail= 2*0
 iclustr= 26,  55
 gap= 1.75458036738220403E-5,  2.01959243061479088E-6
(P)DSYGVX in subroutine dense_eigensolve returned info=    2
 ifail= 2*0
 iclustr= 13,  42
 gap= 1.32421841978847922E-5,  5.12931283700131311E-5
(P)DSYGVX in subroutine dense_eigensolve returned info=    2
 ifail= 2*0
 iclustr= 26,  55
 gap= 1.23307790339566935E-5,  4.62985220281493841E-6
(P)DSYGVX in subroutine dense_eigensolve returned info=    2
 ifail= 2*0
 iclustr= 13,  42
 gap= 1.13853412381015202E-5,  1.32451856345586428E-5
(P)DSYGVX in subroutine dense_eigensolve returned info=    2
 ifail= 2*0
 iclustr= 26,  55
 gap= 1.48855792614986164E-5,  1.2169196795928973E-6
(P)DSYGVX in subroutine dense_eigensolve returned info=    2
 ifail= 2*0
 iclustr= 13,  42
 gap= 1.20663734609812793E-5,  4.85924408395835587E-5
(P)DSYGVX in subroutine dense_eigensolve returned info=    2
 ifail= 2*0
 iclustr= 26,  55
 gap= 1.35679449355878478E-5,  2.8365088941744919E-6
(P)DSYGVX in subroutine dense_eigensolve returned info=    2
 ifail= 2*0
 iclustr= 13,  42
 gap= 1.0050135790946623E-5,  5.0051576515327169E-5
(P)DSYGVX in subroutine dense_eigensolve returned info=    2
 ifail= 2*0
 iclustr= 26,  55
 gap= 1.24607461095045177E-5,  2.60258197150978954E-6
(P)DSYGVX in subroutine dense_eigensolve returned info=    2
 ifail= 2*0
 iclustr= 13,  42
 gap= 1.06579470924974178E-5,  5.04256572270851317E-5
(P)DSYGVX in subroutine dense_eigensolve returned info=    2
 ifail= 2*0
 iclustr= 26,  55
 gap= 1.23028311085686869E-5,  3.13676453653242318E-6
(P)DSYGVX in subroutine dense_eigensolve returned info=    2
 ifail= 2*0
 iclustr= 13,  42
 gap= 1.85084321840845131E-5,  6.34815225726003833E-5
(P)DSYGVX in subroutine dense_eigensolve returned info=    2
 ifail= 2*0
 iclustr= 26,  55
 gap= 1.03370871016751609E-5,  2.18102622029826125E-6
(P)DSYGVX in subroutine dense_eigensolve returned info=    2
 ifail= 2*0
 iclustr= 13,  42
 gap= 1.32370022005367724E-5,  5.25084860848206686E-5
(P)DSYGVX in subroutine dense_eigensolve returned info=    2
 ifail= 2*0
 iclustr= 26,  55
 gap= 1.22124367076979776E-5,  4.70818250518414289E-6
(P)DSYGVX in subroutine dense_eigensolve returned info=    2
 ifail= 2*0
 iclustr= 13,  42
 gap= 1.14490726017949813E-5,  1.28063590869021341E-5
(P)DSYGVX in subroutine dense_eigensolve returned info=    2
 ifail= 2*0
 iclustr= 26,  55
 gap= 1.40424855860826863E-5,  1.07018363852090523E-6
(P)DSYGVX in subroutine dense_eigensolve returned info=    2
 ifail= 2*0
 iclustr= 13,  42
 gap= 1.20931198905494527E-5,  4.9857984969908953E-5
(P)DSYGVX in subroutine dense_eigensolve returned info=    2
 ifail= 2*0
 iclustr= 26,  55
 gap= 1.3075280638906024E-5,  2.89016950112197919E-6
(P)DSYGVX in subroutine dense_eigensolve returned info=    2
 ifail= 2*0
 iclustr= 13,  42
 gap= 1.01659631105639367E-5,  5.13457643875531966E-5
(P)DSYGVX in subroutine dense_eigensolve returned info=    2
 ifail= 2*0
 iclustr= 26,  55
 gap= 1.2171170142854967E-5,  2.52939243283222168E-6
(P)DSYGVX in subroutine dense_eigensolve returned info=    2
 ifail= 2*0
 iclustr= 13,  42
 gap= 1.06760572872811259E-5,  5.16901481250036515E-5
(P)DSYGVX in subroutine dense_eigensolve returned info=    2
 ifail= 2*0
 iclustr= 26,  55
 gap= 1.21239759266354971E-5,  3.03188101341253446E-6
(P)DSYGVX in subroutine dense_eigensolve returned info=    2
 ifail= 2*0
 iclustr= 13,  42
 gap= 1.62421361765623035E-5,  6.42007167896570095E-5
(P)DSYGVX in subroutine dense_eigensolve returned info=    2
 ifail= 2*0
 iclustr= 26,  55
 gap= 1.71494094649843913E-5,  2.29001850292201408E-6
(P)DSYGVX in subroutine dense_eigensolve returned info=    2
 ifail= 2*0
 iclustr= 13,  42
 gap= 1.30475164545823459E-5,  5.36693011839089123E-5
(P)DSYGVX in subroutine dense_eigensolve returned info=    2
 ifail= 2*0
 iclustr= 26,  55
 gap= 1.22248885504688342E-5,  4.7693783505535039E-6
(P)DSYGVX in subroutine dense_eigensolve returned info=    2
 ifail= 2*0
 iclustr= 13,  42
 gap= 1.1575257066959711E-5,  1.24186066347148316E-5
(P)DSYGVX in subroutine dense_eigensolve returned info=    2
 ifail= 2*0
 iclustr= 26,  55
 gap= 1.49241139866727818E-5,  1.78808901915721499E-6
(P)DSYGVX in subroutine dense_eigensolve returned info=    2
 ifail= 2*0
 iclustr= 13,  42
 gap= 1.2119523145806567E-5,  5.11381103495222553E-5
(P)DSYGVX in subroutine dense_eigensolve returned info=    2
 ifail= 2*0
 iclustr= 26,  55
 gap= 1.3152226876354904E-5,  2.93072821492009104E-6
(P)DSYGVX in subroutine dense_eigensolve returned info=    2
 ifail= 2*0
 iclustr= 13,  42
 gap= 1.00354025213410449E-5,  5.23792647151793094E-5
(P)DSYGVX in subroutine dense_eigensolve returned info=    2
 ifail= 2*0
 iclustr= 26,  55
 gap= 1.22459865813396616E-5,  2.47995827688207621E-6
(P)DSYGVX in subroutine dense_eigensolve returned info=    2
 ifail= 2*0
 iclustr= 13,  42
 gap= 1.06002721048892054E-5,  5.28187877063665594E-5
(P)DSYGVX in subroutine dense_eigensolve returned info=    2
 ifail= 2*0
 iclustr= 26,  55
 gap= 1.21352368593099703E-5,  2.94250284461407807E-6
(P)DSYGVX in subroutine dense_eigensolve returned info=    2
 ifail= 2*0
 iclustr= 13,  42
 gap= 1.97332121145784709E-5,  6.50642644454684248E-5
(P)DSYGVX in subroutine dense_eigensolve returned info=    2
 ifail= 2*0
 iclustr= 26,  55
 gap= 1.01256985426402852E-5,  2.54506050507329395E-6
(P)DSYGVX in subroutine dense_eigensolve returned info=    2
 ifail= 2*0
 iclustr= 13,  42
 gap= 1.31703226612930826E-5,  5.47448924732184998E-5
(P)DSYGVX in subroutine dense_eigensolve returned info=    2
 ifail= 2*0
 iclustr= 26,  55
 gap= 1.2085060046694566E-5,  4.8464520311284418E-6

onetep_launcher: !!! ONETEP finished with an error

************************************************
*** onetep_launcher terminated               ***
************************************************
