==================================================================================
It's Thu 28 Dec 2023 10:02:48 PM GMT.
*** Starting onetep_launcher (node nid004177, PIDs 70199 70200 70201 70202 70203 70204 70205 70206 70207 70208 70209 70210 70211 70212)...
    - ONETEP arguments: Co_cluster3_nspF.dat
    - Current directory: /mnt/lustre/a2fs-work3/work/e89/e89/ndmh3/Co_NPs/Co_cluster3_nspF
    - Launcher executable directory: /mnt/lustre/a2fs-work3/work/e89/e89/ndmh3/onetep_mea/utils
    - (-e) ONETEP executable specified through command-line: /work/e89/e89/ndmh3/onetep_mea/bin/onetep.archer2_2023_cray
      ... trying /work/e89/e89/ndmh3/onetep_mea/bin/onetep.archer2_2023_cray
          -> looks OK
*** Setting up environment...
    - (-s) Process stack size: unlimited
    - (-t) OMP_NUM_THREADS: 8
    - (-o) OMP_STACKSIZE: 64M
    - (-c) Maximum core file size: 2048000
    - (-d) decfort_dump_flag: n
    - (-m) I_MPI_OFA_TRANSLATION_CACHE: 0
    - (-m) I_MPI_DAPL_TRANSLATION_CACHE: 0
    - (-m) I_MPI_DAPL_UD_TRANSLATION_CACHE: 0
*** Starting ONETEP...
    - /work/e89/e89/ndmh3/onetep_mea/bin/onetep.archer2_2023_cray Co_cluster3_nspF.dat
=================================================================================
_________________________________________________________________________________
 +---------------------------------------------------------------+
 |                                                               |
 |        ####### #     # ####### ####### ####### ######         |
 |        #     # ##    # #          #    #       #     #        |
 |        #     # # #   # #          #    #       #     #        |
 |        #     # #  #  # #####      #    #####   ######         |
 |        #     # #   # # #          #    #       #              |
 |        #     # #    ## #          #    #       #              |
 |        ####### #     # #######    #    ####### #              |
 |                                                               |
 |        Linear-Scaling Ab Initio Total Energy Program          |
 |                                                               |
 |          Release for academic collaborators of ODG            |
 |                                             Version 7.1.2     |
 | Remote: git@github.com:Miesaz/onetep_mea.git                  |
 | Local branch: spin_polarised_ngwfs                            |
 | Commit ID: 7c696c95508db11e862ad6ab7bb9dc094f19dd1c           |
 | Date: Sun Dec 17 13:55:03 2023 +0000                          |
 | Locally modified files:                                       |
 |   config/conf.archer2_2023_cray                               |
 |                                                               |
 +---------------------------------------------------------------+
 |                                                               |
 |  Authors:                                                     |
 |  Jacek Dziedzic, Peter D. Haynes, Nicholas D. M. Hine,        |
 |  Arash A. Mostofi, Mike C. Payne and Chris-Kriton Skylaris    |
 |                                                               |
 |  Contributors:                                                |
 |  J. Aarons, L. Andrinopoulos, P. W. Avraam, R. A. Bell,       |
 |  A. Bhandari, G. A. Bramley, R. J. Charlton, S. J. Clark,     |
 |  R. J. Clements, G. C. Constantinescu, F. Corsetti,           |
 |  N. Corsini, O. Dieguez, S. M. M. Dubois, K. K. B. Duff,      |
 |  J. M. Escartin, M. Escobar Azor, A. Greco,                   |
 |  H. Helal, Q. O. Hill, L. P. Lee, J.-H. Li,                   |
 |  E. B. Linscott, G. Moynihan, D. D. O`Regan,                  |
 |  O. K. Okan, M. J. S. Phipps, C. J. Pickard,                  |
 |  J. C. A. Prentice, M. I. J. Probert, L. E. Ratcliff,         |
 |  M. Robinson, A. Ruiz Serrano, M. dos Santos Dias,            |
 |  J. S. Spencer, E. W. Tait, G. Teobaldi, D. Turban,           |
 |  V. Vitale, K. A. Wilkinson, C. Weber, J. C. Womack,          |
 |  N. Yeung and T. J. Zuehlsdorff                               |
 |                                                               |
 |                                   Copyright (c) 2004-2023     |
 |                                                               |
 |  Please cite:                                                 |
 |  "The ONETEP linear-scaling density functional theory program"|
 |   J. Chem. Phys. 152(17) 174111 (2020)                        |
 |                                                               |
 |          in all publications arising from your use of ONETEP. |
 |                                                               |
 +---------------------------------------------------------------+
 |                                                               |
 |   ONETEP is based on developments described in the following  |
 |   publications:                                               |
 |                                                               |
 |  "Nonorthogonal generalized Wannier function pseudopotential  |
 |   plane-wave method".                                         |
 |   C.-K. Skylaris, A. A. Mostofi, P. D. Haynes, O. Dieguez,    |
 |   M. C. Payne.                                                |
 |   Phys. Rev. B 66 035119 (2002).                              |
 |                                                               |
 |  "Preconditioned iterative minimization for linear-scaling    |
 |   electronic structure calculations".                         |
 |   A. A. Mostofi, P. D. Haynes, C.-K. Skylaris, M. C. Payne.   |
 |   J. Chem. Phys. 119(17), pp.8842-8848 (2003).                |
 |                                                               |
 |  "Total-energy calculations on a real space grid with         |
 |   localized functions and a plane-wave basis".                |
 |   A. A. Mostofi, C.-K. Skylaris, P. D. Haynes, M. C. Payne.   |
 |   Comput. Phys. Commun. 147, pp.788-802 (2002).               |
 |                                                               |
 |  "Accurate kinetic energy evaluation in electronic structure  |
 |   calculations with localized functions on real space grids"  |
 |   C.-K. Skylaris, A. A. Mostofi, P. D. Haynes, C. J. Pickard, |
 |   M. C. Payne.                                                |
 |   Comput. Phys. Commun. 140, pp.315-322 (2001).               |
 |                                                               |
 |  "Accurate ionic forces and geometry optimization in linear-  |
 |   scaling density-functional theory with local orbitals"      |
 |   N. D. M. Hine, M. Robinson, P. D. Haynes, C.-K. Skylaris,   |
 |   M. C. Payne, and A. A. Mostofi.                             |
 |   Phys. Rev. B 83 195102 (2011).                              |
 |                                                               |
 +---------------------------------------------------------------+

Job started: 28-12-2023 22:02 (+0000)
 
Reading parameters from file "Co_cluster3_nspF.dat" ...... done

If your calculation crashes here, before "Checking processes and threads..."
is displayed, then your stack size is insufficient.
If so, use "ulimit -s unlimited" at runtime.
You can disable this check with "check_stack_size F".

Checking processes and threads...
   Running with 147 MPI processes.
   There are 15 MPI processes running on the same node as the root process.
   Each MPI process is using: 
               1 threads for simulation cell FFTs.
               1 threads for parallel FFT box operations.
               8 threads for loops over batched FFT box operations.
               8 threads in other parallel regions.
   MPI Interface: S1 (use mpi_f08) (-DMPI -DUSE_MPI_F08).
   MPI_ASYNC_PROTECTS_NONBLOCKING: Yes. MPI_SUBARRAYS_SUPPORTED: Yes.
   GPU Interface: None.
... done

Basic input checks...
Resetting ngwf_cg_rotate to TRUE for EDFT calculations
... done

Reading geometry and species blocks from file "Co_cluster3_nspF.dat" ...... done


--------------------------------------------------------------------------------
---------------------------------- INPUT FILE ----------------------------------
--------------------------------------------------------------------------------

charge : 0                                                                      
cutoff_energy : 600 eV                                                          
do_properties : T                                                               
edft : T                                                                        
edft_spin_fix : 0                                                               
fine_grid_scale : 4                                                             
forces_output_detail : VERBOSE                                                  
maxit_ngwf_cg : 30                                                              
ngwf_threshold_orig : 1e-06                                                     
ngwfs_spin_polarized : F                                                        
output_detail : BRIEF                                                           
paw : T                                                                         
pseudo_path : .                                                                 
read_denskern : F                                                               
read_hamiltonian : F                                                            
read_tightbox_ngwfs : F                                                         
spin : 441                                                                      
task : GEOMETRYOPTIMIZATION                                                     
geom_continuation : T                                                           
write_denskern : T                                                              
write_forces : T                                                                
write_hamiltonian : T                                                           
write_tightbox_ngwfs : T                                                        
xc_functional : PBE                                                             
%BLOCK LATTICE_CART                                                             
ang                                                                             
22.70370017       0.00000000       0.00000000                                   
0.00000000      22.70370017       0.00000000                                    
0.00000000       0.00000000      22.70370017                                    
%ENDBLOCK LATTICE_CART                                                          
%BLOCK POSITIONS_ABS                                                            
ang                                                                             
Co1    11.351850    11.351850    11.351850                                      
Co2    13.469133    11.351850    10.043297                                      
Co2    13.469133    11.351850    12.660403                                      
Co2     9.234567    11.351850    10.043297                                      
Co2     9.234567    11.351850    12.660403                                      
Co2    10.043297    13.469133    11.351850                                      
Co2    12.660403    13.469133    11.351850                                      
Co2    10.043297     9.234567    11.351850                                      
Co2    12.660403     9.234567    11.351850                                      
Co2    11.351850    10.043297    13.469133                                      
Co2    11.351850    12.660403    13.469133                                      
Co2    11.351850    10.043297     9.234567                                      
Co2    11.351850    12.660403     9.234567                                      
Co3    15.586417    11.351850     8.734744                                      
Co3    15.586417    11.351850    11.351850                                      
Co3    15.586417    11.351850    13.968956                                      
Co3     7.117283    11.351850     8.734744                                      
Co3     7.117283    11.351850    11.351850                                      
Co3     7.117283    11.351850    13.968956                                      
Co3     8.734744    15.586417    11.351850                                      
Co3    11.351850    15.586417    11.351850                                      
Co3    13.968956    15.586417    11.351850                                      
Co3     8.734744     7.117283    11.351850                                      
Co3    11.351850     7.117283    11.351850                                      
Co3    13.968956     7.117283    11.351850                                      
Co3    11.351850     8.734744    15.586417                                      
Co3    11.351850    11.351850    15.586417                                      
Co3    11.351850    13.968956    15.586417                                      
Co3    11.351850     8.734744     7.117283                                      
Co3    11.351850    11.351850     7.117283                                      
Co3    11.351850    13.968956     7.117283                                      
Co3    13.469133    10.043297    14.777687                                      
Co3    13.469133    12.660403    14.777687                                      
Co3    13.469133    10.043297     7.926014                                      
Co3    13.469133    12.660403     7.926014                                      
Co3     9.234567    10.043297    14.777687                                      
Co3     9.234567    12.660403    14.777687                                      
Co3     9.234567    10.043297     7.926014                                      
Co3     9.234567    12.660403     7.926014                                      
Co3    14.777687    13.469133    10.043297                                      
Co3    14.777687    13.469133    12.660403                                      
Co3     7.926014    13.469133    10.043297                                      
Co3     7.926014    13.469133    12.660403                                      
Co3    14.777687     9.234567    10.043297                                      
Co3    14.777687     9.234567    12.660403                                      
Co3     7.926014     9.234567    10.043297                                      
Co3     7.926014     9.234567    12.660403                                      
Co3    10.043297    14.777687    13.469133                                      
Co3    12.660403    14.777687    13.469133                                      
Co3    10.043297     7.926014    13.469133                                      
Co3    12.660403     7.926014    13.469133                                      
Co3    10.043297    14.777687     9.234567                                      
Co3    12.660403    14.777687     9.234567                                      
Co3    10.043297     7.926014     9.234567                                      
Co3    12.660403     7.926014     9.234567                                      
Co4    17.703700    11.351850     7.426191                                      
Co4    17.703700    11.351850    10.043297                                      
Co4    17.703700    11.351850    12.660403                                      
Co4    17.703700    11.351850    15.277509                                      
Co4     5.000000    11.351850     7.426191                                      
Co4     5.000000    11.351850    10.043297                                      
Co4     5.000000    11.351850    12.660403                                      
Co4     5.000000    11.351850    15.277509                                      
Co4     7.426191    17.703700    11.351850                                      
Co4    10.043297    17.703700    11.351850                                      
Co4    12.660403    17.703700    11.351850                                      
Co4    15.277509    17.703700    11.351850                                      
Co4     7.426191     5.000000    11.351850                                      
Co4    10.043297     5.000000    11.351850                                      
Co4    12.660403     5.000000    11.351850                                      
Co4    15.277509     5.000000    11.351850                                      
Co4    11.351850     7.426191    17.703700                                      
Co4    11.351850    10.043297    17.703700                                      
Co4    11.351850    12.660403    17.703700                                      
Co4    11.351850    15.277509    17.703700                                      
Co4    11.351850     7.426191     5.000000                                      
Co4    11.351850    10.043297     5.000000                                      
Co4    11.351850    12.660403     5.000000                                      
Co4    11.351850    15.277509     5.000000                                      
Co4    15.586417    10.043297    16.086240                                      
Co4    13.469133     8.734744    16.894970                                      
Co4    15.586417    12.660403    16.086240                                      
Co4    13.469133    11.351850    16.894970                                      
Co4    13.469133    13.968956    16.894970                                      
Co4    15.586417    10.043297     6.617461                                      
Co4    13.469133     8.734744     5.808730                                      
Co4    15.586417    12.660403     6.617461                                      
Co4    13.469133    11.351850     5.808730                                      
Co4    13.469133    13.968956     5.808730                                      
Co4     7.117283    10.043297    16.086240                                      
Co4     9.234567     8.734744    16.894970                                      
Co4     7.117283    12.660403    16.086240                                      
Co4     9.234567    11.351850    16.894970                                      
Co4     9.234567    13.968956    16.894970                                      
Co4     7.117283    10.043297     6.617461                                      
Co4     9.234567     8.734744     5.808730                                      
Co4     7.117283    12.660403     6.617461                                      
Co4     9.234567    11.351850     5.808730                                      
Co4     9.234567    13.968956     5.808730                                      
Co4    16.086240    15.586417    10.043297                                      
Co4    16.894970    13.469133     8.734744                                      
Co4    16.086240    15.586417    12.660403                                      
Co4    16.894970    13.469133    11.351850                                      
Co4    16.894970    13.469133    13.968956                                      
Co4     6.617461    15.586417    10.043297                                      
Co4     5.808730    13.469133     8.734744                                      
Co4     6.617461    15.586417    12.660403                                      
Co4     5.808730    13.469133    11.351850                                      
Co4     5.808730    13.469133    13.968956                                      
Co4    16.086240     7.117283    10.043297                                      
Co4    16.894970     9.234567     8.734744                                      
Co4    16.086240     7.117283    12.660403                                      
Co4    16.894970     9.234567    11.351850                                      
Co4    16.894970     9.234567    13.968956                                      
Co4     6.617461     7.117283    10.043297                                      
Co4     5.808730     9.234567     8.734744                                      
Co4     6.617461     7.117283    12.660403                                      
Co4     5.808730     9.234567    11.351850                                      
Co4     5.808730     9.234567    13.968956                                      
Co4    10.043297    16.086240    15.586417                                      
Co4     8.734744    16.894970    13.469133                                      
Co4    12.660403    16.086240    15.586417                                      
Co4    11.351850    16.894970    13.469133                                      
Co4    13.968956    16.894970    13.469133                                      
Co4    10.043297     6.617461    15.586417                                      
Co4     8.734744     5.808730    13.469133                                      
Co4    12.660403     6.617461    15.586417                                      
Co4    11.351850     5.808730    13.469133                                      
Co4    13.968956     5.808730    13.469133                                      
Co4    10.043297    16.086240     7.117283                                      
Co4     8.734744    16.894970     9.234567                                      
Co4    12.660403    16.086240     7.117283                                      
Co4    11.351850    16.894970     9.234567                                      
Co4    13.968956    16.894970     9.234567                                      
Co4    10.043297     6.617461     7.117283                                      
Co4     8.734744     5.808730     9.234567                                      
Co4    12.660403     6.617461     7.117283                                      
Co4    11.351850     5.808730     9.234567                                      
Co4    13.968956     5.808730     9.234567                                      
Co4    14.777687     7.926014    14.777687                                      
Co4    14.777687    14.777687    14.777687                                      
Co4    14.777687     7.926014     7.926014                                      
Co4    14.777687    14.777687     7.926014                                      
Co4     7.926014     7.926014    14.777687                                      
Co4     7.926014    14.777687    14.777687                                      
Co4     7.926014     7.926014     7.926014                                      
Co4     7.926014    14.777687     7.926014                                      
%ENDBLOCK POSITIONS_ABS                                                         
%BLOCK SPECIES                                                                  
Co1 Co 27 -1 10.0                                                               
Co2 Co 27 -1 10.0                                                               
Co3 Co 27 -1 10.0                                                               
Co4 Co 27 -1 10.0                                                               
%ENDBLOCK SPECIES                                                               
%BLOCK SPECIES_ATOMIC_SET                                                       
Co1 "SOLVE INIT SPIN=3"                                                         
Co2 "SOLVE INIT SPIN=3"                                                         
Co3 "SOLVE INIT SPIN=3"                                                         
Co4 "SOLVE INIT SPIN=3"                                                         
%ENDBLOCK SPECIES_ATOMIC_SET                                                    
%BLOCK SPECIES_LDOS_GROUPS                                                      
Co1                                                                             
Co2                                                                             
Co3                                                                             
Co4                                                                             
%ENDBLOCK SPECIES_LDOS_GROUPS                                                   
%BLOCK SPECIES_POT                                                              
Co1 Co.PBE-paw.abinit                                                           
Co2 Co.PBE-paw.abinit                                                           
Co3 Co.PBE-paw.abinit                                                           
Co4 Co.PBE-paw.abinit                                                           
%ENDBLOCK SPECIES_POT                                                           

--------------------------------------------------------------------------------
-------------------------------- END INPUT FILE --------------------------------
--------------------------------------------------------------------------------


 
<<<<<<<<<<<<<<<<<<<<<<<<<<<<<<<<< Full system >>>>>>>>>>>>>>>>>>>>>>>>>>>>>>>>>>
<<<<<<<<<<<<<<<<<<<<<<<<<<< PAW Dataset information >>>>>>>>>>>>>>>>>>>>>>>>>>>
File: Co.PBE-paw.abinit; rc = 2.11 bohr; shape type =  2; rshape = 1.60 bohr;
  Atomic number: 27;  ionic charge: 17.000000
    Partial Wave 1: l = 0
    Partial Wave 2: l = 0
    Partial Wave 3: l = 1
    Partial Wave 4: l = 1
    Partial Wave 5: l = 2
    Partial Wave 6: l = 2
  Core charge supplied for Nonlinear Core Corrections
<<<<<<<<<<<<<<<<<<<<<<<<<<<<<<<<<<<<<<< >>>>>>>>>>>>>>>>>>>>>>>>>>>>>>>>>>>>>>>

-------------------------- Atom counting information ---------------------------
Symbol    Natoms    Nngwfs    Nprojs
  Co       147      1911      2646
.......   ......    ......    ......
Totals:    147      1911      2646
--------------------------------------------------------------------------------

=============================== PSINC grid sizes ===============================
                      Simulation cell:   75 x  75 x  75
                              FFT-box:   75 x  75 x  75
                                  PPD:    5 x   5 x   1
================================================================================

Atom SCF Calculation for Co : Z (AE atom) =  27 : Z (PS atom) =  17
Config String: 3s2.0 3p6.0 3d7.0 4s2.0 4p0.0 INIT SPIN=3
Orbitals (num,occ):  5     2.00 6.00 7.00 2.00 0.00
Orbitals   (num,l):  5        0    1    2    0    1
Atom SCF converged after  37 iterations to a total energy of   -146.10251041
Adjusting orbital occupancies:
Orbitals (num,spin,occ):  5  1     1.00 3.00 5.00 1.00 0.00
Orbitals   (num,spin,l):  5  1        0    1    2    0    1
Orbitals (num,spin,occ):  5  2     1.00 3.00 3.00 0.00 0.00
Orbitals   (num,spin,l):  5  2        0    1    2    0    1

Atom SCF Calculation for Co : Z (AE atom) =  27 : Z (PS atom) =  17
Config String: 3s2.0 3p6.0 3d7.0 4s2.0 4p0.0 INIT SPIN=3
Orbitals (num,occ):  5     2.00 6.00 7.00 2.00 0.00
Orbitals   (num,l):  5        0    1    2    0    1
Atom SCF converged after  37 iterations to a total energy of   -146.10251041
Adjusting orbital occupancies:
Orbitals (num,spin,occ):  5  1     1.00 3.00 5.00 1.00 0.00
Orbitals   (num,spin,l):  5  1        0    1    2    0    1
Orbitals (num,spin,occ):  5  2     1.00 3.00 3.00 0.00 0.00
Orbitals   (num,spin,l):  5  2        0    1    2    0    1

Atom SCF Calculation for Co : Z (AE atom) =  27 : Z (PS atom) =  17
Config String: 3s2.0 3p6.0 3d7.0 4s2.0 4p0.0 INIT SPIN=3
Orbitals (num,occ):  5     2.00 6.00 7.00 2.00 0.00
Orbitals   (num,l):  5        0    1    2    0    1
Atom SCF converged after  37 iterations to a total energy of   -146.10251041
Adjusting orbital occupancies:
Orbitals (num,spin,occ):  5  1     1.00 3.00 5.00 1.00 0.00
Orbitals   (num,spin,l):  5  1        0    1    2    0    1
Orbitals (num,spin,occ):  5  2     1.00 3.00 3.00 0.00 0.00
Orbitals   (num,spin,l):  5  2        0    1    2    0    1

Atom SCF Calculation for Co : Z (AE atom) =  27 : Z (PS atom) =  17
Config String: 3s2.0 3p6.0 3d7.0 4s2.0 4p0.0 INIT SPIN=3
Orbitals (num,occ):  5     2.00 6.00 7.00 2.00 0.00
Orbitals   (num,l):  5        0    1    2    0    1
Atom SCF converged after  37 iterations to a total energy of   -146.10251041
Adjusting orbital occupancies:
Orbitals (num,spin,occ):  5  1     1.00 3.00 5.00 1.00 0.00
Orbitals   (num,spin,l):  5  1        0    1    2    0    1
Orbitals (num,spin,occ):  5  2     1.00 3.00 3.00 0.00 0.00
Orbitals   (num,spin,l):  5  2        0    1    2    0    1

================================================================================
<<<<<<<<<<<<<<<< Resuming previous ONETEP Geometry Optimisation >>>>>>>>>>>>>>>>
================================================================================

 Geometry Optimisation: output file is "Co_cluster3_nspF.geom"
 
 Reading continuation file "Co_cluster3_nspF.continuation" ...done
 Geometry Optimisation: read_tightbox_ngwfs parameter over-ridden to TRUE
 Geometry Optimisation: read_hamiltonian parameter over-ridden to T

BFGS: continuation file name is "Co_cluster3_nspF.continuation"
 BFGS : Restarting previous  geometry optimization.
 BFGS: finished iteration   0  with enthalpy= -2.151765868708E+004 Eh
  
 +-----------+-----------------+-----------------+------------+-----+ <-- BFGS
 | Parameter |      value      |    tolerance    |    units   | OK? | <-- BFGS
 +-----------+-----------------+-----------------+------------+-----+ <-- BFGS
 |  dE/ion   |   0.000000E+000 |   1.000000E-006 |         Eh | No  | <-- BFGS
 |  |F|max   |   3.623035E-003 |   2.000000E-003 |    Eh/Bohr | No  | <-- BFGS
 |  |dR|max  |   0.000000E+000 |   5.000000E-003 |       Bohr | No  | <-- BFGS
 +-----------+-----------------+-----------------+------------+-----+ <-- BFGS
  

================================================================================
 Starting BFGS iteration    1 ...
================================================================================

 Writing continuation file "Co_cluster3_nspF.continuation" ...done
 Backing up NGWFs to file "Co_cluster3_nspF.tightbox_ngwfs.bfgs_back" ... done
 Backing up Hamiltonian to file "Co_cluster3_nspF.ham.bfgs_back" ... done
  
 +------------+-------------+-------------+-----------------+ <-- min BFGS
 |    Step    |   lambda    |   F.delta   |    enthalpy     | <-- min BFGS
 +------------+-------------+-------------+-----------------+ <-- min BFGS
 |  previous  |    0.000000 |    0.000158 |   -21517.658687 | <-- min BFGS
 +------------+-------------+-------------+-----------------+ <-- min BFGS
  

--------------------------------------------------------------------------------
 BFGS: starting iteration   1 with trial guess (lambda=    1.000000)
--------------------------------------------------------------------------------
Calculating Ewald energy ...            77988.614658 Hartree

============================= Charge Augmentation ==============================
                           Aug box size:   33 x  33 x  33
================================================================================

Reading NGWFs from file "Co_cluster3_nspF.tightbox_ngwfs" ... done

================================= Core Density =================================
               Core den box size:   33 x  33 x  33
================================================================================
Density kernel initialisation

################################################################################
###################### NGWF self-consistent optimisation #######################
################################################################################
|ITER|    RMS GRADIENT   |     TOTAL ENERGY    |   step   |     Epredicted      

Reading Hamiltonian from file "Co_cluster3_nspF.ham" ... done
(P)DSYGVX in subroutine dense_eigensolve returned info=    2
 ifail= 2*0
 iclustr= 13,  42
 gap= 1.4886993637555815E-6,  2.41086840615802165E-6
(P)DSYGVX in subroutine dense_eigensolve returned info=    2
 ifail= 2*0
 iclustr= 26,  55
 gap= 1.2289973915963674E-5,  1.21055316297023579E-5
(P)DSYGVX in subroutine dense_eigensolve returned info=    2
 ifail= 2*0
 iclustr= 26,  55
 gap= 3.62604808623239602E-6,  3.02845552798556394E-6
(P)DSYGVX in subroutine dense_eigensolve returned info=    2
 ifail= 2*0
 iclustr= 26,  55
 gap= 1.23412916841451707E-6,  5.73937980427345152E-6
(P)DSYGVX in subroutine dense_eigensolve returned info=    2
 ifail= 2*0
 iclustr= 14,  55
 gap= 2.56589251389174201E-6,  6.36309493245083069E-6
(P)DSYGVX in subroutine dense_eigensolve returned info=    2
 ifail= 2*0
 iclustr= 14,  55
 gap= 2.74332573068881779E-6,  4.58940339615560386E-6
(P)DSYGVX in subroutine dense_eigensolve returned info=    2
 ifail= 2*0
 iclustr= 26,  55
 gap= 1.23611508273199675E-6,  1.30676966115299245E-6
(P)DSYGVX in subroutine dense_eigensolve returned info=    2
 ifail= 2*0
 iclustr= 26,  55
 gap= 1.28955963810189652E-5,  3.79693512322150806E-5
(P)DSYGVX in subroutine dense_eigensolve returned info=    2
 ifail= 2*0
 iclustr= 13,  72
 gap= 1.10390083364064863E-5,  6.71750294601205475E-5
(P)DSYGVX in subroutine dense_eigensolve returned info=    2
 ifail= 2*0
 iclustr= 13,  72
 gap= 1.27337912500105652E-5,  3.09075473271329981E-5
(P)DSYGVX in subroutine dense_eigensolve returned info=    2
 ifail= 2*0
 iclustr= 13,  72
 gap= 2.27977541669804487E-6,  4.35506021274928123E-6
(P)DSYGVX in subroutine dense_eigensolve returned info=    2
 ifail= 2*0
 iclustr= 13,  72
 gap= 5.70902323418583913E-6,  1.00568457769282397E-5
(P)DSYGVX in subroutine dense_eigensolve returned info=    2
 ifail= 2*0
 iclustr= 13,  84
 gap= 1.45241512110677122E-6,  2.39983954091471485E-6
(P)DSYGVX in subroutine dense_eigensolve returned info=    2
 ifail= 2*0
 iclustr= 13,  24
 gap= 1.24643535530951726E-5,  3.07822692111698388E-6
(P)DSYGVX in subroutine dense_eigensolve returned info=    2
 ifail= 2*0
 iclustr= 13,  42
 gap= 2.02804323306058479E-6,  1.35153322224659641E-6
(P)DSYGVX in subroutine dense_eigensolve returned info=    2
 ifail= 2*0
 iclustr= 18,  55
 gap= 1.34227400028284163E-5,  1.6989891165928378E-6
(P)DSYGVX in subroutine dense_eigensolve returned info=    2
 ifail= 2*0
 iclustr= 13,  42
 gap= 1.2321584211106804E-6,  1.20421401106122772E-6
(P)DSYGVX in subroutine dense_eigensolve returned info=    2
 ifail= 2*0
 iclustr= 26,  55
 gap= 1.45248409487224862E-5,  1.10695500845963375E-6
(P)DSYGVX in subroutine dense_eigensolve returned info=    2
 ifail= 2*0
 iclustr= 14,  43
 gap= 2.55429778831057355E-5,  5.28240371866246642E-5
(P)DSYGVX in subroutine dense_eigensolve returned info=    2
 ifail= 2*0
 iclustr= 14,  43
 gap= 1.49715499861916052E-5,  7.02393243278769358E-5
(P)DSYGVX in subroutine dense_eigensolve returned info=    2
 ifail= 2*0
 iclustr= 13,  42
 gap= 1.15612175778988774E-5,  1.62035880303690156E-6
(P)DSYGVX in subroutine dense_eigensolve returned info=    2
 ifail= 2*0
 iclustr= 26,  55
 gap= 1.50948724643661302E-5,  1.0374129990623925E-6
(P)DSYGVX in subroutine dense_eigensolve returned info=    2
 ifail= 2*0
 iclustr= 13,  42
 gap= 1.01468623692251621E-5,  1.12098776043837471E-6
(P)DSYGVX in subroutine dense_eigensolve returned info=    2
 ifail= 2*0
 iclustr= 18,  55
 gap= 1.50314512473160134E-5,  1.17504125556772618E-6
(P)DSYGVX in subroutine dense_eigensolve returned info=    2
 ifail= 2*0
 iclustr= 1,  31
 gap= 1.95686628319214227E-5,  4.62672217679521697E-5
(P)DSYGVX in subroutine dense_eigensolve returned info=    2
 ifail= 2*0
 iclustr= 1,  37
 gap= 1.51871320202775807E-5,  2.77614393120920828E-5
(P)DSYGVX in subroutine dense_eigensolve returned info=    2
 ifail= 2*0
 iclustr= 13,  42
 gap= 1.00270545111720527E-5,  2.43446031487452677E-6
(P)DSYGVX in subroutine dense_eigensolve returned info=    2
 ifail= 2*0
 iclustr= 18,  55
 gap= 2.37116572125132017E-5,  3.76646528817137439E-6
(P)DSYGVX in subroutine dense_eigensolve returned info=    2
 ifail= 2*0
 iclustr= 12,  42
 gap= 1.29551528559472046E-5,  1.03589840018767351E-5
(P)DSYGVX in subroutine dense_eigensolve returned info=    2
 ifail= 2*0
 iclustr= 14,  55
 gap= 1.06876954465610068E-5,  1.02547964309534783E-5
(P)DSYGVX in subroutine dense_eigensolve returned info=    2
 ifail= 2*0
 iclustr= 13,  42
 gap= 1.0484578404537392E-5,  1.93252923380861384E-6
(P)DSYGVX in subroutine dense_eigensolve returned info=    2
 ifail= 2*0
 iclustr= 18,  55
 gap= 1.03446978434452185E-5,  1.04229534228848163E-6
(P)DSYGVX in subroutine dense_eigensolve returned info=    2
 ifail= 2*0
 iclustr= 13,  42
 gap= 1.16101402899260272E-5,  1.18712777897659744E-6
(P)DSYGVX in subroutine dense_eigensolve returned info=    2
 ifail= 2*0
 iclustr= 18,  55
 gap= 1.34751048452433886E-5,  2.32819354810474483E-6
(P)DSYGVX in subroutine dense_eigensolve returned info=    2
 ifail= 2*0
 iclustr= 13,  42
 gap= 1.21956492095109276E-5,  3.33436008356076285E-6
(P)DSYGVX in subroutine dense_eigensolve returned info=    2
 ifail= 2*0
 iclustr= 18,  55
 gap= 1.06761224655484926E-5,  1.20313274523184958E-5
(P)DSYGVX in subroutine dense_eigensolve returned info=    2
 ifail= 2*0
 iclustr= 12,  136
 gap= 1.07579153540002951E-5,  6.59006658276896167E-5
(P)DSYGVX in subroutine dense_eigensolve returned info=    2
 ifail= 2*0
 iclustr= 8,  55
 gap= 2.04609318501701954E-5,  1.07442328671047249E-5
(P)DSYGVX in subroutine dense_eigensolve returned info=    2
 ifail= 2*0
 iclustr= 13,  42
 gap= 1.04762498615187485E-6,  1.37925856229470383E-6
(P)DSYGVX in subroutine dense_eigensolve returned info=    2
 ifail= 2*0
 iclustr= 18,  55
 gap= 1.33572183636869662E-5,  1.09065990631372536E-6
(P)DSYGVX in subroutine dense_eigensolve returned info=    2
 ifail= 2*0
 iclustr= 13,  42
 gap= 1.27952344945187381E-5,  1.84673953266507023E-6
(P)DSYGVX in subroutine dense_eigensolve returned info=    2
 ifail= 2*0
 iclustr= 18,  55
 gap= 1.8092412317771328E-5,  2.53715393909667687E-6
(P)DSYGVX in subroutine dense_eigensolve returned info=    2
 ifail= 2*0
 iclustr= 13,  42
 gap= 1.09703800528182178E-5,  1.20806122709693105E-6
(P)DSYGVX in subroutine dense_eigensolve returned info=    2
 ifail= 2*0
 iclustr= 18,  55
 gap= 1.46948941180934783E-5,  1.22748075621724422E-6
(P)DSYGVX in subroutine dense_eigensolve returned info=    2
 ifail= 2*0
 iclustr= 13,  42
 gap= 1.13363930739293486E-5,  4.33287571590767262E-6
(P)DSYGVX in subroutine dense_eigensolve returned info=    2
 ifail= 2*0
 iclustr= 18,  55
 gap= 1.54165638939900851E-5,  1.21642138409631821E-6
(P)DSYGVX in subroutine dense_eigensolve returned info=    2
 ifail= 2*0
 iclustr= 13,  42
 gap= 1.19265653787308326E-5,  4.51987416550832555E-6
(P)DSYGVX in subroutine dense_eigensolve returned info=    2
 ifail= 2*0
 iclustr= 18,  55
 gap= 1.57236317519021428E-5,  1.2252547768454897E-5
(P)DSYGVX in subroutine dense_eigensolve returned info=    2
 ifail= 2*0
 iclustr= 12,  42
 gap= 1.69981682547699754E-5,  1.13490572099087558E-5
(P)DSYGVX in subroutine dense_eigensolve returned info=    2
 ifail= 2*0
 iclustr= 8,  55
 gap= 1.14330620049356831E-5,  1.07672193590844624E-5
(P)DSYGVX in subroutine dense_eigensolve returned info=    2
 ifail= 2*0
 iclustr= 13,  42
 gap= 1.02605311090197599E-5,  1.68608276492734013E-6
(P)DSYGVX in subroutine dense_eigensolve returned info=    2
 ifail= 2*0
 iclustr= 18,  55
 gap= 1.18785786850657515E-5,  1.50232408464625746E-6
(P)DSYGVX in subroutine dense_eigensolve returned info=    2
 ifail= 2*0
 iclustr= 13,  42
 gap= 1.20566682821447537E-5,  2.05650831979541934E-6
(P)DSYGVX in subroutine dense_eigensolve returned info=    2
 ifail= 2*0
 iclustr= 18,  55
 gap= 1.24628853196336894E-5,  2.06405593021789232E-6
(P)DSYGVX in subroutine dense_eigensolve returned info=    2
 ifail= 2*0
 iclustr= 13,  42
 gap= 1.15157845728278894E-5,  1.02440819366639137E-6
(P)DSYGVX in subroutine dense_eigensolve returned info=    2
 ifail= 2*0
 iclustr= 18,  55
 gap= 1.5107838339704146E-5,  1.86463663718681473E-6
(P)DSYGVX in subroutine dense_eigensolve returned info=    2
 ifail= 2*0
 iclustr= 13,  42
 gap= 1.11993523362527984E-5,  1.18932849791009553E-6
(P)DSYGVX in subroutine dense_eigensolve returned info=    2
 ifail= 2*0
 iclustr= 18,  55
 gap= 1.55258357436950823E-5,  1.34485193884735309E-6
(P)DSYGVX in subroutine dense_eigensolve returned info=    2
 ifail= 2*0
 iclustr= 13,  42
 gap= 1.18159483642773554E-5,  1.01516862170981555E-6
(P)DSYGVX in subroutine dense_eigensolve returned info=    2
 ifail= 2*0
 iclustr= 18,  55
 gap= 1.57304142432361014E-5,  1.01431832189567022E-5
(P)DSYGVX in subroutine dense_eigensolve returned info=    2
 ifail= 2*0
 iclustr= 12,  42
 gap= 1.82285849366567951E-5,  1.13674733043976055E-5
(P)DSYGVX in subroutine dense_eigensolve returned info=    2
 ifail= 2*0
 iclustr= 8,  55
 gap= 1.07284050423833374E-5,  1.07879652461736089E-5
(P)DSYGVX in subroutine dense_eigensolve returned info=    2
 ifail= 2*0
 iclustr= 13,  42
 gap= 1.00903431006541752E-5,  1.62501932546156542E-6
(P)DSYGVX in subroutine dense_eigensolve returned info=    2
 ifail= 2*0
 iclustr= 18,  55
 gap= 1.09744433232712175E-5,  1.25538853167967817E-6
   0     0.00001595656196 -21517.62835516424460   0.284400 -21517.62990335721040        
(P)DSYGVX in subroutine dense_eigensolve returned info=    2
 ifail= 2*0
 iclustr= 33,  144
 gap= 1.26403538737035379E-5,  1.4910781764595963E-5
(P)DSYGVX in subroutine dense_eigensolve returned info=    2
 ifail= 2*0
 iclustr= 9,  55
 gap= 1.67995983355555906E-5,  1.45453780516981947E-5
(P)DSYGVX in subroutine dense_eigensolve returned info=    2
 ifail= 2*0
 iclustr= 12,  42
 gap= 1.09539645708713535E-5,  1.12062539239595947E-5
(P)DSYGVX in subroutine dense_eigensolve returned info=    2
 ifail= 2*0
 iclustr= 8,  55
 gap= 1.57657208134469747E-5,  1.01833104023337604E-5
(P)DSYGVX in subroutine dense_eigensolve returned info=    2
 ifail= 2*0
 iclustr= 13,  42
 gap= 1.1298926374600037E-5,  1.89989972500922606E-6
(P)DSYGVX in subroutine dense_eigensolve returned info=    2
 ifail= 2*0
 iclustr= 18,  55
 gap= 1.5450138636314586E-5,  1.12848566627056918E-6
(P)DSYGVX in subroutine dense_eigensolve returned info=    2
 ifail= 2*0
 iclustr= 13,  42
 gap= 1.12886329764653429E-5,  1.16620280129851394E-6
(P)DSYGVX in subroutine dense_eigensolve returned info=    2
 ifail= 2*0
 iclustr= 18,  55
 gap= 1.52809324174970091E-5,  1.23580969636110212E-6
(P)DSYGVX in subroutine dense_eigensolve returned info=    2
 ifail= 2*0
 iclustr= 12,  42
 gap= 1.8168052295202368E-5,  1.12959682912416646E-5
(P)DSYGVX in subroutine dense_eigensolve returned info=    2
 ifail= 2*0
 iclustr= 8,  55
 gap= 1.07640835606008882E-5,  1.11394849894203938E-5
(P)DSYGVX in subroutine dense_eigensolve returned info=    2
 ifail= 2*0
 iclustr= 13,  42
 gap= 1.08182038484760177E-5,  2.20912922615807465E-6
(P)DSYGVX in subroutine dense_eigensolve returned info=    2
 ifail= 2*0
 iclustr= 18,  55
 gap= 1.47476153027887493E-5,  1.12522123567548135E-6
(P)DSYGVX in subroutine dense_eigensolve returned info=    2
 ifail= 2*0
 iclustr= 13,  42
 gap= 1.97018945135351572E-6,  1.39916289195728598E-6
(P)DSYGVX in subroutine dense_eigensolve returned info=    2
 ifail= 2*0
 iclustr= 18,  55
 gap= 1.38436917722080994E-5,  1.4532036516993478E-6
(P)DSYGVX in subroutine dense_eigensolve returned info=    2
 ifail= 2*0
 iclustr= 13,  42
 gap= 1.18903983971679265E-5,  1.0602773015285337E-6
(P)DSYGVX in subroutine dense_eigensolve returned info=    2
 ifail= 2*0
 iclustr= 18,  55
 gap= 1.50851580902899964E-5,  1.11336271796126208E-6
(P)DSYGVX in subroutine dense_eigensolve returned info=    2
 ifail= 2*0
 iclustr= 13,  42
 gap= 1.13563298012251033E-5,  1.31474048180474237E-6
(P)DSYGVX in subroutine dense_eigensolve returned info=    2
 ifail= 2*0
 iclustr= 18,  55
 gap= 1.50520508123007197E-5,  1.48808064804210716E-6
(P)DSYGVX in subroutine dense_eigensolve returned info=    2
 ifail= 2*0
 iclustr= 13,  42
 gap= 1.10844878266823401E-5,  1.30938015023087525E-6
(P)DSYGVX in subroutine dense_eigensolve returned info=    2
 ifail= 2*0
 iclustr= 18,  55
 gap= 1.47830472783764608E-5,  1.51196271696484819E-6
(P)DSYGVX in subroutine dense_eigensolve returned info=    2
 ifail= 2*0
 iclustr= 12,  42
 gap= 1.8748917944900258E-5,  1.16643167488480812E-5
(P)DSYGVX in subroutine dense_eigensolve returned info=    2
 ifail= 2*0
 iclustr= 8,  55
 gap= 1.46663058038902838E-5,  1.06293126984787787E-5
(P)DSYGVX in subroutine dense_eigensolve returned info=    2
 ifail= 2*0
 iclustr= 13,  42
 gap= 1.07666592279409733E-5,  2.21791974869924649E-6
(P)DSYGVX in subroutine dense_eigensolve returned info=    2
 ifail= 2*0
 iclustr= 18,  55
 gap= 1.44009569487225402E-5,  1.56369204867679638E-6
(P)DSYGVX in subroutine dense_eigensolve returned info=    2
 ifail= 2*0
 iclustr= 13,  42
 gap= 1.06423061978342123E-5,  2.16527795784800007E-6
(P)DSYGVX in subroutine dense_eigensolve returned info=    2
 ifail= 2*0
 iclustr= 18,  55
 gap= 1.35509927422933212E-5,  1.01782049183121304E-6
(P)DSYGVX in subroutine dense_eigensolve returned info=    2
 ifail= 2*0
 iclustr= 44,  141
 gap= 1.14292162276638327E-5,  3.97389783040686125E-5
(P)DSYGVX in subroutine dense_eigensolve returned info=    2
 ifail= 2*0
 iclustr= 8,  55
 gap= 1.30433903178502269E-5,  1.09696255244214715E-5
(P)DSYGVX in subroutine dense_eigensolve returned info=    2
 ifail= 2*0
 iclustr= 13,  42
 gap= 1.14339742752557075E-5,  2.60149789281542885E-6
(P)DSYGVX in subroutine dense_eigensolve returned info=    2
 ifail= 2*0
 iclustr= 18,  55
 gap= 1.46778970556409207E-5,  1.37537354994817257E-6
(P)DSYGVX in subroutine dense_eigensolve returned info=    2
 ifail= 2*0
 iclustr= 13,  42
 gap= 1.08913962879177265E-5,  1.29084260828982648E-6
(P)DSYGVX in subroutine dense_eigensolve returned info=    2
 ifail= 2*0
 iclustr= 18,  55
 gap= 1.44699820598042914E-5,  1.65817853830891644E-6
(P)DSYGVX in subroutine dense_eigensolve returned info=    2
 ifail= 2*0
 iclustr= 12,  42
 gap= 1.90787437016676314E-5,  1.21239752747805741E-5
(P)DSYGVX in subroutine dense_eigensolve returned info=    2
 ifail= 2*0
 iclustr= 15,  55
 gap= 1.155088175404702E-5,  1.15563540251292695E-5
(P)DSYGVX in subroutine dense_eigensolve returned info=    2
 ifail= 2*0
 iclustr= 13,  42
 gap= 1.07384984244646272E-5,  2.23488772756498626E-6
(P)DSYGVX in subroutine dense_eigensolve returned info=    2
 ifail= 2*0
 iclustr= 18,  55
 gap= 1.39843869011666954E-5,  1.44977307812531158E-6
(P)DSYGVX in subroutine dense_eigensolve returned info=    2
 ifail= 2*0
 iclustr= 13,  42
 gap= 1.12262380790787333E-5,  1.05198048483307997E-6
(P)DSYGVX in subroutine dense_eigensolve returned info=    2
 ifail= 2*0
 iclustr= 18,  55
 gap= 1.33216811203702931E-5,  1.42242209587030637E-6
(P)DSYGVX in subroutine dense_eigensolve returned info=    2
 ifail= 2*0
 iclustr= 7,  42
 gap= 1.06327650423414611E-5,  1.19575152742519682E-5
(P)DSYGVX in subroutine dense_eigensolve returned info=    2
 ifail= 2*0
 iclustr= 8,  55
 gap= 1.37314267649604689E-5,  1.0876737449874394E-5
(P)DSYGVX in subroutine dense_eigensolve returned info=    2
 ifail= 2*0
 iclustr= 13,  42
 gap= 1.13785649747376649E-5,  1.00014108784028933E-6
(P)DSYGVX in subroutine dense_eigensolve returned info=    2
 ifail= 2*0
 iclustr= 18,  55
 gap= 1.42552214520602315E-5,  1.03980317243548214E-6
(P)DSYGVX in subroutine dense_eigensolve returned info=    2
 ifail= 2*0
 iclustr= 13,  42
 gap= 1.08844065709865802E-5,  1.27395864625643511E-6
(P)DSYGVX in subroutine dense_eigensolve returned info=    2
 ifail= 2*0
 iclustr= 18,  55
 gap= 1.39332124154773739E-5,  1.15870003872551628E-6
(P)DSYGVX in subroutine dense_eigensolve returned info=    2
 ifail= 2*0
 iclustr= 12,  42
 gap= 1.93291334053346857E-5,  2.16239363817793985E-6
(P)DSYGVX in subroutine dense_eigensolve returned info=    2
 ifail= 2*0
 iclustr= 15,  55
 gap= 1.24426583815185426E-5,  1.1499246201510523E-5
(P)DSYGVX in subroutine dense_eigensolve returned info=    2
 ifail= 2*0
 iclustr= 13,  42
 gap= 1.07498931574999382E-5,  2.26153870092337185E-6
(P)DSYGVX in subroutine dense_eigensolve returned info=    2
 ifail= 2*0
 iclustr= 18,  55
 gap= 1.3536847295474595E-5,  1.12797451194333807E-6
(P)DSYGVX in subroutine dense_eigensolve returned info=    2
 ifail= 2*0
 iclustr= 13,  42
 gap= 1.13680227810673143E-5,  1.12813004064759583E-6
(P)DSYGVX in subroutine dense_eigensolve returned info=    2
 ifail= 2*0
 iclustr= 18,  55
 gap= 1.30170337476814691E-5,  1.05918102972903539E-6
(P)DSYGVX in subroutine dense_eigensolve returned info=    2
 ifail= 2*0
 iclustr= 7,  42
 gap= 1.01702498299815408E-5,  1.01817387571164714E-5
(P)DSYGVX in subroutine dense_eigensolve returned info=    2
 ifail= 2*0
 iclustr= 8,  55
 gap= 1.70596957955477893E-5,  1.15489426534505386E-5
(P)DSYGVX in subroutine dense_eigensolve returned info=    2
 ifail= 2*0
 iclustr= 13,  42
 gap= 1.16060342086656433E-5,  1.04677768931148169E-6
(P)DSYGVX in subroutine dense_eigensolve returned info=    2
 ifail= 2*0
 iclustr= 18,  55
 gap= 1.38715221451851786E-5,  1.75520879781886125E-6
(P)DSYGVX in subroutine dense_eigensolve returned info=    2
 ifail= 2*0
 iclustr= 13,  42
 gap= 1.0814341019244207E-5,  1.23821656463103532E-6
(P)DSYGVX in subroutine dense_eigensolve returned info=    2
 ifail= 2*0
 iclustr= 18,  55
 gap= 1.34190431982418584E-5,  1.18921347689381304E-6
(P)DSYGVX in subroutine dense_eigensolve returned info=    2
 ifail= 2*0
 iclustr= 12,  42
 gap= 1.95528757837310364E-5,  1.00786619528698162E-5
(P)DSYGVX in subroutine dense_eigensolve returned info=    2
 ifail= 2*0
 iclustr= 15,  55
 gap= 1.08293847663294128E-5,  1.00662769212408954E-5
(P)DSYGVX in subroutine dense_eigensolve returned info=    2
 ifail= 2*0
 iclustr= 13,  42
 gap= 1.07644041957231551E-5,  2.28664744986238236E-6
(P)DSYGVX in subroutine dense_eigensolve returned info=    2
 ifail= 2*0
 iclustr= 18,  55
 gap= 1.30646837205389788E-5,  1.52737149892369571E-6
   1     0.00000475507059 -21517.63805095764110   0.058256 -21517.63807912018820        
(P)DSYGVX in subroutine dense_eigensolve returned info=    2
 ifail= 2*0
 iclustr= 7,  42
 gap= 1.26931703707400685E-5,  1.01379675621754638E-5
(P)DSYGVX in subroutine dense_eigensolve returned info=    2
 ifail= 2*0
 iclustr= 8,  55
 gap= 1.2575320282525225E-5,  1.37330359949925858E-5
(P)DSYGVX in subroutine dense_eigensolve returned info=    2
 ifail= 2*0
 iclustr= 13,  42
 gap= 1.26583573316751523E-5,  1.00967085564559023E-5
(P)DSYGVX in subroutine dense_eigensolve returned info=    2
 ifail= 2*0
 iclustr= 18,  55
 gap= 1.30774668874336271E-5,  1.02631073960417072E-6
(P)DSYGVX in subroutine dense_eigensolve returned info=    2
 ifail= 2*0
 iclustr= 13,  42
 gap= 1.1445443826000316E-5,  1.03859933877864354E-6
(P)DSYGVX in subroutine dense_eigensolve returned info=    2
 ifail= 2*0
 iclustr= 18,  55
 gap= 1.33383120942075128E-5,  1.24314796236423701E-6
(P)DSYGVX in subroutine dense_eigensolve returned info=    2
 ifail= 2*0
 iclustr= 13,  42
 gap= 1.08030229289234505E-5,  1.08690507178740945E-6
(P)DSYGVX in subroutine dense_eigensolve returned info=    2
 ifail= 2*0
 iclustr= 18,  55
 gap= 1.27984737988483014E-5,  1.14546004299959754E-6
(P)DSYGVX in subroutine dense_eigensolve returned info=    2
 ifail= 2*0
 iclustr= 12,  42
 gap= 1.86151950737122771E-5,  1.01584113677969871E-5
(P)DSYGVX in subroutine dense_eigensolve returned info=    2
 ifail= 2*0
 iclustr= 8,  55
 gap= 1.00620619494881143E-5,  1.09509431965077319E-5
(P)DSYGVX in subroutine dense_eigensolve returned info=    2
 ifail= 2*0
 iclustr= 13,  42
 gap= 1.07860698613804353E-5,  2.1309520859865047E-6
(P)DSYGVX in subroutine dense_eigensolve returned info=    2
 ifail= 2*0
 iclustr= 18,  55
 gap= 1.26165770104419706E-5,  1.34730449758060541E-6
(P)DSYGVX in subroutine dense_eigensolve returned info=    2
 ifail= 2*0
 iclustr= 13,  42
 gap= 1.06888027870877942E-5,  1.90416912313574532E-6
(P)DSYGVX in subroutine dense_eigensolve returned info=    2
 ifail= 2*0
 iclustr= 18,  55
 gap= 1.26016967797151451E-5,  1.03067821951349087E-6
(P)DSYGVX in subroutine dense_eigensolve returned info=    2
 ifail= 2*0
 iclustr= 7,  42
 gap= 1.06439566584304157E-5,  1.00405852322387979E-5
(P)DSYGVX in subroutine dense_eigensolve returned info=    2
 ifail= 2*0
 iclustr= 14,  55
 gap= 2.24007679387184163E-5,  1.18467928835256436E-5
(P)DSYGVX in subroutine dense_eigensolve returned info=    2
 ifail= 2*0
 iclustr= 13,  42
 gap= 1.14789495969284127E-5,  1.04560591617549259E-6
(P)DSYGVX in subroutine dense_eigensolve returned info=    2
 ifail= 2*0
 iclustr= 18,  55
 gap= 1.27982056212263531E-5,  1.18599794322016484E-6
(P)DSYGVX in subroutine dense_eigensolve returned info=    2
 ifail= 2*0
 iclustr= 13,  42
 gap= 1.08332114166503195E-5,  1.4721086094396686E-6
(P)DSYGVX in subroutine dense_eigensolve returned info=    2
 ifail= 2*0
 iclustr= 18,  55
 gap= 1.22493142865268377E-5,  1.10828543146974862E-6
(P)DSYGVX in subroutine dense_eigensolve returned info=    2
 ifail= 2*0
 iclustr= 12,  42
 gap= 1.8869169254119968E-5,  1.07363433634083782E-5
(P)DSYGVX in subroutine dense_eigensolve returned info=    2
 ifail= 2*0
 iclustr= 15,  55
 gap= 1.08596201133299098E-5,  1.0479802267858943E-5
(P)DSYGVX in subroutine dense_eigensolve returned info=    2
 ifail= 2*0
 iclustr= 13,  42
 gap= 1.0779343520583896E-5,  2.17129236538585571E-6
(P)DSYGVX in subroutine dense_eigensolve returned info=    2
 ifail= 2*0
 iclustr= 18,  55
 gap= 1.21237256060477782E-5,  1.28900014439163284E-6
(P)DSYGVX in subroutine dense_eigensolve returned info=    2
 ifail= 2*0
 iclustr= 13,  42
 gap= 1.06761055862276891E-5,  2.12896631625304311E-6
(P)DSYGVX in subroutine dense_eigensolve returned info=    2
 ifail= 2*0
 iclustr= 18,  55
 gap= 1.21262102117063949E-5,  1.13311530630170873E-6
(P)DSYGVX in subroutine dense_eigensolve returned info=    2
 ifail= 2*0
 iclustr= 7,  42
 gap= 1.01083555246310333E-5,  1.10868112874589863E-5
(P)DSYGVX in subroutine dense_eigensolve returned info=    2
 ifail= 2*0
 iclustr= 14,  55
 gap= 2.22498566442820637E-5,  1.28899878200159925E-5
(P)DSYGVX in subroutine dense_eigensolve returned info=    2
 ifail= 2*0
 iclustr= 13,  42
 gap= 1.15010082099690702E-5,  1.05147728322670634E-6
(P)DSYGVX in subroutine dense_eigensolve returned info=    2
 ifail= 2*0
 iclustr= 18,  55
 gap= 1.22642597914995936E-5,  1.35879541261190475E-6
(P)DSYGVX in subroutine dense_eigensolve returned info=    2
 ifail= 2*0
 iclustr= 13,  42
 gap= 1.07287084176760524E-5,  1.58159028394758871E-6
(P)DSYGVX in subroutine dense_eigensolve returned info=    2
 ifail= 2*0
 iclustr= 18,  55
 gap= 1.17272292494799389E-5,  1.09628632729922015E-6
(P)DSYGVX in subroutine dense_eigensolve returned info=    2
 ifail= 2*0
 iclustr= 12,  42
 gap= 1.91326904147912007E-5,  1.04387493178507579E-5
(P)DSYGVX in subroutine dense_eigensolve returned info=    2
 ifail= 2*0
 iclustr= 15,  55
 gap= 1.29894919774949221E-5,  1.08575307615025869E-5
(P)DSYGVX in subroutine dense_eigensolve returned info=    2
 ifail= 2*0
 iclustr= 13,  42
 gap= 1.06578270803875098E-5,  2.18075700101341671E-6
(P)DSYGVX in subroutine dense_eigensolve returned info=    2
 ifail= 2*0
 iclustr= 18,  55
 gap= 1.16210033414798869E-5,  1.2485855136645728E-6
(P)DSYGVX in subroutine dense_eigensolve returned info=    2
 ifail= 2*0
 iclustr= 13,  42
 gap= 1.06994337699854513E-5,  2.43114969350181838E-6
(P)DSYGVX in subroutine dense_eigensolve returned info=    2
 ifail= 2*0
 iclustr= 18,  55
 gap= 1.16321343788238572E-5,  2.9401256252072136E-6
(P)DSYGVX in subroutine dense_eigensolve returned info=    2
 ifail= 2*0
 iclustr= 7,  42
 gap= 1.30610856303430474E-5,  1.0579491892848588E-5
(P)DSYGVX in subroutine dense_eigensolve returned info=    2
 ifail= 2*0
 iclustr= 14,  55
 gap= 2.0596008657080692E-5,  1.0797981933958828E-5
(P)DSYGVX in subroutine dense_eigensolve returned info=    2
 ifail= 2*0
 iclustr= 13,  42
 gap= 1.14190561595869705E-5,  1.06405699373544531E-6
(P)DSYGVX in subroutine dense_eigensolve returned info=    2
 ifail= 2*0
 iclustr= 18,  55
 gap= 1.17281827054228008E-5,  1.35027233814983467E-6
(P)DSYGVX in subroutine dense_eigensolve returned info=    2
 ifail= 2*0
 iclustr= 13,  42
 gap= 1.06638648332265283E-5,  1.67598377466258912E-6
(P)DSYGVX in subroutine dense_eigensolve returned info=    2
 ifail= 2*0
 iclustr= 18,  55
 gap= 1.12237745420163471E-5,  1.05825293309480325E-6
(P)DSYGVX in subroutine dense_eigensolve returned info=    2
 ifail= 2*0
 iclustr= 12,  42
 gap= 1.93716265790551691E-5,  1.01845181223367633E-5
(P)DSYGVX in subroutine dense_eigensolve returned info=    2
 ifail= 2*0
 iclustr= 15,  55
 gap= 1.09106219096102008E-5,  1.07545805751851553E-5
(P)DSYGVX in subroutine dense_eigensolve returned info=    2
 ifail= 2*0
 iclustr= 13,  42
 gap= 1.05762747309535138E-5,  2.19117767389413908E-6
(P)DSYGVX in subroutine dense_eigensolve returned info=    2
 ifail= 2*0
 iclustr= 18,  55
 gap= 1.10976222819495469E-5,  1.06870267314703189E-6
(P)DSYGVX in subroutine dense_eigensolve returned info=    2
 ifail= 2*0
 iclustr= 13,  42
 gap= 1.07536600796547181E-5,  2.75930354324344514E-6
(P)DSYGVX in subroutine dense_eigensolve returned info=    2
 ifail= 2*0
 iclustr= 18,  55
 gap= 1.11092462900009244E-5,  4.05449211091578604E-6
(P)DSYGVX in subroutine dense_eigensolve returned info=    2
 ifail= 2*0
 iclustr= 7,  42
 gap= 1.27239693401494266E-5,  1.01533575956639879E-5
(P)DSYGVX in subroutine dense_eigensolve returned info=    2
 ifail= 2*0
 iclustr= 14,  55
 gap= 1.81589928183916105E-5,  1.05644441266975793E-5
(P)DSYGVX in subroutine dense_eigensolve returned info=    2
 ifail= 2*0
 iclustr= 13,  42
 gap= 1.13050714980291033E-5,  1.07511798825969343E-6
(P)DSYGVX in subroutine dense_eigensolve returned info=    2
 ifail= 2*0
 iclustr= 18,  55
 gap= 1.11830690194213083E-5,  2.07483642233910139E-6
(P)DSYGVX in subroutine dense_eigensolve returned info=    2
 ifail= 2*0
 iclustr= 13,  42
 gap= 1.06046929553076291E-5,  1.75301759209471169E-6
(P)DSYGVX in subroutine dense_eigensolve returned info=    2
 ifail= 2*0
 iclustr= 18,  55
 gap= 1.06831859647398612E-5,  1.19779983562900998E-6
(P)DSYGVX in subroutine dense_eigensolve returned info=    2
 ifail= 2*0
 iclustr= 12,  42
 gap= 1.9583472123771788E-5,  1.01534403080187043E-5
(P)DSYGVX in subroutine dense_eigensolve returned info=    2
 ifail= 2*0
 iclustr= 15,  55
 gap= 1.6174213732525874E-5,  1.05890328378893289E-5
(P)DSYGVX in subroutine dense_eigensolve returned info=    2
 ifail= 2*0
 iclustr= 13,  42
 gap= 1.04867680404990661E-5,  2.1933841317686542E-6
(P)DSYGVX in subroutine dense_eigensolve returned info=    2
 ifail= 2*0
 iclustr= 18,  55
 gap= 1.05214130800611166E-5,  2.10329517186468405E-6
   2     0.00000740125244 -21517.64283067697400   0.069703 -21517.64291231226530        
(P)DSYGVX in subroutine dense_eigensolve returned info=    2
 ifail= 2*0
 iclustr= 12,  42
 gap= 2.18605471251245341E-5,  1.19754950261467285E-5
(P)DSYGVX in subroutine dense_eigensolve returned info=    2
 ifail= 2*0
 iclustr= 8,  55
 gap= 1.6021664685404642E-5,  1.02558873406344952E-5
(P)DSYGVX in subroutine dense_eigensolve returned info=    2
 ifail= 2*0
 iclustr= 13,  42
 gap= 1.21548225140705411E-5,  3.29700412208690459E-6
(P)DSYGVX in subroutine dense_eigensolve returned info=    2
 ifail= 2*0
 iclustr= 18,  55
 gap= 1.12653184965763158E-5,  1.06336914516500101E-6
(P)DSYGVX in subroutine dense_eigensolve returned info=    2
 ifail= 2*0
 iclustr= 13,  42
 gap= 1.13548991600565901E-5,  1.05237235874103585E-6
(P)DSYGVX in subroutine dense_eigensolve returned info=    2
 ifail= 2*0
 iclustr= 18,  55
 gap= 1.06530676095342561E-5,  2.20228709634514037E-6
(P)DSYGVX in subroutine dense_eigensolve returned info=    2
 ifail= 2*0
 iclustr= 13,  42
 gap= 1.05159439449016239E-5,  1.92426446231394343E-6
(P)DSYGVX in subroutine dense_eigensolve returned info=    2
 ifail= 2*0
 iclustr= 18,  55
 gap= 1.01476762892020717E-5,  1.49287966029718219E-6
(P)DSYGVX in subroutine dense_eigensolve returned info=    2
 ifail= 2*0
 iclustr= 12,  42
 gap= 1.88945326920359952E-5,  1.14918607304396225E-5
(P)DSYGVX in subroutine dense_eigensolve returned info=    2
 ifail= 2*0
 iclustr= 15,  55
 gap= 1.28523616267271273E-5,  1.01698307609412037E-5
(P)DSYGVX in subroutine dense_eigensolve returned info=    2
 ifail= 2*0
 iclustr= 13,  42
 gap= 1.05008363078401432E-5,  2.0879093994971904E-6
(P)DSYGVX in subroutine dense_eigensolve returned info=    2
 ifail= 2*0
 iclustr= 18,  55
 gap= 1.00585234100628561E-5,  1.90047323800352489E-6
(P)DSYGVX in subroutine dense_eigensolve returned info=    2
 ifail= 2*0
 iclustr= 13,  42
 gap= 1.13785410951084542E-5,  1.02561460258950253E-6
(P)DSYGVX in subroutine dense_eigensolve returned info=    2
 ifail= 2*0
 iclustr= 18,  55
 gap= 1.01135964065781846E-5,  2.09662554033965415E-6
(P)DSYGVX in subroutine dense_eigensolve returned info=    2
 ifail= 2*0
 iclustr= 12,  42
 gap= 1.03004480179055431E-5,  1.0142186197782477E-5
(P)DSYGVX in subroutine dense_eigensolve returned info=    2
 ifail= 2*0
 iclustr= 15,  55
 gap= 1.40230904082655579E-5,  1.13457022249130677E-5
(P)DSYGVX in subroutine dense_eigensolve returned info=    2
 ifail= 2*0
 iclustr= 13,  42
 gap= 1.13107520068061119E-5,  1.05553722429018971E-6
(P)DSYGVX in subroutine dense_eigensolve returned info=    2
 ifail= 2*0
 iclustr= 18,  55
 gap= 1.01373968101928446E-5,  2.46727983395795623E-6
(P)DSYGVX in subroutine dense_eigensolve returned info=    2
 ifail= 2*0
 iclustr= 13,  42
 gap= 1.04522639869954317E-5,  1.97874491762917437E-6
(P)DSYGVX in subroutine dense_eigensolve returned info=    2
 ifail= 2*0
 iclustr= 18,  55
 gap= 1.20542443445662107E-5,  1.54047073886501488E-6
(P)DSYGVX in subroutine dense_eigensolve returned info=    2
 ifail= 2*0
 iclustr= 12,  42
 gap= 1.91440570738465491E-5,  1.0579120309990904E-5
(P)DSYGVX in subroutine dense_eigensolve returned info=    2
 ifail= 2*0
 iclustr= 15,  55
 gap= 1.10336618507833914E-5,  1.02060189562990364E-5
(P)DSYGVX in subroutine dense_eigensolve returned info=    2
 ifail= 2*0
 iclustr= 13,  42
 gap= 1.0428127620539571E-5,  2.06771565091102368E-6
(P)DSYGVX in subroutine dense_eigensolve returned info=    2
 ifail= 2*0
 iclustr= 18,  55
 gap= 1.20074381243423481E-5,  1.22735386928115432E-6
(P)DSYGVX in subroutine dense_eigensolve returned info=    2
 ifail= 2*0
 iclustr= 13,  42
 gap= 1.13822943003096934E-5,  1.02747910868896149E-6
(P)DSYGVX in subroutine dense_eigensolve returned info=    2
 ifail= 2*0
 iclustr= 18,  55
 gap= 1.24587309329597017E-5,  2.35141646552597057E-6
(P)DSYGVX in subroutine dense_eigensolve returned info=    2
 ifail= 2*0
 iclustr= 12,  42
 gap= 1.04643472350895367E-5,  1.02677649618708384E-5
(P)DSYGVX in subroutine dense_eigensolve returned info=    2
 ifail= 2*0
 iclustr= 15,  55
 gap= 1.15023715504488814E-5,  1.09477081933632228E-5
(P)DSYGVX in subroutine dense_eigensolve returned info=    2
 ifail= 2*0
 iclustr= 13,  42
 gap= 1.12279807418732633E-5,  1.05491945947815266E-6
(P)DSYGVX in subroutine dense_eigensolve returned info=    2
 ifail= 2*0
 iclustr= 18,  55
 gap= 1.24872655521141346E-5,  2.70920040478638965E-6
(P)DSYGVX in subroutine dense_eigensolve returned info=    2
 ifail= 2*0
 iclustr= 13,  42
 gap= 1.03800885549470232E-5,  1.96418233196421121E-6
(P)DSYGVX in subroutine dense_eigensolve returned info=    2
 ifail= 2*0
 iclustr= 18,  55
 gap= 1.20209235011222675E-5,  1.1996673733211276E-6
(P)DSYGVX in subroutine dense_eigensolve returned info=    2
 ifail= 2*0
 iclustr= 12,  42
 gap= 1.93755860486187828E-5,  1.0322286369556788E-5
(P)DSYGVX in subroutine dense_eigensolve returned info=    2
 ifail= 2*0
 iclustr= 15,  55
 gap= 1.80466539976060396E-5,  1.00158085643538819E-5
(P)DSYGVX in subroutine dense_eigensolve returned info=    2
 ifail= 2*0
 iclustr= 13,  42
 gap= 1.03593677092611961E-5,  2.0471959770979731E-6
(P)DSYGVX in subroutine dense_eigensolve returned info=    2
 ifail= 2*0
 iclustr= 18,  55
 gap= 1.1952051379043049E-5,  1.5161159560312418E-6
(P)DSYGVX in subroutine dense_eigensolve returned info=    2
 ifail= 2*0
 iclustr= 13,  42
 gap= 1.12586711343320208E-5,  1.02446500439146813E-6
(P)DSYGVX in subroutine dense_eigensolve returned info=    2
 ifail= 2*0
 iclustr= 18,  55
 gap= 1.24941632495878719E-5,  2.58923321156843662E-6
(P)DSYGVX in subroutine dense_eigensolve returned info=    2
 ifail= 2*0
 iclustr= 12,  42
 gap= 1.0618500416640062E-5,  1.03403673789650341E-5
(P)DSYGVX in subroutine dense_eigensolve returned info=    2
 ifail= 2*0
 iclustr= 15,  55
 gap= 2.04131376428795796E-5,  1.07563533416709586E-5
(P)DSYGVX in subroutine dense_eigensolve returned info=    2
 ifail= 2*0
 iclustr= 13,  42
 gap= 1.11168833283631543E-5,  1.05127840326982055E-6
(P)DSYGVX in subroutine dense_eigensolve returned info=    2
 ifail= 2*0
 iclustr= 18,  55
 gap= 1.24691640936747109E-5,  2.91821025963916843E-6
(P)DSYGVX in subroutine dense_eigensolve returned info=    2
 ifail= 2*0
 iclustr= 13,  42
 gap= 1.03121656813011952E-5,  1.94874835524772775E-6
(P)DSYGVX in subroutine dense_eigensolve returned info=    2
 ifail= 2*0
 iclustr= 18,  55
 gap= 1.19873946182433445E-5,  1.21937628659242297E-6
(P)DSYGVX in subroutine dense_eigensolve returned info=    2
 ifail= 2*0
 iclustr= 12,  42
 gap= 1.95762503412654722E-5,  1.00797003152581966E-5
(P)DSYGVX in subroutine dense_eigensolve returned info=    2
 ifail= 2*0
 iclustr= 15,  55
 gap= 2.0562724180585928E-5,  1.00875382496866597E-5
(P)DSYGVX in subroutine dense_eigensolve returned info=    2
 ifail= 2*0
 iclustr= 13,  42
 gap= 1.02945086627776073E-5,  2.02623479979516647E-6
(P)DSYGVX in subroutine dense_eigensolve returned info=    2
 ifail= 2*0
 iclustr= 18,  55
 gap= 1.19731647520393769E-5,  1.33119935185884835E-6
(P)DSYGVX in subroutine dense_eigensolve returned info=    2
 ifail= 2*0
 iclustr= 13,  42
 gap= 1.11456782984056438E-5,  1.02072108902447902E-6
(P)DSYGVX in subroutine dense_eigensolve returned info=    2
 ifail= 2*0
 iclustr= 18,  55
 gap= 1.24714904920366144E-5,  2.67101684335089243E-6
(P)DSYGVX in subroutine dense_eigensolve returned info=    2
 ifail= 2*0
 iclustr= 12,  42
 gap= 1.07767045537751643E-5,  1.03874837024331053E-5
(P)DSYGVX in subroutine dense_eigensolve returned info=    2
 ifail= 2*0
 iclustr= 15,  55
 gap= 1.02417785969984644E-5,  3.01740910223102007E-6
(P)DSYGVX in subroutine dense_eigensolve returned info=    2
 ifail= 2*0
 iclustr= 13,  42
 gap= 1.10151534915828899E-5,  1.04651050983783603E-6
(P)DSYGVX in subroutine dense_eigensolve returned info=    2
 ifail= 2*0
 iclustr= 18,  55
 gap= 1.24493874687269258E-5,  2.26147173524601091E-6
(P)DSYGVX in subroutine dense_eigensolve returned info=    2
 ifail= 2*0
 iclustr= 13,  42
 gap= 1.02481231576189763E-5,  1.50900871177535958E-6
(P)DSYGVX in subroutine dense_eigensolve returned info=    2
 ifail= 2*0
 iclustr= 18,  55
 gap= 1.20254712871875653E-5,  1.1962418449977661E-6
(P)DSYGVX in subroutine dense_eigensolve returned info=    2
 ifail= 2*0
 iclustr= 12,  42
 gap= 1.97407455763683957E-5,  1.01896991221084262E-5
(P)DSYGVX in subroutine dense_eigensolve returned info=    2
 ifail= 2*0
 iclustr= 15,  55
 gap= 2.16313514586423169E-5,  1.03452706876842425E-5
(P)DSYGVX in subroutine dense_eigensolve returned info=    2
 ifail= 2*0
 iclustr= 13,  42
 gap= 1.02332535185389561E-5,  1.47579077279158522E-6
(P)DSYGVX in subroutine dense_eigensolve returned info=    2
 ifail= 2*0
 iclustr= 18,  55
 gap= 1.2006906302736111E-5,  1.31091449419505525E-6
   3     0.00000362448567 -21517.64638718217610   0.028977 -21517.64639532105140        
(P)DSYGVX in subroutine dense_eigensolve returned info=    2
 ifail= 2*0
 iclustr= 13,  42
 gap= 1.0519088062051043E-5,  1.01523697210703861E-5
(P)DSYGVX in subroutine dense_eigensolve returned info=    2
 ifail= 2*0
 iclustr= 15,  55
 gap= 1.63549196457023503E-5,  1.07643511817286868E-5
(P)DSYGVX in subroutine dense_eigensolve returned info=    2
 ifail= 2*0
 iclustr= 13,  42
 gap= 1.04982088041528656E-5,  1.34308716104351189E-6
(P)DSYGVX in subroutine dense_eigensolve returned info=    2
 ifail= 2*0
 iclustr= 18,  55
 gap= 1.05517545192681226E-5,  1.44173363297274992E-6
(P)DSYGVX in subroutine dense_eigensolve returned info=    2
 ifail= 2*0
 iclustr= 13,  42
 gap= 1.09823925617109593E-5,  1.02872015605250508E-6
(P)DSYGVX in subroutine dense_eigensolve returned info=    2
 ifail= 2*0
 iclustr= 18,  55
 gap= 1.24467575907664764E-5,  1.81509456824170211E-6
(P)DSYGVX in subroutine dense_eigensolve returned info=    2
 ifail= 2*0
 iclustr= 13,  42
 gap= 1.01654991562086727E-5,  1.25085698802128085E-6
(P)DSYGVX in subroutine dense_eigensolve returned info=    2
 ifail= 2*0
 iclustr= 18,  55
 gap= 1.1892218321891526E-5,  1.19353365321985448E-6
(P)DSYGVX in subroutine dense_eigensolve returned info=    2
 ifail= 2*0
 iclustr= 12,  42
 gap= 1.94228291360656472E-5,  1.0114280944072358E-5
(P)DSYGVX in subroutine dense_eigensolve returned info=    2
 ifail= 2*0
 iclustr= 15,  55
 gap= 2.10236129166102081E-5,  1.06737677238520721E-5
(P)DSYGVX in subroutine dense_eigensolve returned info=    2
 ifail= 2*0
 iclustr= 13,  42
 gap= 1.01809048667668451E-5,  1.28448526941312229E-6
(P)DSYGVX in subroutine dense_eigensolve returned info=    2
 ifail= 2*0
 iclustr= 18,  55
 gap= 1.19910533552683957E-5,  1.37643642441122714E-6
(P)DSYGVX in subroutine dense_eigensolve returned info=    2
 ifail= 2*0
 iclustr= 13,  42
 gap= 1.07318308526542305E-5,  1.06486631934002663E-6
(P)DSYGVX in subroutine dense_eigensolve returned info=    2
 ifail= 2*0
 iclustr= 18,  55
 gap= 1.23582472341863986E-5,  1.68805346005211829E-6
(P)DSYGVX in subroutine dense_eigensolve returned info=    2
 ifail= 2*0
 iclustr= 13,  42
 gap= 1.10046574726205971E-5,  1.4031946590700659E-6
(P)DSYGVX in subroutine dense_eigensolve returned info=    2
 ifail= 2*0
 iclustr= 15,  55
 gap= 1.3937287136693644E-5,  1.07452012250025739E-5
(P)DSYGVX in subroutine dense_eigensolve returned info=    2
 ifail= 2*0
 iclustr= 13,  42
 gap= 1.0884832054080801E-5,  1.02805895750047644E-6
(P)DSYGVX in subroutine dense_eigensolve returned info=    2
 ifail= 2*0
 iclustr= 18,  55
 gap= 1.24406471227728087E-5,  1.27509145926092756E-6
(P)DSYGVX in subroutine dense_eigensolve returned info=    2
 ifail= 2*0
 iclustr= 13,  42
 gap= 1.00960099497364604E-5,  1.02869291085451935E-6
(P)DSYGVX in subroutine dense_eigensolve returned info=    2
 ifail= 2*0
 iclustr= 18,  55
 gap= 1.18239479904238115E-5,  1.62585296127897444E-6
(P)DSYGVX in subroutine dense_eigensolve returned info=    2
 ifail= 2*0
 iclustr= 12,  42
 gap= 1.95648971925069345E-5,  2.48503062331699927E-6
(P)DSYGVX in subroutine dense_eigensolve returned info=    2
 ifail= 2*0
 iclustr= 15,  55
 gap= 2.13365865470823075E-5,  1.04354933167090574E-5
(P)DSYGVX in subroutine dense_eigensolve returned info=    2
 ifail= 2*0
 iclustr= 13,  42
 gap= 1.01222890802880961E-5,  1.05694927844522722E-6
(P)DSYGVX in subroutine dense_eigensolve returned info=    2
 ifail= 2*0
 iclustr= 18,  55
 gap= 1.19218398952880805E-5,  1.3336386781805556E-6
(P)DSYGVX in subroutine dense_eigensolve returned info=    2
 ifail= 2*0
 iclustr= 13,  42
 gap= 1.06503244996890956E-5,  1.05898167715867984E-6
(P)DSYGVX in subroutine dense_eigensolve returned info=    2
 ifail= 2*0
 iclustr= 18,  55
 gap= 1.23733848097053796E-5,  1.47292800653789352E-6
(P)DSYGVX in subroutine dense_eigensolve returned info=    2
 ifail= 2*0
 iclustr= 13,  42
 gap= 1.11666137393299599E-5,  5.06663448556982062E-6
(P)DSYGVX in subroutine dense_eigensolve returned info=    2
 ifail= 2*0
 iclustr= 15,  55
 gap= 1.08175762870621532E-5,  1.00226802389958637E-5
(P)DSYGVX in subroutine dense_eigensolve returned info=    2
 ifail= 2*0
 iclustr= 13,  42
 gap= 1.07940151860794434E-5,  1.02266690421305015E-6
(P)DSYGVX in subroutine dense_eigensolve returned info=    2
 ifail= 2*0
 iclustr= 18,  55
 gap= 1.24189561183816268E-5,  1.58973088429905135E-6
(P)DSYGVX in subroutine dense_eigensolve returned info=    2
 ifail= 2*0
 iclustr= 13,  42
 gap= 1.00445819589184238E-5,  1.12919756242301648E-6
(P)DSYGVX in subroutine dense_eigensolve returned info=    2
 ifail= 2*0
 iclustr= 18,  55
 gap= 1.18159542524221787E-5,  1.62020502745128591E-6
(P)DSYGVX in subroutine dense_eigensolve returned info=    2
 ifail= 2*0
 iclustr= 13,  42
 gap= 1.97068350759650266E-5,  1.16237548473918245E-5
(P)DSYGVX in subroutine dense_eigensolve returned info=    2
 ifail= 2*0
 iclustr= 15,  55
 gap= 1.28087028132749645E-5,  1.09704718255347802E-5
(P)DSYGVX in subroutine dense_eigensolve returned info=    2
 ifail= 2*0
 iclustr= 13,  42
 gap= 1.00677292043610332E-5,  1.16059785386369101E-6
(P)DSYGVX in subroutine dense_eigensolve returned info=    2
 ifail= 2*0
 iclustr= 18,  55
 gap= 1.18761036866788577E-5,  1.40150657593246625E-6
(P)DSYGVX in subroutine dense_eigensolve returned info=    2
 ifail= 2*0
 iclustr= 13,  42
 gap= 1.05746936839311507E-5,  1.05378560818080772E-6
(P)DSYGVX in subroutine dense_eigensolve returned info=    2
 ifail= 2*0
 iclustr= 18,  55
 gap= 1.24306101293328101E-5,  1.23465238581638261E-6
(P)DSYGVX in subroutine dense_eigensolve returned info=    2
 ifail= 2*0
 iclustr= 13,  42
 gap= 1.12196174679024705E-5,  1.44078174456781689E-6
(P)DSYGVX in subroutine dense_eigensolve returned info=    2
 ifail= 2*0
 iclustr= 15,  55
 gap= 1.18375640834183642E-5,  1.96885461926743681E-6
(P)DSYGVX in subroutine dense_eigensolve returned info=    2
 ifail= 2*0
 iclustr= 13,  42
 gap= 1.07097660640902116E-5,  1.01874130468917649E-6
(P)DSYGVX in subroutine dense_eigensolve returned info=    2
 ifail= 2*0
 iclustr= 18,  55
 gap= 1.23294686572877062E-5,  1.35528683841415345E-6
(P)DSYGVX in subroutine dense_eigensolve returned info=    2
 ifail= 2*0
 iclustr= 13,  42
 gap= 2.4387062154054042E-6,  1.87350615048182115E-6
(P)DSYGVX in subroutine dense_eigensolve returned info=    2
 ifail= 2*0
 iclustr= 18,  55
 gap= 1.18180287980418754E-5,  1.43906940421815153E-6
(P)DSYGVX in subroutine dense_eigensolve returned info=    2
 ifail= 2*0
 iclustr= 13,  42
 gap= 1.98037401349596239E-5,  1.10227194255594195E-5
(P)DSYGVX in subroutine dense_eigensolve returned info=    2
 ifail= 2*0
 iclustr= 15,  55
 gap= 1.59475221293373905E-5,  1.10388336333225218E-5
(P)DSYGVX in subroutine dense_eigensolve returned info=    2
 ifail= 2*0
 iclustr= 13,  42
 gap= 1.00161818007766682E-5,  1.91299432868160986E-6
(P)DSYGVX in subroutine dense_eigensolve returned info=    2
 ifail= 2*0
 iclustr= 18,  55
 gap= 1.18476032138878722E-5,  1.29888001865971744E-6
(P)DSYGVX in subroutine dense_eigensolve returned info=    2
 ifail= 2*0
 iclustr= 13,  42
 gap= 1.0504821624950306E-5,  1.00439697604389506E-6
(P)DSYGVX in subroutine dense_eigensolve returned info=    2
 ifail= 2*0
 iclustr= 18,  55
 gap= 1.24009507303624362E-5,  1.82326353898625621E-6
(P)DSYGVX in subroutine dense_eigensolve returned info=    2
 ifail= 2*0
 iclustr= 13,  42
 gap= 1.12048892336383345E-5,  1.00119250983138181E-5
(P)DSYGVX in subroutine dense_eigensolve returned info=    2
 ifail= 2*0
 iclustr= 15,  55
 gap= 1.25761873115255105E-5,  1.03011820100145312E-5
(P)DSYGVX in subroutine dense_eigensolve returned info=    2
 ifail= 2*0
 iclustr= 13,  42
 gap= 1.06321097416538517E-5,  1.01503081312436338E-6
(P)DSYGVX in subroutine dense_eigensolve returned info=    2
 ifail= 2*0
 iclustr= 18,  55
 gap= 1.22881502431520377E-5,  1.16921803612404263E-6
(P)DSYGVX in subroutine dense_eigensolve returned info=    2
 ifail= 2*0
 iclustr= 13,  42
 gap= 2.42532653418754051E-6,  1.85532289875262106E-6
(P)DSYGVX in subroutine dense_eigensolve returned info=    2
 ifail= 2*0
 iclustr= 18,  55
 gap= 1.18287361100199026E-5,  1.25075425093605845E-6
(P)DSYGVX in subroutine dense_eigensolve returned info=    2
 ifail= 2*0
 iclustr= 13,  42
 gap= 1.98733142417404214E-5,  1.0183015924910847E-5
(P)DSYGVX in subroutine dense_eigensolve returned info=    2
 ifail= 2*0
 iclustr= 15,  55
 gap= 1.62296749759719078E-5,  1.06644822836544324E-5
(P)DSYGVX in subroutine dense_eigensolve returned info=    2
 ifail= 2*0
 iclustr= 13,  42
 gap= 2.28228915771296425E-6,  1.81589512163139004E-6
(P)DSYGVX in subroutine dense_eigensolve returned info=    2
 ifail= 2*0
 iclustr= 18,  55
 gap= 1.1832087733786161E-5,  1.18615194665773139E-6
   4     0.00000480789593 -21517.64899729691750   0.007358 -21517.64900217682590        
(P)DSYGVX in subroutine dense_eigensolve returned info=    2
 ifail= 2*0
 iclustr= 13,  42
 gap= 1.10626910111157171E-5,  1.03432230649729132E-5
(P)DSYGVX in subroutine dense_eigensolve returned info=    2
 ifail= 2*0
 iclustr= 15,  55
 gap= 1.03055540831723852E-5,  1.08384412785622989E-5
(P)DSYGVX in subroutine dense_eigensolve returned info=    2
 ifail= 2*0
 iclustr= 13,  42
 gap= 1.42496587815552508E-5,  2.05245963388063796E-6
(P)DSYGVX in subroutine dense_eigensolve returned info=    2
 ifail= 2*0
 iclustr= 18,  55
 gap= 1.25811837416520054E-5,  1.13122583644099583E-6
(P)DSYGVX in subroutine dense_eigensolve returned info=    2
 ifail= 2*0
 iclustr= 13,  42
 gap= 1.06092843305787513E-5,  2.27744483840039143E-6
(P)DSYGVX in subroutine dense_eigensolve returned info=    2
 ifail= 2*0
 iclustr= 18,  55
 gap= 1.22700330088643367E-5,  1.07005531720464098E-6
(P)DSYGVX in subroutine dense_eigensolve returned info=    2
 ifail= 2*0
 iclustr= 13,  42
 gap= 2.48794476800659385E-6,  1.86173543887960784E-6
(P)DSYGVX in subroutine dense_eigensolve returned info=    2
 ifail= 2*0
 iclustr= 18,  55
 gap= 1.18662370806674364E-5,  1.20759531077238163E-6
(P)DSYGVX in subroutine dense_eigensolve returned info=    2
 ifail= 2*0
 iclustr= 13,  42
 gap= 1.97933838643188088E-5,  1.0705473919226025E-5
(P)DSYGVX in subroutine dense_eigensolve returned info=    2
 ifail= 2*0
 iclustr= 15,  55
 gap= 1.65831744107375684E-5,  1.11575959508744425E-5
(P)DSYGVX in subroutine dense_eigensolve returned info=    2
 ifail= 2*0
 iclustr= 13,  42
 gap= 2.22866999403899712E-6,  1.79081275813118823E-6
(P)DSYGVX in subroutine dense_eigensolve returned info=    2
 ifail= 2*0
 iclustr= 18,  55
 gap= 1.18293643455998835E-5,  1.19098394260791692E-6
(P)DSYGVX in subroutine dense_eigensolve returned info=    2
 ifail= 2*0
 iclustr= 13,  42
 gap= 1.03113986064770255E-5,  1.06189046251470558E-6
(P)DSYGVX in subroutine dense_eigensolve returned info=    2
 ifail= 2*0
 iclustr= 18,  55
 gap= 1.23230025900209072E-5,  1.31759720426771526E-6
(P)DSYGVX in subroutine dense_eigensolve returned info=    2
 ifail= 2*0
 iclustr= 13,  42
 gap= 1.05420585948729062E-5,  1.05613562922744121E-5
(P)DSYGVX in subroutine dense_eigensolve returned info=    2
 ifail= 2*0
 iclustr= 18,  55
 gap= 1.11596020938122001E-5,  1.00258639192438583E-5
(P)DSYGVX in subroutine dense_eigensolve returned info=    2
 ifail= 2*0
 iclustr= 13,  42
 gap= 1.0542807624900694E-5,  2.26900634737811259E-6
(P)DSYGVX in subroutine dense_eigensolve returned info=    2
 ifail= 2*0
 iclustr= 18,  55
 gap= 1.23258247732242416E-5,  1.22248865787971273E-6
(P)DSYGVX in subroutine dense_eigensolve returned info=    2
 ifail= 2*0
 iclustr= 13,  42
 gap= 2.5161351663242203E-6,  1.85867546838810207E-6
(P)DSYGVX in subroutine dense_eigensolve returned info=    2
 ifail= 2*0
 iclustr= 18,  55
 gap= 1.18236168670943485E-5,  1.33424814745801647E-6
(P)DSYGVX in subroutine dense_eigensolve returned info=    2
 ifail= 2*0
 iclustr= 13,  42
 gap= 1.98311401852195867E-5,  1.01606477696314314E-5
(P)DSYGVX in subroutine dense_eigensolve returned info=    2
 ifail= 2*0
 iclustr= 15,  55
 gap= 1.57578500254933948E-5,  1.06694759709137283E-5
(P)DSYGVX in subroutine dense_eigensolve returned info=    2
 ifail= 2*0
 iclustr= 13,  42
 gap= 2.21467405991353792E-6,  1.77611421851372521E-6
(P)DSYGVX in subroutine dense_eigensolve returned info=    2
 ifail= 2*0
 iclustr= 18,  55
 gap= 1.18259911199167247E-5,  1.36736980907628113E-6
(P)DSYGVX in subroutine dense_eigensolve returned info=    2
 ifail= 2*0
 iclustr= 13,  42
 gap= 1.02614234963657109E-5,  1.0552443272868325E-6
(P)DSYGVX in subroutine dense_eigensolve returned info=    2
 ifail= 2*0
 iclustr= 18,  55
[...]
*    Co    128      0.00005980   0.00007205   0.00004328 *
*    Co    129      0.00005980   0.00007205   0.00004328 *
*    Co    130      0.00005980   0.00007205   0.00004328 *
*    Co    131      0.00005980   0.00007205   0.00004328 *
*    Co    132      0.00005980   0.00007205   0.00004328 *
*    Co    133      0.00005980   0.00007205   0.00004328 *
*    Co    134      0.00005980   0.00007205   0.00004328 *
*    Co    135      0.00005980   0.00007205   0.00004328 *
*    Co    136      0.00005980   0.00007205   0.00004328 *
*    Co    137      0.00005980   0.00007205   0.00004328 *
*    Co    138      0.00005980   0.00007205   0.00004328 *
*    Co    139      0.00005980   0.00007205   0.00004328 *
*    Co    140      0.00005980   0.00007205   0.00004328 *
*    Co    141      0.00005980   0.00007205   0.00004328 *
*    Co    142      0.00005980   0.00007205   0.00004328 *
*    Co    143      0.00005980   0.00007205   0.00004328 *
*    Co    144      0.00005980   0.00007205   0.00004328 *
*    Co    145      0.00005980   0.00007205   0.00004328 *
*    Co    146      0.00005980   0.00007205   0.00004328 *
*    Co    147      0.00005980   0.00007205   0.00004328 *
*                                                        *
**********************************************************
TOTAL:              0.00879012   0.01059093   0.00636227

********************* Unconstrained **********************
************************* Forces *************************
*                                                        *
* Element  Atom         Cartesian components (Eh/a)      *
* ------------------------------------------------------ *
*                       x            y            z      *
*                                                        *
*    Co      1      0.00036305   0.00026333   0.00047672 *
*    Co      2     -0.00014139  -0.00001597   0.00018109 *
*    Co      3     -0.00068020   0.00002341  -0.00033672 *
*    Co      4      0.00000662  -0.00021853   0.00023166 *
*    Co      5     -0.00032616  -0.00020679  -0.00020485 *
*    Co      6      0.00010629  -0.00020773   0.00012914 *
*    Co      7     -0.00039720  -0.00071596   0.00016760 *
*    Co      8      0.00017198  -0.00003630  -0.00007561 *
*    Co      9     -0.00027362  -0.00039360  -0.00006627 *
*    Co     10      0.00005921   0.00005767  -0.00010971 *
*    Co     11      0.00009380  -0.00047670  -0.00060023 *
*    Co     12     -0.00014853   0.00008712   0.00008687 *
*    Co     13     -0.00014103  -0.00032287  -0.00028417 *
*    Co     14      0.00063141  -0.00011536  -0.00020971 *
*    Co     15      0.00081928  -0.00012954  -0.00015180 *
*    Co     16      0.00077624  -0.00009710   0.00039647 *
*    Co     17     -0.00061291  -0.00012129  -0.00026671 *
*    Co     18     -0.00078530  -0.00015645   0.00011521 *
*    Co     19     -0.00062044  -0.00011566   0.00004949 *
*    Co     20     -0.00024040   0.00060087  -0.00004224 *
*    Co     21     -0.00018423   0.00082054  -0.00005669 *
*    Co     22      0.00040261   0.00080763  -0.00002913 *
*    Co     23     -0.00026389  -0.00058177  -0.00004300 *
*    Co     24      0.00008665  -0.00078462  -0.00007772 *
*    Co     25      0.00000221  -0.00063188  -0.00004739 *
*    Co     26     -0.00008443  -0.00024824   0.00060918 *
*    Co     27     -0.00009700  -0.00022390   0.00082928 *
*    Co     28     -0.00007087   0.00034112   0.00082047 *
*    Co     29     -0.00008472  -0.00032280  -0.00056407 *
*    Co     30     -0.00012022   0.00004588  -0.00078153 *
*    Co     31     -0.00007935   0.00001013  -0.00063924 *
*    Co     32     -0.00011445   0.00017607   0.00018259 *
*    Co     33      0.00001921  -0.00037775   0.00020748 *
*    Co     34     -0.00009434   0.00024532  -0.00029160 *
*    Co     35     -0.00014247  -0.00046019  -0.00025431 *
*    Co     36     -0.00008948   0.00023532   0.00024931 *
*    Co     37     -0.00017916  -0.00042928   0.00023577 *
*    Co     38     -0.00005344   0.00037274  -0.00031432 *
*    Co     39      0.00003340  -0.00056918  -0.00021982 *
*    Co     40      0.00019627  -0.00010423   0.00023319 *
*    Co     41      0.00019453   0.00000656  -0.00030371 *
*    Co     42     -0.00033129  -0.00013495   0.00031405 *
*    Co     43     -0.00026442  -0.00020110  -0.00039631 *
*    Co     44      0.00022540  -0.00014193   0.00030537 *
*    Co     45      0.00018483  -0.00020972  -0.00037003 *
*    Co     46     -0.00033405  -0.00006074   0.00044655 *
*    Co     47     -0.00021797   0.00003515  -0.00050845 *
*    Co     48      0.00020592   0.00015101  -0.00004313 *
*    Co     49     -0.00033890   0.00016877   0.00007335 *
*    Co     50      0.00029876  -0.00032603  -0.00008309 *
*    Co     51     -0.00045154  -0.00027125  -0.00014683 *
*    Co     52      0.00026038   0.00022171  -0.00008373 *
*    Co     53     -0.00038284   0.00020449  -0.00016655 *
*    Co     54      0.00041493  -0.00035430   0.00000746 *
*    Co     55     -0.00053675  -0.00025699   0.00010453 *
*    Co     56      0.00101082   0.00003550  -0.00051029 *
*    Co     57      0.00066074  -0.00001244  -0.00027091 *
*    Co     58      0.00072447  -0.00001332   0.00023780 *
*    Co     59      0.00100766   0.00003664   0.00055735 *
*    Co     60     -0.00071863   0.00003343  -0.00041890 *
*    Co     61     -0.00046255  -0.00001281  -0.00018479 *
*    Co     62     -0.00045236  -0.00001395   0.00015923 *
*    Co     63     -0.00076764   0.00003721   0.00047075 *
*    Co     64     -0.00051226   0.00104957   0.00002065 *
*    Co     65     -0.00027745   0.00071749  -0.00000156 *
*    Co     66      0.00024837   0.00080188  -0.00000324 *
*    Co     67      0.00061282   0.00109992   0.00002107 *
*    Co     68     -0.00036348  -0.00062921   0.00002269 *
*    Co     69     -0.00016337  -0.00038165  -0.00000031 *
*    Co     70      0.00015146  -0.00040067  -0.00000279 *
*    Co     71      0.00047445  -0.00074745   0.00002204 *
*    Co     72      0.00002759  -0.00040896   0.00085567 *
*    Co     73     -0.00000954  -0.00027178   0.00055743 *
*    Co     74     -0.00001044   0.00022028   0.00067139 *
*    Co     75      0.00002872   0.00058147   0.00099868 *
*    Co     76      0.00003009  -0.00039658  -0.00072546 *
*    Co     77     -0.00000795  -0.00019517  -0.00050719 *
*    Co     78     -0.00000847   0.00016305  -0.00055308 *
*    Co     79      0.00003134   0.00057048  -0.00092486 *
*    Co     80      0.00041781  -0.00006786   0.00049750 *
*    Co     81      0.00002023  -0.00021425   0.00024463 *
*    Co     82      0.00049770   0.00006461   0.00053433 *
*    Co     83     -0.00014069  -0.00005895   0.00002975 *
*    Co     84      0.00007396   0.00024628   0.00034708 *
*    Co     85      0.00033249  -0.00010190  -0.00047475 *
*    Co     86      0.00005203  -0.00015010  -0.00013591 *
*    Co     87      0.00042858   0.00010276  -0.00052854 *
*    Co     88     -0.00018091  -0.00005308   0.00012513 *
*    Co     89      0.00007854   0.00017494  -0.00024826 *
*    Co     90     -0.00031084  -0.00005841   0.00041581 *
*    Co     91     -0.00003944  -0.00012341   0.00010402 *
*    Co     92     -0.00041241   0.00005220   0.00047278 *
*    Co     93      0.00011463  -0.00006447  -0.00010182 *
*    Co     94     -0.00009109   0.00017539   0.00025136 *
*    Co     95     -0.00025243  -0.00006102  -0.00035281 *
*    Co     96     -0.00006302  -0.00006367  -0.00001316 *
*    Co     97     -0.00036249   0.00005796  -0.00042021 *
*    Co     98      0.00014743  -0.00005886   0.00027277 *
*    Co     99     -0.00008125   0.00010642  -0.00015437 *
*    Co    100      0.00058347   0.00049223  -0.00008374 *
*    Co    101      0.00036149   0.00008049  -0.00025444 *
*    Co    102      0.00057717   0.00053600   0.00008257 *
*    Co    103      0.00010226  -0.00011247  -0.00003100 *
*    Co    104      0.00037046   0.00008405   0.00026006 *
*    Co    105     -0.00049799   0.00033839  -0.00010320 *
*    Co    106     -0.00015795   0.00004619  -0.00015626 *
*    Co    107     -0.00050166   0.00039719   0.00010437 *
*    Co    108      0.00015296  -0.00021759  -0.00003064 *
*    Co    109     -0.00016977   0.00002694   0.00015002 *
*    Co    110      0.00044352  -0.00034404  -0.00005843 *
*    Co    111      0.00018574  -0.00009027  -0.00014853 *
*    Co    112      0.00045977  -0.00041209   0.00005734 *
*    Co    113     -0.00006841   0.00008202  -0.00003726 *
*    Co    114      0.00024478  -0.00009561   0.00017731 *
*    Co    115     -0.00030986  -0.00020324  -0.00004738 *
*    Co    116      0.00000659  -0.00004339  -0.00005396 *
*    Co    117     -0.00032269  -0.00027158   0.00004494 *
*    Co    118      0.00034763   0.00018349  -0.00003423 *
*    Co    119     -0.00003229  -0.00001646   0.00006418 *
*    Co    120     -0.00007473   0.00054110   0.00046324 *
*    Co    121     -0.00024511   0.00034600   0.00008490 *
*    Co    122      0.00007385   0.00056125   0.00052448 *
*    Co    123     -0.00004130   0.00010696  -0.00008347 *
*    Co    124      0.00026909   0.00040017   0.00010270 *
*    Co    125     -0.00006274  -0.00036588   0.00025248 *
*    Co    126     -0.00009597  -0.00003340   0.00001434 *
*    Co    127      0.00006377  -0.00040191   0.00032874 *
*    Co    128     -0.00003694   0.00025891  -0.00022487 *
*    Co    129      0.00011457  -0.00010854   0.00001185 *
*    Co    130     -0.00009222   0.00054514  -0.00041172 *
*    Co    131     -0.00018148   0.00025551  -0.00011189 *
*    Co    132      0.00009320   0.00058182  -0.00049421 *
*    Co    133     -0.00004596   0.00003303   0.00007249 *
*    Co    134      0.00022613   0.00035465  -0.00013077 *
*    Co    135     -0.00005169  -0.00032622  -0.00021753 *
*    Co    136     -0.00003952   0.00003830  -0.00003042 *
*    Co    137      0.00005424  -0.00037154  -0.00030376 *
*    Co    138     -0.00003774   0.00034815   0.00020963 *
*    Co    139      0.00007154  -0.00005417  -0.00001777 *
*    Co    140     -0.00019922   0.00013394  -0.00019205 *
*    Co    141     -0.00009031  -0.00009726  -0.00007746 *
*    Co    142     -0.00023394   0.00015978   0.00020919 *
*    Co    143     -0.00010459  -0.00010949   0.00006848 *
*    Co    144      0.00022984   0.00023418  -0.00027146 *
*    Co    145      0.00010891  -0.00017349  -0.00013346 *
*    Co    146      0.00026317   0.00026660   0.00028018 *
*    Co    147      0.00013672  -0.00020544   0.00013554 *
*                                                        *
**********************************************************
* TOTAL:           -0.00000000  -0.00000000  -0.00000000 *
**********************************************************
 
 
***********************************************************
********** Summary of Forces (values in Eh/a) *************
*                                                         *
* ---------------------- Minimum ------------------------ *
* Atom:       136, |F|min =    0.00006288                 *
* Components:     Fx|min       Fy|min       Fz|min        *
*              -0.00003952   0.00003830  -0.00003042      *
*                                                         *
* ---------------------- Maximum ------------------------ *
* Atom:        67, |F|max =    0.00125929                 *
* Components:     Fx|max       Fy|max       Fz|max        *
*               0.00061282   0.00109992   0.00002107      *
*                                                         *
* ---------------- Root Mean Square Force --------------- *
*                  |F|rms =    0.00057524                 *
* Components:     Fx|rms       Fy|rms       Fz|rms        *
*               0.00033115   0.00033754   0.00032759      *
***********************************************************
 

------------------------------ TIMING INFORMATION ------------------------------
AVERAGE TIME:   35039.142s on    147 proc(s)                                    
TOTAL TIME:     35039.149s on    147 proc(s)                                    
================= AVERAGE TIMINGS FROM ALL PROCS (CUMULATIVE) ==================
|| TAG                                    #calls    cpu time   %total  Gflops ||
|| linalg_invert_sym_matrix             :     9        0.00s   0.000%  ------ || (1 procs only)
|| sw_bessel_init_cpu                   :     1        0.02s   0.000%  ------ || (1 procs only)
|| onetep.F90 final imbalance           :     1        0.00s   0.000%  ------ ||
|| onetep.F90 main loop imbalance       :     1        0.00s   0.000%  ------ ||
|| ewald_calculate_forces_realspace     :    16        0.01s   0.000%  ------ ||
|| density_fftbox_interp_mult_imbal     : 100.1k       0.01s   0.000%  ------ ||
|| linalg_dgemv                         :    17        0.02s   0.000%  ------ ||
|| sparse_set_to_garbage                :  2244        0.05s   0.000%  ------ ||
|| ewald_calculate_energy               :    16        0.11s   0.000%  ------ ||
|| paw_tcore_density                    :    16        0.12s   0.000%  ------ ||
|| ngwfs_initialise_from_radial         :     1        0.15s   0.000%  ------ ||
|| ewald_calculate_forces_recipspace    :    16        0.17s   0.000%  ------ ||
|| sw_init                              :  7716        0.19s   0.001%  ------ ||
|| ewald_calculate_forces               :    16        0.20s   0.001%  ------ ||
|| paw_sphere_density_on_grid           :     1        0.20s   0.001%  ------ ||
|| pseudo_make_structure_factor         :    16        0.26s   0.001%  ------ ||
|| paw_tcore_hartree_on_grid            :    16        0.31s   0.001%  ------ ||
|| basis_extract_function_from_box      :  7007        0.34s   0.001%  ------ ||
|| paw_dataset_init                     :     1        1.28s   0.004%  ------ ||
|| paw_tcore_hartree_calc_forces        :    16        1.35s   0.004%  ------ ||
|| restart_hamiltonian_read             :    15        1.37s   0.004%  ------ ||
|| paw_dij_hartree                      :  5271        1.66s   0.005%  ------ ||
|| augmentation_density_forces          :    16        1.96s   0.006%  ------ ||
|| sparse_init                          :    16        2.29s   0.007%  ------ ||
|| paw_nlcc_calculate_forces            :    16        2.49s   0.007%  ------ ||
|| sparse_blacstospam3_real_fast_imbal  : 14672        3.44s   0.010%  ------ ||
|| sparse_spam3toblacs_real_fast_imbal  : 14900        3.47s   0.010%  ------ ||
|| restart_ngwfs_tightbox_input         :    15        8.36s   0.024%  ------ ||
|| energy_and_force_init_cell           :     1        8.58s   0.024%  ------ ||
|| eigenstates_calculate                :     1        9.18s   0.026%  ------ ||
|| restart_hamiltonian_write            :   131       12.69s   0.036%  ------ ||
|| paw_species_calc_proj_prec_mat       :    16       12.85s   0.037%  ------ ||
|| restart_kernel_write                 :   147       15.00s   0.043%  ------ ||
|| sparse_embed_array_hotelling_invert  :   260       17.32s   0.049%  ------ ||
|| integrals_grad_spam3                 :    16       17.84s   0.051%  ------ ||
|| nonsc_forces_ngwfs_calc              :    16       17.84s   0.051%  ------ ||
|| fourier_apply_box_pair               :  8744       19.27s   0.055%  2.629k ||
|| sparse_spam3toblacs_real_fast_B2     : 2.190M      23.12s   0.066%  ------ ||
|| fourier_filter_cell                  :  2878       24.10s   0.069% 221.882 ||
|| basis_copy_function_to_box           : 139.5k      41.13s   0.117%  ------ ||
|| hartree_on_grid_single               :  3850       46.97s   0.134%  ------ ||
|| ngwf_gradient_coeffs                 :   131       53.92s   0.154%  ------ ||
|| properties_calculate                 :     1       61.86s   0.177%  ------ ||
|| hamiltonian_energy_components        :    16       65.42s   0.187%  ------ ||
|| fourier_interpolate_cell             :  7702       72.85s   0.208% 196.459 ||
|| projectors_func_grad_ovlp_box_spam3  :    48       75.10s   0.214%  ------ ||
|| projectors_init_fftbox_recip         :   848       84.32s   0.241%  ------ ||
|| aug_nl_calculate_forces              :    16       84.49s   0.241%  ------ ||
|| sparse_trace                         : 96208       89.38s   0.255%  ------ ||
|| cell_grid_extract_box_real           : 47806       91.25s   0.260%  ------ ||
|| density_init_guess_real              :    32      138.24s   0.395%  ------ ||
|| forces_calculate                     :    16      207.61s   0.593%  ------ ||
|| fourier_apply_cell_backward          : 34786      232.26s   0.663% 250.684 ||
|| function_ops_brappd_ketppd_spam3     :   504      240.82s   0.687%  ------ ||
|| fourier_apply_cell_forward           : 34786      245.04s   0.699% 237.605 ||
|| cell_grid_deposit_box_real           : 108.2k     255.21s   0.728%  ------ ||
|| integrals_kinetic_spam3              :   260      294.79s   0.841%  ------ ||
|| restart_ngwfs_tightbox_output        :   116      349.92s   0.999%  ------ ||
|| projectors_func_ovlp_box_spam3       :   260      401.91s   1.147%  ------ ||
|| augmentation_screen_dij_spam3        :  3849      423.66s   1.209%  ------ ||
|| sparse_product                       : 88263      487.75s   1.392%  ------ ||
|| xc_energy_potential                  :  3865      544.12s   1.553%  ------ ||
|| projectors_gradient_batch            :   262      717.46s   2.048%  ------ ||
|| density_fftbox_deposit_to_cell       : 100.1k     759.54s   2.168%  ------ ||
|| sparse_spam3toblacs_real_fast_B1     : 2.190M     897.45s   2.561%  ------ ||
|| aug_density_on_grid_spam3            :  3851      935.73s   2.671%  ------ ||
|| sparse_spam3toblacs_real_fast        : 14900      971.62s   2.773%  ------ ||
|| sparse_blacstospam3_real_fast        : 14672     1189.36s   3.394%  ------ ||
|| paw_dij_xc                           :  5271     1274.90s   3.638%  ------ ||
|| aug_nonlocal_mat_spam3_embed_array   :  5124     1337.34s   3.817%  ------ ||
|| potential_apply_to_ngwf_batch        :  2616     1448.99s   4.135%  ------ ||
|| fourier_apply_box                    : 351.1k    1477.84s   4.218%  5.899k ||
|| basis_dot_function_with_box          : 64.60M    1608.88s   4.592%  ------ ||
|| dense_eigensolve                     :  7082     1627.89s   4.646%  ------ ||
|| density_fftbox_interpolate_multiply  : 100.1k    2270.36s   6.479%  ------ ||
|| edft_diag_ngwf_ham                   :  7080     2551.83s   7.283%  ------ ||
|| projectors_grad_precond_batch        :   262     2847.61s   8.127%  ------ ||
|| integrals_locpot_mat_els_batch       :  2616     2880.85s   8.222%  ------ ||
|| ngwf_gradient_build_batch            :   262     3821.46s  10.906%  ------ ||
|| density_batch_interp_deposit         :  7702     4052.15s  11.565%  ------ ||
|| edft_apply_smearing_operator         :  3540     4065.54s  11.603%  ------ ||
|| integrals_locpot_dbl_grid            :  2616     4341.25s  12.390%  ------ ||
|| basis_add_function_to_box            : 192.6M    4662.28s  13.306%  ------ ||
|| ngwf_gradient_batch                  :   262     6779.48s  19.348%  ------ ||
|| ngwf_gradient_lnv                    :   131     6842.29s  19.528%  ------ ||
|| density_batch_row_sums               :  7702     8062.93s  23.011%  ------ ||
|| density_on_dbl_grid                  :  7702    12166.91s  34.724%  ------ ||
|| hamiltonian_lhxc_calculate           :  3817    14411.82s  41.131%  ------ ||
|| edft_calculate                       :   131    23848.72s  68.063%  ------ ||
|| ngwf_cg_optimise                     :    16    34426.72s  98.252%  ------ ||
|| energy_and_forces                    :    16    34981.14s  99.834%  ------ ||
|| total_time                           :     1    35039.14s 100.000%  ------ ||
================================================================================
Overhead of generating timer report: 
- 0 ms averaging over threads,
- 14 ms ensuring consistency across MPI ranks,
- 1 ms printing in order.

Job completed: 29-12-2023 07:46 (+0000)

onetep_launcher: ONETEP seems to have finished correctly (zero exit code).
