
     Program PWSCF v.7.3 starts on 15Oct2025 at 17:14:41 

     This program is part of the open-source Quantum ESPRESSO suite
     for quantum simulation of materials; please cite
         "P. Giannozzi et al., J. Phys.:Condens. Matter 21 395502 (2009);
         "P. Giannozzi et al., J. Phys.:Condens. Matter 29 465901 (2017);
         "P. Giannozzi et al., J. Chem. Phys. 152 154105 (2020);
          URL http://www.quantum-espresso.org", 
     in publications or presentations arising from this work. More details at
     http://www.quantum-espresso.org/quote

     Parallel version (MPI), running on    24 processors

     MPI processes distributed on     1 nodes
     35330 MiB available memory on the printing compute node when the environment starts

     Reading input from ht_afm_fm_qe.scf.in
Warning: card &CELL ignored
Warning: card / ignored

     Current dimensions of program PWSCF are:
     Max number of different atomic species (ntypx) = 10
     Max number of k-points (npk) =  40000
     Max angular momentum in pseudopotentials (lmaxx) =  4
read_pp_mesh; mismatch in mesh size, discarding the one in header
read_pp_mesh; mismatch in mesh size, discarding the one in header
     file Cr.GGA-PBE-paw.UPF: wavefunction(s)  3S 4S 3P 4P 3D 4D renormalized
     file I.GGA-PBE-paw.UPF: wavefunction(s)  6S 6P renormalized

     IMPORTANT: XC functional enforced from input :
     Exchange-correlation= PBE
                           (   1   4   3   4   0   0   0)
     Any further DFT definition will be discarded
     Please, verify this is what you really want

     Message from routine setup:
     using ibrav=0 with symmetry is DISCOURAGED, use correct ibrav instead

     R & G space division:  proc/nbgrp/npool/nimage =      24
     Subspace diagonalization in iterative solution of the eigenvalue problem:
     a serial algorithm will be used


     Parallelization info
     --------------------
     sticks:   dense  smooth     PW     G-vecs:    dense   smooth      PW
     Min         179     174     46                38065    36532    5046
     Max         180     175     47                38082    36557    5059
     Sum        4303    4189   1123               913669   876961  121297

     Using Slab Decomposition



     bravais-lattice index     =            0
     lattice parameter (alat)  =      12.9956  a.u.
     unit-cell volume          =    7602.9282 (a.u.)^3
     number of atoms/cell      =           16
     number of atomic types    =            2
     number of electrons       =       140.00 (up:  76.00, down:  64.00)
     number of Kohn-Sham states=          100
     kinetic-energy cutoff     =      90.0000  Ry
     charge density cutoff     =     370.0000  Ry
     scf convergence threshold =      1.0E-11
     mixing beta               =       0.5000
     number of iterations used =            8  plain     mixing
     Exchange-correlation= PBE
                           (   1   4   3   4   0   0   0)
     Hubbard projectors: atomic
     Hubbard parameters of DFT+U (Dudarev formulation) in eV:
     U(Cr-3d) =  2.7300
     J0(Cr-3d) =  0.4800

     Internal variables: lda_plus_u =T, lda_plus_u_kind = 0

     celldm(1)=  12.995613  celldm(2)=   0.000000  celldm(3)=   0.000000
     celldm(4)=   0.000000  celldm(5)=   0.000000  celldm(6)=   0.000000

     crystal axes: (cart. coord. in units of alat)
               a(1) = (   1.000000  -0.000000   0.000000 )  
               a(2) = (  -0.500000   0.866025   0.000000 )  
               a(3) = (  -0.000000   0.000000   4.000000 )  

     reciprocal axes: (cart. coord. in units 2 pi/alat)
               b(1) = (  1.000000  0.577350  0.000000 )  
               b(2) = (  0.000000  1.154701  0.000000 )  
               b(3) = ( -0.000000 -0.000000  0.250000 )  


     PseudoPot. # 1 for Cr read from file:
     ../../Cr.GGA-PBE-paw.UPF
     MD5 check sum: 0e9dc003703e132720ff5dfacba66d28
     Pseudo is Projector augmented-wave + core cor, Zval = 14.0
     Generated using ATOMPAW code
     Shape of augmentation charge: SINC**2
     Using radial grid of 2342 points,  6 beta functions with: 
                l(1) =   0
                l(2) =   0
                l(3) =   1
                l(4) =   1
                l(5) =   2
                l(6) =   2
     Q(r) pseudized with 0 coefficients 


     PseudoPot. # 2 for I  read from file:
     ../../I.GGA-PBE-paw.UPF
     MD5 check sum: 736bb4145856fa7ed29d0984862794a4
     Pseudo is Projector augmented-wave + core cor, Zval =  7.0
     Generated using ATOMPAW code
     Shape of augmentation charge: SINC**2
     Using radial grid of 2342 points,  4 beta functions with: 
                l(1) =   0
                l(2) =   0
                l(3) =   1
                l(4) =   1
     Q(r) pseudized with 0 coefficients 


     atomic species   valence    mass     pseudopotential
     Cr               14.00    51.99610     Cr( 1.00)
     I                 7.00   126.90447     I ( 1.00)

     Starting magnetic structure 
     atomic species   magnetization
     Cr              0.214
     I               0.000

      2 Sym. Ops. (no inversion) found



   Cartesian axes

     site n.     atom                  positions (alat units)
         1        Cr     tau(   1) = (   0.8332322   0.2888117   2.2705821  )
         2        Cr     tau(   2) = (   0.3332322   0.5772137   2.2705821  )
         3        I      tau(   3) = (   0.9768883  -0.0000019   2.0450771  )
         4        I      tau(   4) = (   0.5113602   0.3087614   2.0460861  )
         5        I      tau(   5) = (   0.0113635   0.5572659   2.0460861  )
         6        I      tau(   6) = (   0.6899037  -0.0000017   2.4948790  )
         7        I      tau(   7) = (   0.6550688   0.5572240   2.4948552  )
         8        I      tau(   8) = (   0.1550716   0.3088031   2.4948552  )
         9        Cr     tau(   9) = (   0.5001000   0.2888088   1.3132553  )
        10        Cr     tau(  10) = (   0.0001000   0.5772166   1.3132554  )
        11        I      tau(  11) = (   0.6434309  -0.0000019   1.0889581  )
        12        I      tau(  12) = (   0.1782615   0.3088030   1.0889818  )
        13        I      tau(  13) = (  -0.3217352   0.5572244   1.0889818  )
        14        I      tau(  14) = (   0.3564452  -0.0000017   1.5387600  )
        15        I      tau(  15) = (   0.3219705   0.5572651   1.5377500  )
        16        I      tau(  16) = (  -0.1780267   0.3087620   1.5377500  )

     number of k points=    13
                       cart. coord. in units 2pi/alat
        k(    1) = (   0.0000000   0.0000000   0.0000000), wk =   0.0277778
        k(    2) = (   0.0000000   0.1924501   0.0000000), wk =   0.0555556
        k(    3) = (   0.0000000   0.3849002   0.0000000), wk =   0.0555556
        k(    4) = (   0.0000000  -0.5773503   0.0000000), wk =   0.0277778
        k(    5) = (   0.1666667   0.2886751   0.0000000), wk =   0.1111111
        k(    6) = (   0.1666667   0.4811252   0.0000000), wk =   0.1111111
        k(    7) = (   0.3333333   0.5773503   0.0000000), wk =   0.0555556
        k(    8) = (  -0.1666667   0.0962250   0.0000000), wk =   0.1111111
        k(    9) = (  -0.3333333   0.1924501   0.0000000), wk =   0.1111111
        k(   10) = (   0.5000000  -0.2886751   0.0000000), wk =   0.0555556
        k(   11) = (   0.3333333   0.0000000   0.0000000), wk =   0.0555556
        k(   12) = (  -0.3333333   0.3849002   0.0000000), wk =   0.1111111
        k(   13) = (   0.5000000   0.0962250   0.0000000), wk =   0.1111111

     Dense  grid:   913669 G-vectors     FFT dimensions: (  80,  80, 320)

     Smooth grid:   876961 G-vectors     FFT dimensions: (  80,  80, 320)

     Estimated max dynamical RAM per process >     475.55 MB

     Estimated total dynamical RAM >      11.15 GB
 ----2D----2D----2D----2D----2D----2D----2D----2D----2D----2D----2D----2D
  The code is running with the 2D cutoff
  Please refer to:
  Sohier, T., Calandra, M., & Mauri, F. (2017), 
  Density functional perturbation theory for gated two-dimensional heterostructures:
  Theoretical developments and application to flexural phonons in graphene.
  Physical Review B, 96(7), 75448. https://doi.org/10.1103/PhysRevB.96.075448
 ----2D----2D----2D----2D----2D----2D----2D----2D----2D----2D----2D----2D
     Generating pointlists ...
     new r_m :   0.1619 (alat units)  2.1043 (a.u.) for type    1
     new r_m :   0.1619 (alat units)  2.1043 (a.u.) for type    2
     Cannot read rho : file not found

     Initial potential from superposition of free atoms

     starting charge     139.9932, renormalised to     140.0000

     negative rho (up, down):  2.612E-02 2.659E-02

     STARTING HUBBARD OCCUPATIONS:

     =================== HUBBARD OCCUPATIONS ===================
     ------------------------ ATOM    1 ------------------------
     Tr[ns(  1)] (up, down, total) =   5.00000  0.00000  5.00000
     Atomic magnetic moment for atom   1 =   5.00000
     SPIN  1
     eigenvalues:
       1.000  1.000  1.000  1.000  1.000
     eigenvectors (columns):
       1.000  0.000  0.000  0.000  0.000
       0.000  1.000  0.000  0.000  0.000
       0.000  0.000  1.000  0.000  0.000
       0.000  0.000  0.000  1.000  0.000
       0.000  0.000  0.000  0.000  1.000
     occupation matrix ns (before diag.):
       1.000  0.000  0.000  0.000  0.000
       0.000  1.000  0.000  0.000  0.000
       0.000  0.000  1.000  0.000  0.000
       0.000  0.000  0.000  1.000  0.000
       0.000  0.000  0.000  0.000  1.000
     SPIN  2
     eigenvalues:
       0.000  0.000  0.000  0.000  0.000
     eigenvectors (columns):
       1.000  0.000  0.000  0.000  0.000
       0.000  1.000  0.000  0.000  0.000
       0.000  0.000  1.000  0.000  0.000
       0.000  0.000  0.000  1.000  0.000
       0.000  0.000  0.000  0.000  1.000
     occupation matrix ns (before diag.):
       0.000  0.000  0.000  0.000  0.000
       0.000  0.000  0.000  0.000  0.000
       0.000  0.000  0.000  0.000  0.000
       0.000  0.000  0.000  0.000  0.000
       0.000  0.000  0.000  0.000  0.000
     ------------------------ ATOM    2 ------------------------
     Tr[ns(  2)] (up, down, total) =   5.00000  0.00000  5.00000
     Atomic magnetic moment for atom   2 =   5.00000
     SPIN  1
     eigenvalues:
       1.000  1.000  1.000  1.000  1.000
     eigenvectors (columns):
       1.000  0.000  0.000  0.000  0.000
       0.000  1.000  0.000  0.000  0.000
       0.000  0.000  1.000  0.000  0.000
       0.000  0.000  0.000  1.000  0.000
       0.000  0.000  0.000  0.000  1.000
     occupation matrix ns (before diag.):
       1.000  0.000  0.000  0.000  0.000
       0.000  1.000  0.000  0.000  0.000
       0.000  0.000  1.000  0.000  0.000
       0.000  0.000  0.000  1.000  0.000
       0.000  0.000  0.000  0.000  1.000
     SPIN  2
     eigenvalues:
       0.000  0.000  0.000  0.000  0.000
     eigenvectors (columns):
       1.000  0.000  0.000  0.000  0.000
       0.000  1.000  0.000  0.000  0.000
       0.000  0.000  1.000  0.000  0.000
       0.000  0.000  0.000  1.000  0.000
       0.000  0.000  0.000  0.000  1.000
     occupation matrix ns (before diag.):
       0.000  0.000  0.000  0.000  0.000
       0.000  0.000  0.000  0.000  0.000
       0.000  0.000  0.000  0.000  0.000
       0.000  0.000  0.000  0.000  0.000
       0.000  0.000  0.000  0.000  0.000
     ------------------------ ATOM    9 ------------------------
     Tr[ns(  9)] (up, down, total) =   5.00000  0.00000  5.00000
     Atomic magnetic moment for atom   9 =   5.00000
     SPIN  1
     eigenvalues:
       1.000  1.000  1.000  1.000  1.000
     eigenvectors (columns):
       1.000  0.000  0.000  0.000  0.000
       0.000  1.000  0.000  0.000  0.000
       0.000  0.000  1.000  0.000  0.000
       0.000  0.000  0.000  1.000  0.000
       0.000  0.000  0.000  0.000  1.000
     occupation matrix ns (before diag.):
       1.000  0.000  0.000  0.000  0.000
       0.000  1.000  0.000  0.000  0.000
       0.000  0.000  1.000  0.000  0.000
       0.000  0.000  0.000  1.000  0.000
       0.000  0.000  0.000  0.000  1.000
     SPIN  2
     eigenvalues:
       0.000  0.000  0.000  0.000  0.000
     eigenvectors (columns):
       1.000  0.000  0.000  0.000  0.000
       0.000  1.000  0.000  0.000  0.000
       0.000  0.000  1.000  0.000  0.000
       0.000  0.000  0.000  1.000  0.000
       0.000  0.000  0.000  0.000  1.000
     occupation matrix ns (before diag.):
       0.000  0.000  0.000  0.000  0.000
       0.000  0.000  0.000  0.000  0.000
       0.000  0.000  0.000  0.000  0.000
       0.000  0.000  0.000  0.000  0.000
       0.000  0.000  0.000  0.000  0.000
     ------------------------ ATOM   10 ------------------------
     Tr[ns( 10)] (up, down, total) =   5.00000  0.00000  5.00000
     Atomic magnetic moment for atom  10 =   5.00000
     SPIN  1
     eigenvalues:
       1.000  1.000  1.000  1.000  1.000
     eigenvectors (columns):
       1.000  0.000  0.000  0.000  0.000
       0.000  1.000  0.000  0.000  0.000
       0.000  0.000  1.000  0.000  0.000
       0.000  0.000  0.000  1.000  0.000
       0.000  0.000  0.000  0.000  1.000
     occupation matrix ns (before diag.):
       1.000  0.000  0.000  0.000  0.000
       0.000  1.000  0.000  0.000  0.000
       0.000  0.000  1.000  0.000  0.000
       0.000  0.000  0.000  1.000  0.000
       0.000  0.000  0.000  0.000  1.000
     SPIN  2
     eigenvalues:
       0.000  0.000  0.000  0.000  0.000
     eigenvectors (columns):
       1.000  0.000  0.000  0.000  0.000
       0.000  1.000  0.000  0.000  0.000
       0.000  0.000  1.000  0.000  0.000
       0.000  0.000  0.000  1.000  0.000
       0.000  0.000  0.000  0.000  1.000
     occupation matrix ns (before diag.):
       0.000  0.000  0.000  0.000  0.000
       0.000  0.000  0.000  0.000  0.000
       0.000  0.000  0.000  0.000  0.000
       0.000  0.000  0.000  0.000  0.000
       0.000  0.000  0.000  0.000  0.000

     Number of occupied Hubbard levels =   20.0000

     Atomic wfc used for Hubbard projectors are NOT orthogonalized

     Starting wfcs are  168 atomic wfcs
     Checking if some PAW data can be deallocated... 

     total cpu time spent up to now is       30.2 secs

     Self-consistent Calculation

     iteration #  1     ecut=    90.00 Ry     beta= 0.50
     Davidson diagonalization with overlap
     ethr =  1.00E-05,  avg # of iterations =  9.3

     =================== HUBBARD OCCUPATIONS ===================
     ------------------------ ATOM    1 ------------------------
     Tr[ns(  1)] (up, down, total) =   3.97203  0.72905  4.70108
     Atomic magnetic moment for atom   1 =   3.24297
     SPIN  1
     eigenvalues:
       0.527  0.528  0.971  0.973  0.973
     eigenvectors (columns):
       0.001  0.000 -0.990 -0.143  0.001
       0.531 -0.640  0.070 -0.477  0.275
      -0.641 -0.530 -0.040  0.271  0.482
      -0.352  0.429  0.103 -0.715  0.413
      -0.428 -0.353  0.058 -0.410 -0.722
     occupation matrix ns (before diag.):
       0.971 -0.000  0.000  0.000  0.000
      -0.000  0.665  0.001  0.206  0.001
       0.000  0.001  0.665  0.000 -0.206
       0.000  0.206  0.000  0.836  0.000
       0.000  0.001 -0.206  0.000  0.836
     SPIN  2
     eigenvalues:
       0.084  0.089  0.089  0.233  0.234
     eigenvectors (columns):
       1.000  0.020 -0.010  0.001  0.000
      -0.001  0.270  0.515  0.522 -0.624
      -0.012  0.515 -0.269 -0.625 -0.521
       0.000  0.378  0.720 -0.372  0.447
       0.019 -0.720  0.379 -0.446 -0.372
     occupation matrix ns (before diag.):
       0.084  0.000 -0.000 -0.000 -0.000
       0.000  0.185  0.000 -0.068  0.000
      -0.000  0.000  0.185 -0.000  0.068
      -0.000 -0.068 -0.000  0.138 -0.000
      -0.000  0.000  0.068 -0.000  0.138
     ------------------------ ATOM    2 ------------------------
     Tr[ns(  2)] (up, down, total) =   3.97203  0.72905  4.70108
     Atomic magnetic moment for atom   2 =   3.24297
     SPIN  1
     eigenvalues:
       0.527  0.528  0.971  0.973  0.973
     eigenvectors (columns):
       0.001  0.000 -0.990 -0.143  0.001
       0.531 -0.640  0.070 -0.477  0.275
       0.641  0.530  0.040 -0.271 -0.482
      -0.352  0.429  0.103 -0.715  0.413
       0.428  0.353 -0.058  0.410  0.722
     occupation matrix ns (before diag.):
       0.971 -0.000 -0.000  0.000 -0.000
      -0.000  0.665 -0.001  0.206 -0.001
      -0.000 -0.001  0.665 -0.000 -0.206
       0.000  0.206 -0.000  0.836 -0.000
      -0.000 -0.001 -0.206 -0.000  0.836
     SPIN  2
     eigenvalues:
       0.084  0.089  0.089  0.233  0.234
     eigenvectors (columns):
      -1.000 -0.020 -0.010 -0.001 -0.000
       0.001 -0.270  0.515 -0.522  0.624
      -0.012  0.515  0.269 -0.625 -0.521
      -0.000 -0.378  0.720  0.372 -0.447
       0.019 -0.720 -0.379 -0.446 -0.372
     occupation matrix ns (before diag.):
       0.084  0.000  0.000 -0.000  0.000
       0.000  0.185 -0.000 -0.068 -0.000
       0.000 -0.000  0.185  0.000  0.068
      -0.000 -0.068  0.000  0.138  0.000
       0.000 -0.000  0.068  0.000  0.138
     ------------------------ ATOM    9 ------------------------
     Tr[ns(  9)] (up, down, total) =   3.97203  0.72906  4.70108
     Atomic magnetic moment for atom   9 =   3.24297
     SPIN  1
     eigenvalues:
       0.527  0.528  0.971  0.973  0.973
     eigenvectors (columns):
       0.001  0.000 -0.990 -0.143  0.001
       0.531 -0.640  0.070 -0.476  0.276
       0.641  0.530  0.040 -0.272 -0.482
      -0.352  0.429  0.103 -0.714  0.415
       0.427  0.353 -0.058  0.412  0.721
     occupation matrix ns (before diag.):
       0.971 -0.000 -0.000  0.000 -0.000
      -0.000  0.665 -0.001  0.206 -0.001
      -0.000 -0.001  0.665 -0.000 -0.206
       0.000  0.206 -0.000  0.836 -0.000
      -0.000 -0.001 -0.206 -0.000  0.836
     SPIN  2
     eigenvalues:
       0.084  0.089  0.089  0.233  0.234
     eigenvectors (columns):
      -1.000 -0.020 -0.010 -0.001 -0.000
       0.001 -0.271  0.514 -0.522  0.624
      -0.012  0.515  0.270 -0.624 -0.522
      -0.000 -0.379  0.720  0.372 -0.447
       0.019 -0.720 -0.380 -0.446 -0.373
     occupation matrix ns (before diag.):
       0.084  0.000  0.000 -0.000  0.000
       0.000  0.185 -0.000 -0.068 -0.000
       0.000 -0.000  0.185  0.000  0.068
      -0.000 -0.068  0.000  0.138  0.000
       0.000 -0.000  0.068  0.000  0.138
     ------------------------ ATOM   10 ------------------------
     Tr[ns( 10)] (up, down, total) =   3.97203  0.72906  4.70108
     Atomic magnetic moment for atom  10 =   3.24297
     SPIN  1
     eigenvalues:
       0.527  0.528  0.971  0.973  0.973
     eigenvectors (columns):
       0.001  0.000 -0.990 -0.143  0.001
       0.531 -0.640  0.070 -0.476  0.276
      -0.641 -0.530 -0.040  0.272  0.482
      -0.352  0.429  0.103 -0.714  0.415
      -0.427 -0.353  0.058 -0.412 -0.721
     occupation matrix ns (before diag.):
       0.971 -0.000  0.000  0.000  0.000
      -0.000  0.665  0.001  0.206  0.001
       0.000  0.001  0.665  0.000 -0.206
       0.000  0.206  0.000  0.836  0.000
       0.000  0.001 -0.206  0.000  0.836
     SPIN  2
     eigenvalues:
       0.084  0.089  0.089  0.233  0.234
     eigenvectors (columns):
       1.000  0.020 -0.010  0.001  0.000
      -0.001  0.271  0.514  0.522 -0.624
      -0.012  0.515 -0.270 -0.624 -0.522
       0.000  0.379  0.720 -0.372  0.447
       0.019 -0.720  0.380 -0.446 -0.373
     occupation matrix ns (before diag.):
       0.084  0.000 -0.000 -0.000 -0.000
       0.000  0.185  0.000 -0.068  0.000
      -0.000  0.000  0.185 -0.000  0.068
      -0.000 -0.068 -0.000  0.138 -0.000
      -0.000  0.000  0.068 -0.000  0.138

     Number of occupied Hubbard levels =   18.8043

     negative rho (up, down):  3.033E-02 3.283E-02

     total cpu time spent up to now is      203.8 secs

     total energy              =   -5537.85820766 Ry
     estimated scf accuracy    <       3.18197214 Ry

     total magnetization       =    12.00 Bohr mag/cell
     absolute magnetization    =    14.66 Bohr mag/cell

     iteration #  2     ecut=    90.00 Ry     beta= 0.50
     Davidson diagonalization with overlap
     ethr =  2.27E-03,  avg # of iterations =  4.5

     negative rho (up, down):  2.893E-02 2.967E-02

     total cpu time spent up to now is      273.4 secs

     total energy              =   -5532.46987958 Ry
     estimated scf accuracy    <      65.49769534 Ry

     total magnetization       =    12.00 Bohr mag/cell
     absolute magnetization    =    12.07 Bohr mag/cell

     iteration #  3     ecut=    90.00 Ry     beta= 0.50
     Davidson diagonalization with overlap
     ethr =  2.27E-03,  avg # of iterations =  2.8

     negative rho (up, down):  2.985E-02 3.190E-02

     total cpu time spent up to now is      328.6 secs

     total energy              =   -5539.62504008 Ry
     estimated scf accuracy    <       0.90965779 Ry

     total magnetization       =    12.00 Bohr mag/cell
     absolute magnetization    =    15.29 Bohr mag/cell

     iteration #  4     ecut=    90.00 Ry     beta= 0.50
     Davidson diagonalization with overlap
     ethr =  6.50E-04,  avg # of iterations =  1.7

     negative rho (up, down):  2.972E-02 3.333E-02

     total cpu time spent up to now is      370.5 secs

     total energy              =   -5539.66624508 Ry
     estimated scf accuracy    <       0.16567283 Ry

     total magnetization       =    12.00 Bohr mag/cell
     absolute magnetization    =    15.62 Bohr mag/cell

     iteration #  5     ecut=    90.00 Ry     beta= 0.50
     Davidson diagonalization with overlap
     ethr =  1.18E-04,  avg # of iterations =  4.2

     negative rho (up, down):  2.912E-02 3.391E-02

     total cpu time spent up to now is      420.1 secs

     total energy              =   -5539.69111922 Ry
     estimated scf accuracy    <       0.01780549 Ry

     total magnetization       =    12.00 Bohr mag/cell
     absolute magnetization    =    15.99 Bohr mag/cell

     iteration #  6     ecut=    90.00 Ry     beta= 0.50
     Davidson diagonalization with overlap
     ethr =  1.27E-05,  avg # of iterations =  7.4

     negative rho (up, down):  2.752E-02 3.525E-02

     total cpu time spent up to now is      490.9 secs

     total energy              =   -5539.69862963 Ry
     estimated scf accuracy    <       0.02045094 Ry

     total magnetization       =    12.00 Bohr mag/cell
     absolute magnetization    =    16.23 Bohr mag/cell

     iteration #  7     ecut=    90.00 Ry     beta= 0.50
     Davidson diagonalization with overlap
     ethr =  1.27E-05,  avg # of iterations =  5.7

     negative rho (up, down):  2.758E-02 3.539E-02

     total cpu time spent up to now is      546.7 secs

     total energy              =   -5539.70263366 Ry
     estimated scf accuracy    <       0.00193922 Ry

     total magnetization       =    12.00 Bohr mag/cell
     absolute magnetization    =    16.70 Bohr mag/cell

     iteration #  8     ecut=    90.00 Ry     beta= 0.50
     Davidson diagonalization with overlap
     ethr =  1.39E-06,  avg # of iterations =  4.3

     negative rho (up, down):  2.750E-02 3.545E-02

     total cpu time spent up to now is      599.1 secs

     total energy              =   -5539.70291529 Ry
     estimated scf accuracy    <       0.00023927 Ry

     total magnetization       =    12.00 Bohr mag/cell
     absolute magnetization    =    16.67 Bohr mag/cell

     iteration #  9     ecut=    90.00 Ry     beta= 0.50
     Davidson diagonalization with overlap
     ethr =  1.71E-07,  avg # of iterations =  6.3

     negative rho (up, down):  2.740E-02 3.550E-02

     total cpu time spent up to now is      659.4 secs

     total energy              =   -5539.70295092 Ry
     estimated scf accuracy    <       0.00030647 Ry

     total magnetization       =    12.00 Bohr mag/cell
     absolute magnetization    =    16.67 Bohr mag/cell

     iteration # 10     ecut=    90.00 Ry     beta= 0.50
     Davidson diagonalization with overlap
     ethr =  1.71E-07,  avg # of iterations =  3.9

     negative rho (up, down):  2.724E-02 3.556E-02

     total cpu time spent up to now is      706.5 secs

     total energy              =   -5539.70301822 Ry
     estimated scf accuracy    <       0.00002392 Ry

     total magnetization       =    12.00 Bohr mag/cell
     absolute magnetization    =    16.67 Bohr mag/cell

     iteration # 11     ecut=    90.00 Ry     beta= 0.50
     Davidson diagonalization with overlap
     ethr =  1.71E-08,  avg # of iterations =  3.7

     negative rho (up, down):  2.718E-02 3.560E-02

     total cpu time spent up to now is      762.1 secs

     total energy              =   -5539.70302432 Ry
     estimated scf accuracy    <       0.00001733 Ry

     total magnetization       =    12.00 Bohr mag/cell
     absolute magnetization    =    16.70 Bohr mag/cell

     iteration # 12     ecut=    90.00 Ry     beta= 0.50
     Davidson diagonalization with overlap
     ethr =  1.24E-08,  avg # of iterations =  2.1

     negative rho (up, down):  2.706E-02 3.565E-02

     total cpu time spent up to now is      808.5 secs

     total energy              =   -5539.70303286 Ry
     estimated scf accuracy    <       0.00001442 Ry

     total magnetization       =    12.00 Bohr mag/cell
     absolute magnetization    =    16.72 Bohr mag/cell

     iteration # 13     ecut=    90.00 Ry     beta= 0.50
     Davidson diagonalization with overlap
     ethr =  1.03E-08,  avg # of iterations =  1.5

     negative rho (up, down):  2.707E-02 3.566E-02

     total cpu time spent up to now is      849.9 secs

     total energy              =   -5539.70303648 Ry
     estimated scf accuracy    <       0.00000252 Ry

     total magnetization       =    12.00 Bohr mag/cell
     absolute magnetization    =    16.74 Bohr mag/cell

     iteration # 14     ecut=    90.00 Ry     beta= 0.50
     Davidson diagonalization with overlap
     ethr =  1.80E-09,  avg # of iterations =  2.6

     negative rho (up, down):  2.702E-02 3.570E-02

     total cpu time spent up to now is      896.3 secs

     total energy              =   -5539.70303728 Ry
     estimated scf accuracy    <       0.00000066 Ry

     total magnetization       =    12.00 Bohr mag/cell
     absolute magnetization    =    16.74 Bohr mag/cell

     iteration # 15     ecut=    90.00 Ry     beta= 0.50
     Davidson diagonalization with overlap
     ethr =  4.68E-10,  avg # of iterations =  2.8

     negative rho (up, down):  2.702E-02 3.570E-02

     total cpu time spent up to now is      947.5 secs

     total energy              =   -5539.70303805 Ry
     estimated scf accuracy    <       0.00000012 Ry

     total magnetization       =    12.00 Bohr mag/cell
     absolute magnetization    =    16.75 Bohr mag/cell

     iteration # 16     ecut=    90.00 Ry     beta= 0.50
     Davidson diagonalization with overlap
     ethr =  8.27E-11,  avg # of iterations =  3.0

     negative rho (up, down):  2.703E-02 3.571E-02

     total cpu time spent up to now is      994.7 secs

     total energy              =   -5539.70303809 Ry
     estimated scf accuracy    <       0.00000007 Ry

     total magnetization       =    12.00 Bohr mag/cell
     absolute magnetization    =    16.75 Bohr mag/cell

     iteration # 17     ecut=    90.00 Ry     beta= 0.50
     Davidson diagonalization with overlap
     ethr =  4.93E-11,  avg # of iterations =  2.0

     negative rho (up, down):  2.703E-02 3.571E-02

     total cpu time spent up to now is     1037.7 secs

     total energy              =   -5539.70303811 Ry
     estimated scf accuracy    <       0.00000001 Ry

     total magnetization       =    12.00 Bohr mag/cell
     absolute magnetization    =    16.75 Bohr mag/cell

     iteration # 18     ecut=    90.00 Ry     beta= 0.50
     Davidson diagonalization with overlap
     ethr =  7.72E-12,  avg # of iterations =  3.8

     negative rho (up, down):  2.703E-02 3.571E-02

     total cpu time spent up to now is     1095.2 secs

     total energy              =   -5539.70303811 Ry
     estimated scf accuracy    <          3.1E-10 Ry

     total magnetization       =    12.00 Bohr mag/cell
     absolute magnetization    =    16.75 Bohr mag/cell

     iteration # 19     ecut=    90.00 Ry     beta= 0.50
     Davidson diagonalization with overlap
     ethr =  2.21E-13,  avg # of iterations =  4.0

     negative rho (up, down):  2.703E-02 3.571E-02

     total cpu time spent up to now is     1157.8 secs

     total energy              =   -5539.70303811 Ry
     estimated scf accuracy    <          2.9E-11 Ry

     total magnetization       =    12.00 Bohr mag/cell
     absolute magnetization    =    16.75 Bohr mag/cell

     iteration # 20     ecut=    90.00 Ry     beta= 0.50
     Davidson diagonalization with overlap
     ethr =  1.00E-13,  avg # of iterations =  2.0

     negative rho (up, down):  2.703E-02 3.571E-02

     total cpu time spent up to now is     1201.4 secs

     total energy              =   -5539.70303811 Ry
     estimated scf accuracy    <          2.2E-11 Ry

     total magnetization       =    12.00 Bohr mag/cell
     absolute magnetization    =    16.75 Bohr mag/cell

     iteration # 21     ecut=    90.00 Ry     beta= 0.50
     Davidson diagonalization with overlap
     ethr =  1.00E-13,  avg # of iterations =  1.0

     negative rho (up, down):  2.703E-02 3.571E-02

     total cpu time spent up to now is     1241.7 secs

     total energy              =   -5539.70303811 Ry
     estimated scf accuracy    <          1.8E-11 Ry

     total magnetization       =    12.00 Bohr mag/cell
     absolute magnetization    =    16.75 Bohr mag/cell

     iteration # 22     ecut=    90.00 Ry     beta= 0.50
     Davidson diagonalization with overlap
     ethr =  1.00E-13,  avg # of iterations =  1.0

     negative rho (up, down):  2.703E-02 3.571E-02

     Magnetic moment per site  (integrated on atomic sphere of radius R)
     atom   1 (R=0.162)  charge= 12.3975  magn=  3.2486
     atom   2 (R=0.162)  charge= 12.3975  magn=  3.2486
     atom   3 (R=0.162)  charge=  4.0435  magn= -0.1281
     atom   4 (R=0.162)  charge=  4.0443  magn= -0.1292
     atom   5 (R=0.162)  charge=  4.0443  magn= -0.1292
     atom   6 (R=0.162)  charge=  4.0461  magn= -0.1258
     atom   7 (R=0.162)  charge=  4.0458  magn= -0.1269
     atom   8 (R=0.162)  charge=  4.0458  magn= -0.1269
     atom   9 (R=0.162)  charge= 12.3973  magn=  3.2486
     atom  10 (R=0.162)  charge= 12.3973  magn=  3.2486
     atom  11 (R=0.162)  charge=  4.0460  magn= -0.1258
     atom  12 (R=0.162)  charge=  4.0457  magn= -0.1269
     atom  13 (R=0.162)  charge=  4.0457  magn= -0.1269
     atom  14 (R=0.162)  charge=  4.0434  magn= -0.1281
     atom  15 (R=0.162)  charge=  4.0443  magn= -0.1292
     atom  16 (R=0.162)  charge=  4.0443  magn= -0.1292

     total cpu time spent up to now is     1282.1 secs

     End of self-consistent calculation

     =================== HUBBARD OCCUPATIONS ===================
     ------------------------ ATOM    1 ------------------------
     Tr[ns(  1)] (up, down, total) =   4.39434  1.07696  5.47130
     Atomic magnetic moment for atom   1 =   3.31737
     SPIN  1
     eigenvalues:
       0.705  0.708  0.994  0.994  0.994
     eigenvectors (columns):
      -0.003 -0.001 -0.994  0.105 -0.026
      -0.439  0.696  0.062  0.522 -0.217
       0.697  0.438 -0.011 -0.215 -0.526
       0.301 -0.482  0.087  0.756 -0.313
       0.480  0.303  0.012  0.316  0.760
     occupation matrix ns (before diag.):
       0.994 -0.000  0.001  0.000  0.000
      -0.000  0.800  0.001  0.134  0.001
       0.001  0.001  0.799 -0.000 -0.135
       0.000  0.134 -0.000  0.901  0.000
       0.000  0.001 -0.135  0.000  0.901
     SPIN  2
     eigenvalues:
       0.101  0.107  0.108  0.380  0.381
     eigenvectors (columns):
       0.999  0.030 -0.014  0.002  0.000
      -0.002  0.277  0.502  0.518 -0.635
      -0.017  0.503 -0.275 -0.636 -0.517
      -0.002  0.394  0.718 -0.361  0.446
       0.028 -0.717  0.395 -0.444 -0.362
     occupation matrix ns (before diag.):
       0.101  0.000 -0.000 -0.000 -0.000
       0.000  0.291 -0.000 -0.128  0.000
      -0.000 -0.000  0.291 -0.000  0.128
      -0.000 -0.128 -0.000  0.197 -0.000
      -0.000  0.000  0.128 -0.000  0.197
     ------------------------ ATOM    2 ------------------------
     Tr[ns(  2)] (up, down, total) =   4.39434  1.07696  5.47130
     Atomic magnetic moment for atom   2 =   3.31737
     SPIN  1
     eigenvalues:
       0.705  0.708  0.994  0.994  0.994
     eigenvectors (columns):
      -0.003 -0.001 -0.994 -0.105  0.026
      -0.439  0.696  0.062 -0.522  0.217
      -0.697 -0.438  0.011 -0.215 -0.526
       0.301 -0.482  0.087 -0.756  0.313
      -0.480 -0.303 -0.012  0.316  0.760
     occupation matrix ns (before diag.):
       0.994 -0.000 -0.001  0.000 -0.000
      -0.000  0.800 -0.001  0.134 -0.001
      -0.001 -0.001  0.799  0.000 -0.135
       0.000  0.134  0.000  0.901 -0.000
      -0.000 -0.001 -0.135 -0.000  0.901
     SPIN  2
     eigenvalues:
       0.101  0.107  0.108  0.380  0.381
     eigenvectors (columns):
      -0.999 -0.030 -0.014 -0.002 -0.000
       0.002 -0.277  0.502 -0.518  0.635
      -0.017  0.503  0.275 -0.636 -0.517
       0.002 -0.394  0.718  0.361 -0.446
       0.028 -0.717 -0.395 -0.444 -0.362
     occupation matrix ns (before diag.):
       0.101  0.000  0.000 -0.000  0.000
       0.000  0.291  0.000 -0.128 -0.000
       0.000  0.000  0.291  0.000  0.128
      -0.000 -0.128  0.000  0.197  0.000
       0.000 -0.000  0.128  0.000  0.197
     ------------------------ ATOM    9 ------------------------
     Tr[ns(  9)] (up, down, total) =   4.39434  1.07697  5.47130
     Atomic magnetic moment for atom   9 =   3.31737
     SPIN  1
     eigenvalues:
       0.705  0.708  0.994  0.994  0.994
     eigenvectors (columns):
      -0.003 -0.001 -0.994 -0.105  0.026
      -0.439  0.696  0.062 -0.521  0.218
      -0.697 -0.437  0.011 -0.215 -0.526
       0.301 -0.482  0.087 -0.756  0.314
      -0.481 -0.303 -0.012  0.316  0.760
     occupation matrix ns (before diag.):
       0.994 -0.000 -0.001  0.000 -0.000
      -0.000  0.800 -0.001  0.134 -0.001
      -0.001 -0.001  0.799  0.000 -0.135
       0.000  0.134  0.000  0.901 -0.000
      -0.000 -0.001 -0.135 -0.000  0.901
     SPIN  2
     eigenvalues:
       0.101  0.107  0.108  0.380  0.381
     eigenvectors (columns):
      -0.999 -0.030 -0.014 -0.002 -0.000
       0.002 -0.277  0.502 -0.519  0.634
      -0.017  0.502  0.276 -0.635 -0.518
       0.001 -0.396  0.717  0.361 -0.445
       0.028 -0.716 -0.396 -0.444 -0.363
     occupation matrix ns (before diag.):
       0.101  0.000  0.000 -0.000  0.000
       0.000  0.291  0.000 -0.128 -0.000
       0.000  0.000  0.291  0.000  0.128
      -0.000 -0.128  0.000  0.197  0.000
       0.000 -0.000  0.128  0.000  0.197
     ------------------------ ATOM   10 ------------------------
     Tr[ns( 10)] (up, down, total) =   4.39434  1.07697  5.47130
     Atomic magnetic moment for atom  10 =   3.31737
     SPIN  1
     eigenvalues:
       0.705  0.708  0.994  0.994  0.994
     eigenvectors (columns):
      -0.003 -0.001 -0.994  0.105 -0.026
      -0.439  0.696  0.062  0.521 -0.218
       0.697  0.437 -0.011 -0.215 -0.526
       0.301 -0.482  0.087  0.756 -0.314
       0.481  0.303  0.012  0.316  0.760
     occupation matrix ns (before diag.):
       0.994 -0.000  0.001  0.000  0.000
      -0.000  0.800  0.001  0.134  0.001
       0.001  0.001  0.799 -0.000 -0.135
       0.000  0.134 -0.000  0.901  0.000
       0.000  0.001 -0.135  0.000  0.901
     SPIN  2
     eigenvalues:
       0.101  0.107  0.108  0.380  0.381
     eigenvectors (columns):
       0.999  0.030 -0.014  0.002  0.000
      -0.002  0.277  0.502  0.519 -0.634
      -0.017  0.502 -0.276 -0.635 -0.518
      -0.001  0.396  0.717 -0.361  0.445
       0.028 -0.716  0.396 -0.444 -0.363
     occupation matrix ns (before diag.):
       0.101  0.000 -0.000 -0.000 -0.000
       0.000  0.291 -0.000 -0.128  0.000
      -0.000 -0.000  0.291 -0.000  0.128
      -0.000 -0.128 -0.000  0.197 -0.000
      -0.000  0.000  0.128 -0.000  0.197

     Number of occupied Hubbard levels =   21.8852

 ------ SPIN UP ------------


          k = 0.0000 0.0000 0.0000 (109591 PWs)   bands (ev):

   -78.4440 -78.4440 -78.4430 -78.4430 -49.7818 -49.7818 -49.7805 -49.7805
   -49.7759 -49.7759 -49.7753 -49.7753 -49.7725 -49.7725 -49.7719 -49.7719
   -18.5579 -18.4694 -17.7262 -17.6002 -17.4311 -17.4299 -17.4276 -17.4252
   -17.3078 -17.3071 -17.3045 -17.3032 -10.4499 -10.4494 -10.2676  -9.8631
    -9.6296  -9.6258  -9.5523  -9.5484  -9.4976  -9.4928  -9.4598  -9.4560
    -8.8146  -8.8080  -8.6706  -8.6355  -8.6299  -8.6146  -8.5224  -8.5075
    -8.1245  -8.1171  -8.1001  -8.0987  -7.7909  -7.7908  -7.4988  -7.4984
    -7.4541  -7.4532  -7.2771  -7.1754  -7.0878  -6.9593  -6.9070  -6.8889
    -6.8796  -6.7518  -6.7323  -6.3296  -6.3254  -6.1978  -6.1938  -6.0346
    -5.7038  -5.6857  -5.6484  -5.6295  -4.5553  -4.5550  -4.5012  -4.4791
    -4.0835  -4.0557  -4.0382  -4.0034  -0.7528  -0.7510  -0.5769  -0.1525
    -0.0069   0.0088   0.6614   0.6641   0.9165   0.9459   1.3124   1.3480
     1.4626   1.5355   1.8035   1.8091

          k = 0.0000 0.1925 0.0000 (109722 PWs)   bands (ev):

   -78.4441 -78.4441 -78.4430 -78.4430 -49.7818 -49.7818 -49.7805 -49.7805
   -49.7759 -49.7759 -49.7751 -49.7751 -49.7727 -49.7727 -49.7718 -49.7718
   -18.4980 -18.4110 -17.6960 -17.5746 -17.5171 -17.4996 -17.4534 -17.4454
   -17.3274 -17.3252 -17.3088 -17.3023 -10.4262 -10.4102 -10.2058  -9.8540
    -9.7262  -9.6772  -9.6158  -9.5768  -9.4401  -9.4041  -9.3197  -9.3158
    -8.8200  -8.8006  -8.7231  -8.6647  -8.6480  -8.6181  -8.3698  -8.3095
    -8.1127  -8.0903  -7.9821  -7.9734  -7.8920  -7.8867  -7.7145  -7.6924
    -7.4385  -7.4277  -7.2105  -7.0477  -7.0351  -6.9974  -6.9922  -6.8831
    -6.7753  -6.7189  -6.6560  -6.3515  -6.2827  -6.2586  -6.1625  -6.0981
    -5.9139  -5.7759  -5.7444  -5.6601  -4.5865  -4.5446  -4.4827  -4.4101
    -4.2491  -4.2151  -4.1244  -4.0493  -0.7557  -0.6685  -0.2358   0.2029
     0.2759   0.3491   0.4692   0.5165   0.8453   1.0675   1.2126   1.3518
     1.5446   1.6310   1.7004   1.8487

          k = 0.0000 0.3849 0.0000 (109616 PWs)   bands (ev):

   -78.4442 -78.4442 -78.4431 -78.4431 -49.7817 -49.7817 -49.7806 -49.7806
   -49.7760 -49.7760 -49.7746 -49.7746 -49.7732 -49.7732 -49.7716 -49.7716
   -18.3363 -18.2534 -17.7247 -17.6860 -17.6149 -17.5052 -17.4957 -17.4761
   -17.3850 -17.3580 -17.3307 -17.3298 -10.4544 -10.3724 -10.0245  -9.8011
    -9.7188  -9.5943  -9.5329  -9.4460  -9.3972  -9.2877  -9.1960  -9.1910
    -8.9061  -8.8263  -8.7496  -8.6768  -8.6431  -8.5965  -8.3996  -8.3627
    -8.0626  -8.0265  -8.0174  -8.0103  -7.8972  -7.8909  -7.6652  -7.6636
    -7.4190  -7.3487  -7.2856  -7.2222  -7.1872  -7.0679  -6.9114  -6.7436
    -6.6816  -6.6156  -6.4339  -6.3645  -6.3135  -6.3030  -6.2528  -6.1984
    -6.1969  -5.8562  -5.8296  -5.6991  -4.5730  -4.5722  -4.4730  -4.4026
    -4.2876  -4.2843  -4.2428  -4.1895  -1.0189  -0.6411   0.0386   0.0683
     0.4553   0.4803   0.7382   0.9227   0.9584   1.0306   1.0714   1.0796
     1.3380   1.3710   1.4830   1.5170

          k = 0.0000-0.5774 0.0000 (109602 PWs)   bands (ev):

   -78.4442 -78.4442 -78.4432 -78.4432 -49.7817 -49.7817 -49.7807 -49.7806
   -49.7760 -49.7760 -49.7741 -49.7741 -49.7736 -49.7736 -49.7716 -49.7716
   -18.1901 -18.1090 -17.8924 -17.8447 -17.5318 -17.5146 -17.4997 -17.4483
   -17.4294 -17.4046 -17.3570 -17.3428 -10.4958 -10.3903  -9.8798  -9.6960
    -9.6819  -9.5943  -9.3665  -9.2726  -9.2148  -9.2142  -9.1922  -9.1426
    -9.0031  -8.8994  -8.8329  -8.8162  -8.6265  -8.5890  -8.4842  -8.4773
    -8.2715  -8.1794  -8.0636  -8.0289  -7.8192  -7.8079  -7.4910  -7.4427
    -7.3577  -7.3493  -7.3350  -7.2782  -7.2748  -7.1627  -6.7855  -6.6574
    -6.6199  -6.5643  -6.5139  -6.4833  -6.3869  -6.3794  -6.2866  -6.1696
    -6.0055  -6.0034  -5.8769  -5.6498  -4.5860  -4.5802  -4.4682  -4.3655
    -4.3168  -4.2896  -4.2609  -4.1614  -1.2657  -0.8378   0.0735   0.0984
     0.1455   0.4431   0.6436   0.6863   0.8944   1.1614   1.1730   1.1779
     1.3435   1.3639   1.4527   1.4633

          k = 0.1667 0.2887 0.0000 (109615 PWs)   bands (ev):

   -78.4441 -78.4441 -78.4431 -78.4431 -49.7818 -49.7818 -49.7806 -49.7806
   -49.7760 -49.7759 -49.7750 -49.7747 -49.7730 -49.7728 -49.7718 -49.7717
   -18.3851 -18.3021 -17.6499 -17.6407 -17.6223 -17.5259 -17.5017 -17.4873
   -17.3603 -17.3498 -17.3201 -17.3172 -10.3732 -10.3135 -10.1176  -9.9315
    -9.8218  -9.6628  -9.5007  -9.4534  -9.3864  -9.3529  -9.2396  -9.1598
    -8.8862  -8.8114  -8.7788  -8.7593  -8.5590  -8.5524  -8.3052  -8.2662
    -8.0885  -8.0536  -8.0086  -7.9937  -7.9052  -7.8579  -7.7807  -7.7532
    -7.3952  -7.3714  -7.2989  -7.2305  -7.0677  -6.9529  -6.8829  -6.8696
    -6.7372  -6.6693  -6.4998  -6.3548  -6.3208  -6.2409  -6.2190  -6.1686
    -6.1384  -5.8202  -5.8084  -5.7185  -4.5878  -4.5490  -4.4921  -4.4174
    -4.3340  -4.3140  -4.1499  -4.0801  -0.8342  -0.6269  -0.2094  -0.0333
     0.3860   0.5348   0.6270   0.7720   1.0423   1.0814   1.1275   1.2728
     1.3790   1.4796   1.5570   1.5884

          k = 0.1667 0.4811 0.0000 (109606 PWs)   bands (ev):

   -78.4442 -78.4442 -78.4432 -78.4432 -49.7817 -49.7817 -49.7806 -49.7806
   -49.7760 -49.7759 -49.7744 -49.7742 -49.7736 -49.7733 -49.7716 -49.7716
   -18.2013 -18.1229 -17.8485 -17.8129 -17.5548 -17.5508 -17.5264 -17.4505
   -17.4216 -17.3871 -17.3513 -17.3387 -10.3364 -10.2414  -9.9247  -9.8856
    -9.7308  -9.6770  -9.3917  -9.3157  -9.2859  -9.2583  -9.2313  -9.1594
    -9.0559  -8.9700  -8.7049  -8.6885  -8.6584  -8.6032  -8.3700  -8.3350
    -8.1892  -8.1392  -7.9866  -7.9558  -7.8997  -7.8827  -7.6656  -7.6304
    -7.5042  -7.4424  -7.2195  -7.1785  -7.0623  -7.0168  -6.8806  -6.7613
    -6.6558  -6.6060  -6.5860  -6.4896  -6.3673  -6.2658  -6.2082  -6.1695
    -6.1045  -5.9258  -5.8347  -5.6780  -4.6132  -4.5108  -4.4697  -4.3632
    -4.2997  -4.2492  -4.1692  -4.1321  -1.0922  -0.7531  -0.5099  -0.2887
     0.2391   0.4488   0.5572   0.6574   0.8332   0.8558   0.8794   1.0808
     1.1453   1.2516   1.3753   1.4797

          k = 0.3333 0.5774 0.0000 (109542 PWs)   bands (ev):

   -78.4442 -78.4442 -78.4432 -78.4432 -49.7817 -49.7817 -49.7807 -49.7806
   -49.7759 -49.7759 -49.7743 -49.7743 -49.7734 -49.7734 -49.7716 -49.7716
   -18.0277 -18.0068 -17.9637 -17.9525 -17.6003 -17.5756 -17.4782 -17.4616
   -17.4221 -17.3901 -17.3698 -17.3555  -9.9919  -9.9812  -9.9507  -9.9130
    -9.8923  -9.8355  -9.4736  -9.4133  -9.2491  -9.2241  -9.1764  -9.1712
    -9.1499  -9.0674  -8.7552  -8.6814  -8.6612  -8.6568  -8.1209  -8.1131
    -8.1037  -8.0906  -8.0384  -8.0381  -8.0292  -7.8800  -7.6865  -7.6664
    -7.6485  -7.6265  -7.0618  -7.0305  -6.9546  -6.9541  -6.9086  -6.8214
    -6.7900  -6.6988  -6.6323  -6.5017  -6.3313  -6.2427  -6.1848  -6.1651
    -5.9901  -5.9562  -5.8277  -5.6909  -4.6033  -4.4579  -4.4531  -4.2810
    -4.2737  -4.2451  -4.1205  -4.0433  -0.9997  -0.9316  -0.7378  -0.6756
     0.1590   0.2437   0.2624   0.4562   0.5009   0.6264   0.8271   0.8595
     1.0055   1.1025   1.2451   1.2783

          k =-0.1667 0.0962 0.0000 (109722 PWs)   bands (ev):

   -78.4441 -78.4441 -78.4430 -78.4430 -49.7818 -49.7818 -49.7805 -49.7805
   -49.7759 -49.7758 -49.7753 -49.7752 -49.7726 -49.7725 -49.7720 -49.7719
   -18.4975 -18.4110 -17.6959 -17.5752 -17.5247 -17.4953 -17.4559 -17.4401
   -17.3301 -17.3225 -17.3076 -17.3029 -10.4542 -10.3776 -10.2061  -9.8601
    -9.7136  -9.6808  -9.6198  -9.5794  -9.4443  -9.3971  -9.3560  -9.2842
    -8.8365  -8.7816  -8.7116  -8.6944  -8.6210  -8.6130  -8.3743  -8.3251
    -8.1168  -8.0992  -8.0116  -7.9240  -7.8933  -7.8771  -7.7630  -7.6418
    -7.4486  -7.4137  -7.2241  -7.1214  -7.0430  -6.9963  -6.8848  -6.8710
    -6.7871  -6.7349  -6.6576  -6.3568  -6.3352  -6.2180  -6.1665  -6.0991
    -5.8924  -5.7832  -5.7319  -5.6784  -4.5905  -4.5545  -4.4566  -4.4202
    -4.2528  -4.2028  -4.1206  -4.0609  -0.8428  -0.5560  -0.2402   0.1185
     0.2810   0.4059   0.4827   0.5192   0.8298   1.1019   1.1499   1.3661
     1.4914   1.6620   1.7555   1.8540

          k =-0.3333 0.1925 0.0000 (109616 PWs)   bands (ev):

   -78.4442 -78.4442 -78.4431 -78.4431 -49.7818 -49.7818 -49.7806 -49.7806
   -49.7760 -49.7757 -49.7751 -49.7747 -49.7730 -49.7726 -49.7720 -49.7717
   -18.3325 -18.2548 -17.7348 -17.6847 -17.6118 -17.5096 -17.4951 -17.4697
   -17.3894 -17.3529 -17.3330 -17.3277 -10.4650 -10.3587 -10.0242  -9.7920
    -9.7036  -9.6126  -9.5212  -9.4711  -9.4077  -9.2911  -9.2398  -9.1257
    -8.9001  -8.8585  -8.7175  -8.6913  -8.6187  -8.5990  -8.4237  -8.3448
    -8.1098  -8.0454  -8.0119  -7.9704  -7.8985  -7.8823  -7.6963  -7.6158
    -7.4166  -7.3687  -7.2499  -7.2311  -7.2024  -7.1337  -6.8132  -6.7426
    -6.6993  -6.6252  -6.4741  -6.3740  -6.3655  -6.2482  -6.2359  -6.1833
    -6.1461  -5.8605  -5.8071  -5.7871  -4.6038  -4.5421  -4.3953  -4.3719
    -4.3350  -4.2950  -4.2782  -4.1784  -1.0778  -0.5814  -0.0377   0.1392
     0.3880   0.5470   0.7823   0.8805   0.9586   1.0123   1.0744   1.1713
     1.2965   1.3355   1.4324   1.5302

          k = 0.5000-0.2887 0.0000 (109602 PWs)   bands (ev):

   -78.4442 -78.4442 -78.4432 -78.4432 -49.7817 -49.7817 -49.7806 -49.7806
   -49.7760 -49.7757 -49.7750 -49.7745 -49.7732 -49.7726 -49.7719 -49.7717
   -18.1675 -18.1283 -17.8928 -17.8534 -17.5195 -17.5172 -17.4870 -17.4840
   -17.4167 -17.3945 -17.3645 -17.3390 -10.4967 -10.3900  -9.8441  -9.7591
    -9.6319  -9.5780  -9.4245  -9.2720  -9.2638  -9.2154  -9.1491  -9.1139
    -8.9962  -8.9580  -8.8035  -8.7880  -8.6114  -8.5983  -8.4794  -8.4772
    -8.2786  -8.1969  -8.0841  -8.0079  -7.8146  -7.8091  -7.4542  -7.4448
    -7.3854  -7.3570  -7.3370  -7.3117  -7.2265  -7.1944  -6.7629  -6.6763
    -6.6171  -6.5742  -6.5325  -6.4573  -6.4091  -6.3344  -6.2219  -6.2059
    -5.9827  -5.9675  -5.8546  -5.8020  -4.5937  -4.5217  -4.4299  -4.3563
    -4.3302  -4.3106  -4.2409  -4.1993  -1.3175  -0.8091   0.0733   0.0813
     0.1628   0.4528   0.6805   0.7082   0.8126   1.1269   1.2101   1.2573
     1.3279   1.3345   1.4167   1.5712

          k = 0.3333 0.0000 0.0000 (109615 PWs)   bands (ev):

   -78.4441 -78.4441 -78.4431 -78.4431 -49.7818 -49.7818 -49.7806 -49.7806
   -49.7758 -49.7758 -49.7751 -49.7751 -49.7727 -49.7727 -49.7719 -49.7719
   -18.3835 -18.3022 -17.6637 -17.6399 -17.6122 -17.5344 -17.5006 -17.4778
   -17.3670 -17.3442 -17.3186 -17.3182 -10.3996 -10.2777 -10.1169  -9.9617
    -9.7691  -9.6777  -9.5431  -9.4156  -9.4016  -9.3261  -9.2970  -9.1232
    -8.8700  -8.8352  -8.7890  -8.7462  -8.5529  -8.5321  -8.3664  -8.2330
    -8.1085  -8.0418  -8.0361  -7.9842  -7.9139  -7.8070  -7.8061  -7.7327
    -7.4013  -7.3341  -7.3194  -7.2607  -7.0839  -6.9187  -6.8923  -6.8465
    -6.7387  -6.6668  -6.5270  -6.3602  -6.3335  -6.2662  -6.2091  -6.1409
    -6.0985  -5.8529  -5.7856  -5.7455  -4.6026  -4.5525  -4.4319  -4.4198
    -4.3408  -4.3261  -4.1637  -4.0751  -0.9199  -0.4479  -0.3315  -0.0319
     0.3868   0.5332   0.6833   0.7731   0.9522   1.0563   1.1601   1.3099
     1.3799   1.5124   1.5360   1.6779

          k =-0.3333 0.3849 0.0000 (109606 PWs)   bands (ev):

   -78.4442 -78.4442 -78.4432 -78.4432 -49.7817 -49.7817 -49.7806 -49.7806
   -49.7760 -49.7758 -49.7748 -49.7744 -49.7733 -49.7729 -49.7718 -49.7716
   -18.1935 -18.1285 -17.8543 -17.8125 -17.5592 -17.5436 -17.5227 -17.4605
   -17.4197 -17.3787 -17.3575 -17.3360 -10.3399 -10.2375  -9.9435  -9.8376
    -9.7621  -9.6563  -9.4288  -9.3303  -9.2777  -9.2575  -9.2277  -9.1462
    -9.0380  -8.9902  -8.7037  -8.6877  -8.6403  -8.5975  -8.3697  -8.3438
    -8.2014  -8.1439  -8.0073  -7.9328  -7.8936  -7.8866  -7.6669  -7.6125
    -7.5058  -7.4426  -7.2378  -7.1791  -7.0891  -7.0023  -6.8478  -6.7926
    -6.6300  -6.6174  -6.5833  -6.4861  -6.3787  -6.2436  -6.2084  -6.1602
    -6.1013  -5.8932  -5.8234  -5.7658  -4.5824  -4.5377  -4.4490  -4.3268
    -4.2910  -4.2627  -4.2122  -4.1216  -1.1374  -0.7218  -0.4895  -0.2968
     0.2074   0.4845   0.5770   0.6571   0.7772   0.8551   0.9042   1.1093
     1.1382   1.2497   1.3432   1.4379

          k = 0.5000 0.0962 0.0000 (109606 PWs)   bands (ev):

   -78.4442 -78.4442 -78.4432 -78.4432 -49.7817 -49.7817 -49.7806 -49.7806
   -49.7759 -49.7758 -49.7748 -49.7746 -49.7731 -49.7728 -49.7718 -49.7717
   -18.1916 -18.1276 -17.8659 -17.8043 -17.5589 -17.5500 -17.5162 -17.4560
   -17.4278 -17.3720 -17.3606 -17.3359 -10.3442 -10.2337  -9.9458  -9.8502
    -9.7357  -9.6407  -9.4509  -9.3729  -9.2773  -9.2514  -9.2208  -9.0907
    -9.0437  -9.0030  -8.7028  -8.6958  -8.6703  -8.5857  -8.3646  -8.3321
    -8.2049  -8.1434  -8.0018  -7.9497  -7.9045  -7.8669  -7.6815  -7.6038
    -7.4869  -7.4504  -7.2597  -7.1470  -7.0987  -7.0045  -6.8363  -6.7482
    -6.7223  -6.6240  -6.5771  -6.4527  -6.3345  -6.3110  -6.2177  -6.1338
    -6.0568  -5.8923  -5.8608  -5.7744  -4.5869  -4.5121  -4.4201  -4.3696
    -4.3197  -4.2299  -4.2060  -4.1288  -1.1496  -0.7041  -0.4907  -0.3197
     0.1986   0.4787   0.6036   0.7137   0.7599   0.8369   0.8706   1.0256
     1.2462   1.3472   1.3530   1.4209

 ------ SPIN DOWN ----------


          k = 0.0000 0.0000 0.0000 (109591 PWs)   bands (ev):

   -75.0635 -75.0635 -75.0625 -75.0625 -46.4656 -46.4656 -46.4640 -46.4640
   -46.4436 -46.4436 -46.4429 -46.4429 -46.4388 -46.4388 -46.4382 -46.4381
   -18.6219 -18.5266 -17.8500 -17.7254 -17.5049 -17.5038 -17.5010 -17.4989
   -17.3113 -17.3109 -17.3081 -17.3070  -9.9732  -9.9728  -9.6019  -9.1208
    -8.9768  -8.9464  -8.9403  -8.8787  -8.7757  -8.7178  -8.6726  -8.6439
    -8.5358  -8.5356  -7.9334  -7.8678  -7.6013  -7.5820  -7.5345  -7.5289
    -7.3863  -7.3355  -7.2175  -7.2156  -7.1753  -7.0467  -6.9195  -6.3612
    -6.3403  -6.2989  -6.2937  -6.1948  -5.8807  -5.8776  -5.8171  -5.8133
    -2.7079  -2.7063  -2.6318  -2.6271  -2.5766  -2.5710  -2.5250  -2.4992
    -2.3925  -2.3868  -2.3800  -2.3643  -2.1221  -2.1198  -2.0559  -2.0555
    -2.0470  -2.0427  -2.0050  -1.9995  -0.2221   0.0388   0.0734   0.0767
     0.1962   0.3617   0.9522   0.9568   1.0928   1.1106   1.5935   1.5960
     1.7463   1.7658   1.8837   2.1148

          k = 0.0000 0.1925 0.0000 (109722 PWs)   bands (ev):

   -75.0634 -75.0634 -75.0624 -75.0624 -46.4656 -46.4655 -46.4641 -46.4641
   -46.4438 -46.4438 -46.4426 -46.4426 -46.4392 -46.4392 -46.4380 -46.4380
   -18.5633 -18.4701 -17.8100 -17.6909 -17.5939 -17.5756 -17.5366 -17.5291
   -17.3310 -17.3243 -17.3058 -17.3050  -9.9496  -9.9433  -9.5614  -9.1622
    -9.0975  -9.0600  -8.9659  -8.8340  -8.7510  -8.7330  -8.6870  -8.5517
    -8.2702  -8.1666  -7.7916  -7.7401  -7.6714  -7.6413  -7.5745  -7.4920
    -7.3657  -7.2789  -7.2315  -7.1967  -7.0704  -6.9879  -6.8535  -6.4976
    -6.4123  -6.3924  -6.3610  -6.2314  -6.2301  -6.0674  -5.9727  -5.9071
    -2.6921  -2.6782  -2.6308  -2.5997  -2.5905  -2.5505  -2.5465  -2.4951
    -2.4120  -2.3521  -2.3022  -2.2777  -2.1537  -2.1358  -2.1233  -2.1116
    -2.0947  -2.0776  -2.0477  -2.0327  -0.0215   0.1298   0.1542   0.4694
     0.5771   0.6399   0.7304   0.8030   1.0537   1.2407   1.4303   1.5596
     1.8169   1.8732   1.9594   2.1510

          k = 0.0000 0.3849 0.0000 (109616 PWs)   bands (ev):

   -75.0632 -75.0632 -75.0622 -75.0622 -46.4654 -46.4654 -46.4642 -46.4642
   -46.4440 -46.4440 -46.4419 -46.4419 -46.4400 -46.4400 -46.4379 -46.4379
   -18.4018 -18.3144 -17.8085 -17.7667 -17.7059 -17.6178 -17.5785 -17.5769
   -17.3983 -17.3571 -17.3280 -17.3135  -9.9010  -9.8391  -9.4304  -9.2809
    -9.2071  -9.1277  -8.9819  -8.7798  -8.6929  -8.5362  -8.4647  -8.2508
    -8.1663  -8.0041  -7.7999  -7.7442  -7.6638  -7.6007  -7.4197  -7.3816
    -7.3004  -7.2262  -7.1654  -7.0718  -7.0463  -7.0297  -6.9048  -6.8367
    -6.7827  -6.5824  -6.4756  -6.4251  -6.3334  -6.1816  -6.1107  -5.9406
    -2.7131  -2.6830  -2.6474  -2.6276  -2.5923  -2.5602  -2.5248  -2.5080
    -2.4718  -2.4230  -2.3015  -2.2292  -2.2266  -2.1772  -2.1286  -2.1149
    -2.0932  -2.0335  -2.0329  -1.9775  -0.4698   0.0915   0.5709   0.6999
     0.7758   0.7788   0.9246   1.0985   1.1094   1.3271   1.3445   1.5054
     1.5265   1.6489   1.7142   1.8778

          k = 0.0000-0.5774 0.0000 (109602 PWs)   bands (ev):

   -75.0631 -75.0631 -75.0621 -75.0621 -46.4654 -46.4653 -46.4642 -46.4642
   -46.4441 -46.4441 -46.4412 -46.4412 -46.4408 -46.4407 -46.4379 -46.4378
   -18.2470 -18.1629 -17.9872 -17.9351 -17.6308 -17.6166 -17.5997 -17.5156
   -17.4710 -17.4072 -17.3413 -17.3194  -9.8876  -9.7750  -9.3396  -9.3148
    -9.2081  -9.1729  -8.8315  -8.6166  -8.5574  -8.4950  -8.4883  -8.3050
    -8.2272  -7.9240  -7.7737  -7.7623  -7.6888  -7.5965  -7.4580  -7.4414
    -7.3836  -7.3428  -7.3088  -7.1309  -6.9606  -6.9290  -6.8084  -6.7534
    -6.7398  -6.5764  -6.5439  -6.5240  -6.3685  -6.3215  -6.0965  -5.8516
    -2.8030  -2.7201  -2.6987  -2.6550  -2.5870  -2.5591  -2.5429  -2.5382
    -2.4837  -2.3829  -2.3454  -2.3083  -2.2691  -2.1483  -2.0697  -2.0557
    -2.0211  -2.0172  -2.0097  -1.9364  -0.7482  -0.1231   0.2423   0.6027
     0.8921   0.9041   0.9250   1.1213   1.1939   1.3987   1.4330   1.4654
     1.6072   1.6240   1.6670   1.7048

          k = 0.1667 0.2887 0.0000 (109615 PWs)   bands (ev):

   -75.0633 -75.0633 -75.0622 -75.0622 -46.4655 -46.4655 -46.4642 -46.4641
   -46.4440 -46.4438 -46.4424 -46.4422 -46.4397 -46.4395 -46.4380 -46.4379
   -18.4516 -18.3634 -17.7394 -17.7256 -17.7015 -17.6319 -17.5906 -17.5847
   -17.3714 -17.3525 -17.3156 -17.3069  -9.9016  -9.8281  -9.4937  -9.2258
    -9.1605  -9.1323  -9.0034  -8.9252  -8.7521  -8.5565  -8.4821  -8.3758
    -8.0550  -7.9521  -7.8486  -7.7973  -7.7095  -7.6404  -7.4636  -7.3356
    -7.2873  -7.2572  -7.1708  -7.0737  -7.0421  -6.9861  -6.9427  -6.8185
    -6.5617  -6.5203  -6.4006  -6.3932  -6.3748  -6.1364  -6.0789  -6.0324
    -2.6873  -2.6571  -2.6260  -2.5942  -2.5812  -2.5647  -2.5363  -2.4830
    -2.4799  -2.4694  -2.2521  -2.2347  -2.1745  -2.1738  -2.1619  -2.1574
    -2.0725  -2.0590  -2.0282  -1.9974  -0.1751  -0.0073   0.4019   0.5670
     0.6473   0.7726   0.8933   0.9707   1.1942   1.2505   1.3284   1.4914
     1.6576   1.7485   1.8009   1.8826

          k = 0.1667 0.4811 0.0000 (109606 PWs)   bands (ev):

   -75.0631 -75.0631 -75.0621 -75.0621 -46.4654 -46.4653 -46.4642 -46.4642
   -46.4441 -46.4441 -46.4417 -46.4415 -46.4405 -46.4403 -46.4379 -46.4379
   -18.2653 -18.1837 -17.9297 -17.8905 -17.6675 -17.6398 -17.6252 -17.5255
   -17.4499 -17.4074 -17.3344 -17.3167  -9.7796  -9.6915  -9.3645  -9.2892
    -9.2411  -9.0710  -8.9785  -8.7860  -8.6955  -8.4829  -8.4487  -8.3472
    -8.2433  -8.1009  -7.7781  -7.7384  -7.6465  -7.5925  -7.5299  -7.4177
    -7.3511  -7.3319  -7.1326  -7.0578  -7.0079  -6.8464  -6.7883  -6.7511
    -6.6563  -6.5660  -6.5245  -6.4969  -6.2995  -6.2488  -6.1963  -5.9594
    -2.7214  -2.6681  -2.6382  -2.6181  -2.6055  -2.5608  -2.5592  -2.5162
    -2.4890  -2.4379  -2.3963  -2.3494  -2.2715  -2.1953  -2.0807  -2.0572
    -2.0023  -1.9864  -1.9690  -1.9276  -0.5605  -0.0751   0.1000   0.3419
     0.4567   0.7304   0.7673   0.9264   1.0741   1.2326   1.2842   1.3748
     1.3997   1.4984   1.6146   1.7928

          k = 0.3333 0.5774 0.0000 (109542 PWs)   bands (ev):

   -75.0631 -75.0631 -75.0621 -75.0621 -46.4653 -46.4653 -46.4643 -46.4643
   -46.4440 -46.4440 -46.4418 -46.4418 -46.4402 -46.4402 -46.4380 -46.4380
   -18.0953 -18.0738 -18.0299 -18.0187 -17.7205 -17.6956 -17.5362 -17.5175
   -17.4706 -17.4488 -17.3436 -17.3204  -9.5202  -9.4981  -9.4347  -9.4211
    -9.0333  -9.0160  -9.0033  -8.8440  -8.8210  -8.7449  -8.3928  -8.3254
    -8.2611  -8.1677  -8.0970  -7.9937  -7.6473  -7.5614  -7.5141  -7.4124
    -7.1654  -7.1149  -7.0633  -6.9997  -6.8930  -6.8925  -6.6882  -6.6546
    -6.6277  -6.5897  -6.5520  -6.5113  -6.2997  -6.2117  -6.1775  -6.0707
    -2.6348  -2.6345  -2.6232  -2.6022  -2.5940  -2.5643  -2.5599  -2.5409
    -2.5299  -2.4947  -2.4635  -2.4105  -2.3105  -2.2116  -2.0338  -2.0105
    -1.9602  -1.9545  -1.9114  -1.9080  -0.4047  -0.3413  -0.1389  -0.0487
     0.3552   0.5659   0.5981   0.6455   0.8340   0.8413   1.1346   1.3003
     1.3518   1.4255   1.5214   1.5882

          k =-0.1667 0.0962 0.0000 (109722 PWs)   bands (ev):

   -75.0634 -75.0634 -75.0624 -75.0624 -46.4656 -46.4655 -46.4641 -46.4641
   -46.4437 -46.4436 -46.4429 -46.4427 -46.4391 -46.4389 -46.4382 -46.4381
   -18.5628 -18.4701 -17.8098 -17.6911 -17.6011 -17.5724 -17.5383 -17.5244
   -17.3351 -17.3195 -17.3078 -17.3031  -9.9904  -9.8981  -9.5613  -9.1689
    -9.0945  -9.0389  -8.9909  -8.8464  -8.7818  -8.6765  -8.6501  -8.6041
    -8.2428  -8.1858  -7.8102  -7.7274  -7.6893  -7.6152  -7.5558  -7.5503
    -7.3351  -7.2591  -7.2110  -7.1832  -7.1576  -6.9797  -6.7888  -6.5453
    -6.4297  -6.3633  -6.3429  -6.2806  -6.2117  -6.0541  -5.9638  -5.9157
    -2.6896  -2.6837  -2.6272  -2.6120  -2.5930  -2.5621  -2.5245  -2.4834
    -2.4079  -2.3650  -2.3100  -2.2671  -2.1594  -2.1398  -2.1225  -2.1067
    -2.1011  -2.0630  -2.0479  -2.0378  -0.0695   0.1443   0.2214   0.4677
     0.5971   0.6334   0.6762   0.7586   1.1274   1.2604   1.3491   1.5826
     1.7928   1.8827   2.0073   2.1192

          k =-0.3333 0.1925 0.0000 (109616 PWs)   bands (ev):

   -75.0632 -75.0632 -75.0622 -75.0622 -46.4654 -46.4654 -46.4642 -46.4642
   -46.4438 -46.4436 -46.4428 -46.4423 -46.4396 -46.4392 -46.4382 -46.4380
   -18.3984 -18.3156 -17.8175 -17.7671 -17.7021 -17.6145 -17.5880 -17.5702
   -17.3997 -17.3495 -17.3350 -17.3104  -9.9309  -9.8024  -9.4389  -9.2668
    -9.2027  -9.1334  -8.9766  -8.7748  -8.7190  -8.5499  -8.4400  -8.2597
    -8.1520  -8.0412  -7.7566  -7.7313  -7.6811  -7.6308  -7.4296  -7.3445
    -7.2945  -7.2654  -7.1410  -7.1048  -7.0315  -7.0143  -6.9520  -6.7985
    -6.7247  -6.6402  -6.4999  -6.3761  -6.3502  -6.1709  -6.0640  -5.9964
    -2.6987  -2.6962  -2.6528  -2.6194  -2.5872  -2.5682  -2.5260  -2.5077
    -2.4714  -2.4211  -2.2795  -2.2508  -2.2097  -2.2040  -2.1232  -2.1046
    -2.0886  -2.0532  -2.0189  -1.9787  -0.4947   0.1131   0.5265   0.6546
     0.7415   0.8960   0.9612   1.1048   1.1438   1.2573   1.3885   1.4731
     1.5291   1.6580   1.7204   1.8024

          k = 0.5000-0.2887 0.0000 (109602 PWs)   bands (ev):

   -75.0631 -75.0631 -75.0621 -75.0621 -46.4654 -46.4654 -46.4642 -46.4642
   -46.4439 -46.4437 -46.4427 -46.4421 -46.4399 -46.4394 -46.4382 -46.4380
   -18.2239 -18.1835 -17.9845 -17.9467 -17.6304 -17.5984 -17.5958 -17.5546
   -17.4429 -17.4120 -17.3456 -17.3161  -9.8958  -9.7688  -9.3331  -9.2868
    -9.2301  -9.1788  -8.7650  -8.6912  -8.5381  -8.5035  -8.4691  -8.4117
    -8.1202  -7.9860  -7.7659  -7.7452  -7.6389  -7.6354  -7.4531  -7.4128
    -7.3930  -7.3439  -7.2932  -7.2344  -6.9378  -6.8873  -6.7959  -6.7309
    -6.7158  -6.6822  -6.5858  -6.4486  -6.3628  -6.3087  -5.9966  -5.9591
    -2.7813  -2.7668  -2.6499  -2.6166  -2.6140  -2.5893  -2.5548  -2.5457
    -2.4548  -2.3902  -2.3379  -2.3170  -2.2448  -2.1904  -2.0648  -2.0440
    -2.0224  -2.0169  -1.9858  -1.9523  -0.7743  -0.1175   0.2103   0.6169
     0.8948   0.9490   0.9651   1.0623   1.2229   1.3790   1.4301   1.5096
     1.5526   1.5967   1.6919   1.7223

          k = 0.3333 0.0000 0.0000 (109615 PWs)   bands (ev):

   -75.0633 -75.0633 -75.0622 -75.0622 -46.4655 -46.4655 -46.4641 -46.4641
   -46.4436 -46.4436 -46.4427 -46.4427 -46.4392 -46.4392 -46.4382 -46.4382
   -18.4501 -18.3635 -17.7412 -17.7374 -17.6908 -17.6356 -17.5957 -17.5746
   -17.3818 -17.3326 -17.3285 -17.3033  -9.9344  -9.7872  -9.4927  -9.2402
    -9.1655  -9.0859  -9.0632  -8.8947  -8.7117  -8.5744  -8.5460  -8.3340
    -8.0740  -7.9410  -7.8740  -7.7749  -7.7254  -7.5766  -7.5475  -7.3802
    -7.2471  -7.1567  -7.1449  -7.0961  -7.0882  -7.0062  -6.9639  -6.7784
    -6.5807  -6.5061  -6.4410  -6.3730  -6.3561  -6.1129  -6.0714  -6.0698
    -2.7176  -2.6349  -2.6270  -2.5891  -2.5624  -2.5488  -2.5247  -2.5137
    -2.4924  -2.4544  -2.2552  -2.2474  -2.1934  -2.1742  -2.1623  -2.1463
    -2.0802  -2.0391  -2.0226  -2.0005  -0.2415   0.1433   0.2588   0.5645
     0.6579   0.7768   0.9627   1.0050   1.0988   1.2526   1.3079   1.5441
     1.6445   1.7708   1.7978   1.9549

          k =-0.3333 0.3849 0.0000 (109606 PWs)   bands (ev):

   -75.0631 -75.0631 -75.0621 -75.0621 -46.4654 -46.4654 -46.4642 -46.4642
   -46.4440 -46.4439 -46.4423 -46.4419 -46.4401 -46.4397 -46.4381 -46.4379
   -18.2582 -18.1886 -17.9348 -17.8914 -17.6668 -17.6390 -17.6185 -17.5372
   -17.4417 -17.4080 -17.3366 -17.3150  -9.7918  -9.6775  -9.3777  -9.2695
    -9.2283  -9.0822  -8.9771  -8.7893  -8.7111  -8.4906  -8.4221  -8.3387
    -8.2785  -8.0941  -7.7638  -7.7461  -7.6317  -7.6003  -7.5292  -7.3888
    -7.3762  -7.3331  -7.1611  -7.1168  -6.9074  -6.8629  -6.7916  -6.7146
    -6.6926  -6.6000  -6.5240  -6.4494  -6.3747  -6.1946  -6.1140  -6.0375
    -2.7107  -2.6789  -2.6356  -2.6158  -2.5920  -2.5820  -2.5688  -2.5196
    -2.4738  -2.4409  -2.3698  -2.3444  -2.2735  -2.2275  -2.0771  -2.0513
    -1.9944  -1.9883  -1.9662  -1.9340  -0.5832  -0.0568   0.0890   0.3594
     0.4134   0.7858   0.8159   0.9346   1.0086   1.1423   1.3439   1.3952
     1.4349   1.4823   1.5512   1.7568

          k = 0.5000 0.0962 0.0000 (109606 PWs)   bands (ev):

   -75.0631 -75.0631 -75.0621 -75.0621 -46.4654 -46.4654 -46.4642 -46.4642
   -46.4439 -46.4438 -46.4425 -46.4422 -46.4398 -46.4396 -46.4381 -46.4380
   -18.2562 -18.1879 -17.9459 -17.8838 -17.6716 -17.6405 -17.6085 -17.5378
   -17.4559 -17.3921 -17.3429 -17.3128  -9.8052  -9.6612  -9.3772  -9.2776
    -9.2249  -9.0778  -8.9710  -8.7713  -8.7198  -8.4735  -8.4560  -8.3964
    -8.2506  -8.0431  -7.8050  -7.7405  -7.6445  -7.5711  -7.5373  -7.4116
    -7.3556  -7.3299  -7.1598  -7.1049  -6.9526  -6.8177  -6.7838  -6.7507
    -6.6521  -6.6185  -6.5534  -6.4571  -6.2853  -6.2425  -6.1042  -6.0562
    -2.7167  -2.6895  -2.6144  -2.5998  -2.5901  -2.5700  -2.5611  -2.5473
    -2.4810  -2.4460  -2.3881  -2.3255  -2.2741  -2.2273  -2.0823  -2.0482
    -1.9983  -1.9806  -1.9704  -1.9295  -0.5922  -0.0331   0.0682   0.2890
     0.4500   0.7880   0.8970   0.9387   1.0144   1.0680   1.3031   1.3544
     1.5158   1.5379   1.6354   1.6745

     highest occupied, lowest unoccupied level (ev):    -5.6295   -4.6132

!    total energy              =   -5539.70303811 Ry
     total all-electron energy =     -5539.703038 Ry
     estimated scf accuracy    <          4.2E-12 Ry

     The total energy is the sum of the following terms:
     one-electron contribution =   -9564.51435352 Ry
     hartree contribution      =    4756.18031961 Ry
     xc contribution           =    -165.75580608 Ry
     ewald contribution        =    3977.84444146 Ry
     Hubbard energy            =       0.51277938 Ry
     one-center paw contrib.   =   -4543.97041895 Ry

     total magnetization       =    12.00 Bohr mag/cell
     absolute magnetization    =    16.75 Bohr mag/cell

     convergence has been achieved in  22 iterations

     negative rho (up, down):  2.703E-02 3.571E-02

     Forces acting on atoms (cartesian axes, Ry/au):

     atom    1 type  1   force =    -0.00008891   -0.00043774   -0.00045369
     atom    2 type  1   force =    -0.00008891    0.00043774   -0.00045369
     atom    3 type  2   force =     0.01317749    0.00000000   -0.01932117
     atom    4 type  2   force =    -0.00719180   -0.01195997   -0.01801523
     atom    5 type  2   force =    -0.00719180    0.01195997   -0.01801523
     atom    6 type  2   force =    -0.01362270    0.00000000    0.02110856
     atom    7 type  2   force =     0.00680539    0.01189081    0.02111273
     atom    8 type  2   force =     0.00680539   -0.01189081    0.02111273
     atom    9 type  1   force =     0.00008929   -0.00043814    0.00044926
     atom   10 type  1   force =     0.00008929    0.00043814    0.00044926
     atom   11 type  2   force =     0.01362349    0.00000000   -0.02110647
     atom   12 type  2   force =    -0.00680602   -0.01188868   -0.02111065
     atom   13 type  2   force =    -0.00680602    0.01188868   -0.02111065
     atom   14 type  2   force =    -0.01317816    0.00000000    0.01932577
     atom   15 type  2   force =     0.00719199    0.01196052    0.01801424
     atom   16 type  2   force =     0.00719199   -0.01196052    0.01801424

     Total force =     0.083479     Total SCF correction =     0.000003


     Computing stress (Cartesian axis) and pressure


     negative rho (up, down):  2.703E-02 3.571E-02
          total   stress  (Ry/bohr**3)                   (kbar)     P=       19.09
   0.00013023   0.00000000  -0.00000142           19.16        0.00       -0.21
   0.00000000   0.00012927   0.00000000            0.00       19.02        0.00
  -0.00000142   0.00000000   0.00012987           -0.21        0.00       19.11


     Writing all to output data dir ./ht_afm_fm_qe/ht_afm_fm_qe.save/ :
     XML data file, charge density, pseudopotentials, collected wavefunctions

     init_run     :     29.02s CPU     29.60s WALL (       1 calls)
     electrons    :   1206.37s CPU   1252.38s WALL (       1 calls)
     forces       :     21.07s CPU     21.95s WALL (       1 calls)
     stress       :    134.47s CPU    136.12s WALL (       1 calls)

     Called by init_run:
     wfcinit      :     26.39s CPU     26.82s WALL (       1 calls)
     potinit      :      1.10s CPU      1.15s WALL (       1 calls)
     hinit0       :      0.89s CPU      0.91s WALL (       1 calls)

     Called by electrons:
     c_bands      :    994.76s CPU   1030.64s WALL (      22 calls)
     sum_band     :    176.29s CPU    183.42s WALL (      22 calls)
     v_of_rho     :      5.14s CPU      5.22s WALL (      23 calls)
     newd         :      8.81s CPU     11.15s WALL (      23 calls)
     PAW_pot      :     19.39s CPU     19.55s WALL (      23 calls)
     mix_rho      :      2.51s CPU      2.56s WALL (      22 calls)

     Called by c_bands:
     init_us_2    :     14.52s CPU     14.73s WALL (    1300 calls)
     init_us_2:cp :     14.51s CPU     14.72s WALL (    1300 calls)
     cegterg      :    962.99s CPU    998.30s WALL (     572 calls)

     Called by *egterg:
     cdiaghg      :     98.02s CPU     98.64s WALL (    2640 calls)
     h_psi        :    632.89s CPU    649.59s WALL (    2666 calls)
     s_psi        :     39.89s CPU     40.39s WALL (    2744 calls)
     g_psi        :      5.68s CPU      5.75s WALL (    2068 calls)

     Called by h_psi:
     h_psi:calbec :     43.75s CPU     44.58s WALL (    2666 calls)
     vloc_psi     :    493.61s CPU    501.25s WALL (    2666 calls)
     add_vuspsi   :     36.90s CPU     37.28s WALL (    2666 calls)
     vhpsi        :     49.34s CPU     49.93s WALL (    2666 calls)

     General routines
     calbec       :    120.87s CPU    123.17s WALL (   26938 calls)
     fft          :      3.89s CPU      4.01s WALL (     613 calls)
     ffts         :      0.30s CPU      0.31s WALL (      90 calls)
     fftw         :    456.52s CPU    464.01s WALL (  363064 calls)
     interpolate  :      0.49s CPU      0.54s WALL (      46 calls)

     Parallel routines

     Hubbard U routines
     new_ns       :      8.61s CPU      8.84s WALL (      22 calls)
     vhpsi        :     49.34s CPU     49.93s WALL (    2666 calls)
     force_hub    :     15.83s CPU     16.59s WALL (       1 calls)
                                        0.00s GPU  (       1 calls)
     stres_hub    :     48.85s CPU     49.36s WALL (       1 calls)
                                        0.00s GPU  (       1 calls)

     PWSCF        :  23m14.58s CPU  24m46.31s WALL


   This run was terminated on:  17:39:28  15Oct2025            

=------------------------------------------------------------------------------=
   JOB DONE.
=------------------------------------------------------------------------------=
