
     Program PWSCF v.7.3 starts on 15Oct2025 at 17:39:29 

     This program is part of the open-source Quantum ESPRESSO suite
     for quantum simulation of materials; please cite
         "P. Giannozzi et al., J. Phys.:Condens. Matter 21 395502 (2009);
         "P. Giannozzi et al., J. Phys.:Condens. Matter 29 465901 (2017);
         "P. Giannozzi et al., J. Chem. Phys. 152 154105 (2020);
          URL http://www.quantum-espresso.org", 
     in publications or presentations arising from this work. More details at
     http://www.quantum-espresso.org/quote

     Parallel version (MPI), running on    24 processors

     MPI processes distributed on     1 nodes
     31104 MiB available memory on the printing compute node when the environment starts

     Reading input from ht_afm_afm_qe.scf.in
Warning: card &CELL ignored
Warning: card / ignored

     Current dimensions of program PWSCF are:
     Max number of different atomic species (ntypx) = 10
     Max number of k-points (npk) =  40000
     Max angular momentum in pseudopotentials (lmaxx) =  4
read_pp_mesh; mismatch in mesh size, discarding the one in header
read_pp_mesh; mismatch in mesh size, discarding the one in header
read_pp_mesh; mismatch in mesh size, discarding the one in header
     file Cr.GGA-PBE-paw.UPF: wavefunction(s)  3S 4S 3P 4P 3D 4D renormalized
     file I.GGA-PBE-paw.UPF: wavefunction(s)  6S 6P renormalized
     file Cr.GGA-PBE-paw.UPF: wavefunction(s)  3S 4S 3P 4P 3D 4D renormalized

     IMPORTANT: XC functional enforced from input :
     Exchange-correlation= PBE
                           (   1   4   3   4   0   0   0)
     Any further DFT definition will be discarded
     Please, verify this is what you really want

     Message from routine setup:
     using ibrav=0 with symmetry is DISCOURAGED, use correct ibrav instead

     R & G space division:  proc/nbgrp/npool/nimage =      24
     Subspace diagonalization in iterative solution of the eigenvalue problem:
     a serial algorithm will be used


     Parallelization info
     --------------------
     sticks:   dense  smooth     PW     G-vecs:    dense   smooth      PW
     Min         179     174     46                38065    36532    5046
     Max         180     175     47                38082    36557    5059
     Sum        4303    4189   1123               913669   876961  121297

     Using Slab Decomposition



     bravais-lattice index     =            0
     lattice parameter (alat)  =      12.9956  a.u.
     unit-cell volume          =    7602.9282 (a.u.)^3
     number of atoms/cell      =           16
     number of atomic types    =            3
     number of electrons       =       140.00 (up:  70.00, down:  70.00)
     number of Kohn-Sham states=          100
     kinetic-energy cutoff     =      90.0000  Ry
     charge density cutoff     =     370.0000  Ry
     scf convergence threshold =      1.0E-11
     mixing beta               =       0.5000
     number of iterations used =            8  plain     mixing
     Exchange-correlation= PBE
                           (   1   4   3   4   0   0   0)
     Hubbard projectors: atomic
     Hubbard parameters of DFT+U (Dudarev formulation) in eV:
     U(Cr-3d) =  2.7300
     J0(Cr-3d) =  0.4800
     U(Cr1-3d) =  2.7300
     J0(Cr1-3d) =  0.4800

     Internal variables: lda_plus_u =T, lda_plus_u_kind = 0

     celldm(1)=  12.995613  celldm(2)=   0.000000  celldm(3)=   0.000000
     celldm(4)=   0.000000  celldm(5)=   0.000000  celldm(6)=   0.000000

     crystal axes: (cart. coord. in units of alat)
               a(1) = (   1.000000  -0.000000   0.000000 )  
               a(2) = (  -0.500000   0.866025   0.000000 )  
               a(3) = (  -0.000000   0.000000   4.000000 )  

     reciprocal axes: (cart. coord. in units 2 pi/alat)
               b(1) = (  1.000000  0.577350  0.000000 )  
               b(2) = (  0.000000  1.154701  0.000000 )  
               b(3) = ( -0.000000 -0.000000  0.250000 )  


     PseudoPot. # 1 for Cr read from file:
     ../../Cr.GGA-PBE-paw.UPF
     MD5 check sum: 0e9dc003703e132720ff5dfacba66d28
     Pseudo is Projector augmented-wave + core cor, Zval = 14.0
     Generated using ATOMPAW code
     Shape of augmentation charge: SINC**2
     Using radial grid of 2342 points,  6 beta functions with: 
                l(1) =   0
                l(2) =   0
                l(3) =   1
                l(4) =   1
                l(5) =   2
                l(6) =   2
     Q(r) pseudized with 0 coefficients 


     PseudoPot. # 2 for I  read from file:
     ../../I.GGA-PBE-paw.UPF
     MD5 check sum: 736bb4145856fa7ed29d0984862794a4
     Pseudo is Projector augmented-wave + core cor, Zval =  7.0
     Generated using ATOMPAW code
     Shape of augmentation charge: SINC**2
     Using radial grid of 2342 points,  4 beta functions with: 
                l(1) =   0
                l(2) =   0
                l(3) =   1
                l(4) =   1
     Q(r) pseudized with 0 coefficients 


     PseudoPot. # 3 for Cr read from file:
     ../../Cr.GGA-PBE-paw.UPF
     MD5 check sum: 0e9dc003703e132720ff5dfacba66d28
     Pseudo is Projector augmented-wave + core cor, Zval = 14.0
     Generated using ATOMPAW code
     Shape of augmentation charge: SINC**2
     Using radial grid of 2342 points,  6 beta functions with: 
                l(1) =   0
                l(2) =   0
                l(3) =   1
                l(4) =   1
                l(5) =   2
                l(6) =   2
     Q(r) pseudized with 0 coefficients 


     atomic species   valence    mass     pseudopotential
     Cr               14.00    51.99610     Cr( 1.00)
     I                 7.00   126.90447     I ( 1.00)
     Cr1              14.00    51.99610     Cr( 1.00)

     Starting magnetic structure 
     atomic species   magnetization
     Cr              0.214
     I               0.000
     Cr1            -0.214

      2 Sym. Ops. (no inversion) found



   Cartesian axes

     site n.     atom                  positions (alat units)
         1        Cr     tau(   1) = (   0.8332322   0.2888117   2.2705821  )
         2        Cr     tau(   2) = (   0.3332322   0.5772137   2.2705821  )
         3        I      tau(   3) = (   0.9768883  -0.0000019   2.0450771  )
         4        I      tau(   4) = (   0.5113602   0.3087614   2.0460861  )
         5        I      tau(   5) = (   0.0113635   0.5572659   2.0460861  )
         6        I      tau(   6) = (   0.6899037  -0.0000017   2.4948790  )
         7        I      tau(   7) = (   0.6550688   0.5572240   2.4948552  )
         8        I      tau(   8) = (   0.1550716   0.3088031   2.4948552  )
         9        Cr1    tau(   9) = (   0.5001000   0.2888088   1.3132553  )
        10        Cr1    tau(  10) = (   0.0001000   0.5772166   1.3132554  )
        11        I      tau(  11) = (   0.6434309  -0.0000019   1.0889581  )
        12        I      tau(  12) = (   0.1782615   0.3088030   1.0889818  )
        13        I      tau(  13) = (  -0.3217352   0.5572244   1.0889818  )
        14        I      tau(  14) = (   0.3564452  -0.0000017   1.5387600  )
        15        I      tau(  15) = (   0.3219705   0.5572651   1.5377500  )
        16        I      tau(  16) = (  -0.1780267   0.3087620   1.5377500  )

     number of k points=    13
                       cart. coord. in units 2pi/alat
        k(    1) = (   0.0000000   0.0000000   0.0000000), wk =   0.0277778
        k(    2) = (   0.0000000   0.1924501   0.0000000), wk =   0.0555556
        k(    3) = (   0.0000000   0.3849002   0.0000000), wk =   0.0555556
        k(    4) = (   0.0000000  -0.5773503   0.0000000), wk =   0.0277778
        k(    5) = (   0.1666667   0.2886751   0.0000000), wk =   0.1111111
        k(    6) = (   0.1666667   0.4811252   0.0000000), wk =   0.1111111
        k(    7) = (   0.3333333   0.5773503   0.0000000), wk =   0.0555556
        k(    8) = (  -0.1666667   0.0962250   0.0000000), wk =   0.1111111
        k(    9) = (  -0.3333333   0.1924501   0.0000000), wk =   0.1111111
        k(   10) = (   0.5000000  -0.2886751   0.0000000), wk =   0.0555556
        k(   11) = (   0.3333333   0.0000000   0.0000000), wk =   0.0555556
        k(   12) = (  -0.3333333   0.3849002   0.0000000), wk =   0.1111111
        k(   13) = (   0.5000000   0.0962250   0.0000000), wk =   0.1111111

     Dense  grid:   913669 G-vectors     FFT dimensions: (  80,  80, 320)

     Smooth grid:   876961 G-vectors     FFT dimensions: (  80,  80, 320)

     Estimated max dynamical RAM per process >     478.26 MB

     Estimated total dynamical RAM >      11.21 GB
 ----2D----2D----2D----2D----2D----2D----2D----2D----2D----2D----2D----2D
  The code is running with the 2D cutoff
  Please refer to:
  Sohier, T., Calandra, M., & Mauri, F. (2017), 
  Density functional perturbation theory for gated two-dimensional heterostructures:
  Theoretical developments and application to flexural phonons in graphene.
  Physical Review B, 96(7), 75448. https://doi.org/10.1103/PhysRevB.96.075448
 ----2D----2D----2D----2D----2D----2D----2D----2D----2D----2D----2D----2D
     Generating pointlists ...
     new r_m :   0.1619 (alat units)  2.1043 (a.u.) for type    1
     new r_m :   0.1619 (alat units)  2.1043 (a.u.) for type    2
     new r_m :   0.1619 (alat units)  2.1043 (a.u.) for type    3
     Cannot read rho : file not found

     Initial potential from superposition of free atoms

     starting charge     139.9932, renormalised to     140.0000

     negative rho (up, down):  2.637E-02 2.638E-02

     STARTING HUBBARD OCCUPATIONS:

     =================== HUBBARD OCCUPATIONS ===================
     ------------------------ ATOM    1 ------------------------
     Tr[ns(  1)] (up, down, total) =   5.00000  0.00000  5.00000
     Atomic magnetic moment for atom   1 =   5.00000
     SPIN  1
     eigenvalues:
       1.000  1.000  1.000  1.000  1.000
     eigenvectors (columns):
       1.000  0.000  0.000  0.000  0.000
       0.000  1.000  0.000  0.000  0.000
       0.000  0.000  1.000  0.000  0.000
       0.000  0.000  0.000  1.000  0.000
       0.000  0.000  0.000  0.000  1.000
     occupation matrix ns (before diag.):
       1.000  0.000  0.000  0.000  0.000
       0.000  1.000  0.000  0.000  0.000
       0.000  0.000  1.000  0.000  0.000
       0.000  0.000  0.000  1.000  0.000
       0.000  0.000  0.000  0.000  1.000
     SPIN  2
     eigenvalues:
       0.000  0.000  0.000  0.000  0.000
     eigenvectors (columns):
       1.000  0.000  0.000  0.000  0.000
       0.000  1.000  0.000  0.000  0.000
       0.000  0.000  1.000  0.000  0.000
       0.000  0.000  0.000  1.000  0.000
       0.000  0.000  0.000  0.000  1.000
     occupation matrix ns (before diag.):
       0.000  0.000  0.000  0.000  0.000
       0.000  0.000  0.000  0.000  0.000
       0.000  0.000  0.000  0.000  0.000
       0.000  0.000  0.000  0.000  0.000
       0.000  0.000  0.000  0.000  0.000
     ------------------------ ATOM    2 ------------------------
     Tr[ns(  2)] (up, down, total) =   5.00000  0.00000  5.00000
     Atomic magnetic moment for atom   2 =   5.00000
     SPIN  1
     eigenvalues:
       1.000  1.000  1.000  1.000  1.000
     eigenvectors (columns):
       1.000  0.000  0.000  0.000  0.000
       0.000  1.000  0.000  0.000  0.000
       0.000  0.000  1.000  0.000  0.000
       0.000  0.000  0.000  1.000  0.000
       0.000  0.000  0.000  0.000  1.000
     occupation matrix ns (before diag.):
       1.000  0.000  0.000  0.000  0.000
       0.000  1.000  0.000  0.000  0.000
       0.000  0.000  1.000  0.000  0.000
       0.000  0.000  0.000  1.000  0.000
       0.000  0.000  0.000  0.000  1.000
     SPIN  2
     eigenvalues:
       0.000  0.000  0.000  0.000  0.000
     eigenvectors (columns):
       1.000  0.000  0.000  0.000  0.000
       0.000  1.000  0.000  0.000  0.000
       0.000  0.000  1.000  0.000  0.000
       0.000  0.000  0.000  1.000  0.000
       0.000  0.000  0.000  0.000  1.000
     occupation matrix ns (before diag.):
       0.000  0.000  0.000  0.000  0.000
       0.000  0.000  0.000  0.000  0.000
       0.000  0.000  0.000  0.000  0.000
       0.000  0.000  0.000  0.000  0.000
       0.000  0.000  0.000  0.000  0.000
     ------------------------ ATOM    9 ------------------------
     Tr[ns(  9)] (up, down, total) =   0.00000  5.00000  5.00000
     Atomic magnetic moment for atom   9 =  -5.00000
     SPIN  1
     eigenvalues:
       0.000  0.000  0.000  0.000  0.000
     eigenvectors (columns):
       1.000  0.000  0.000  0.000  0.000
       0.000  1.000  0.000  0.000  0.000
       0.000  0.000  1.000  0.000  0.000
       0.000  0.000  0.000  1.000  0.000
       0.000  0.000  0.000  0.000  1.000
     occupation matrix ns (before diag.):
       0.000  0.000  0.000  0.000  0.000
       0.000  0.000  0.000  0.000  0.000
       0.000  0.000  0.000  0.000  0.000
       0.000  0.000  0.000  0.000  0.000
       0.000  0.000  0.000  0.000  0.000
     SPIN  2
     eigenvalues:
       1.000  1.000  1.000  1.000  1.000
     eigenvectors (columns):
       1.000  0.000  0.000  0.000  0.000
       0.000  1.000  0.000  0.000  0.000
       0.000  0.000  1.000  0.000  0.000
       0.000  0.000  0.000  1.000  0.000
       0.000  0.000  0.000  0.000  1.000
     occupation matrix ns (before diag.):
       1.000  0.000  0.000  0.000  0.000
       0.000  1.000  0.000  0.000  0.000
       0.000  0.000  1.000  0.000  0.000
       0.000  0.000  0.000  1.000  0.000
       0.000  0.000  0.000  0.000  1.000
     ------------------------ ATOM   10 ------------------------
     Tr[ns( 10)] (up, down, total) =   0.00000  5.00000  5.00000
     Atomic magnetic moment for atom  10 =  -5.00000
     SPIN  1
     eigenvalues:
       0.000  0.000  0.000  0.000  0.000
     eigenvectors (columns):
       1.000  0.000  0.000  0.000  0.000
       0.000  1.000  0.000  0.000  0.000
       0.000  0.000  1.000  0.000  0.000
       0.000  0.000  0.000  1.000  0.000
       0.000  0.000  0.000  0.000  1.000
     occupation matrix ns (before diag.):
       0.000  0.000  0.000  0.000  0.000
       0.000  0.000  0.000  0.000  0.000
       0.000  0.000  0.000  0.000  0.000
       0.000  0.000  0.000  0.000  0.000
       0.000  0.000  0.000  0.000  0.000
     SPIN  2
     eigenvalues:
       1.000  1.000  1.000  1.000  1.000
     eigenvectors (columns):
       1.000  0.000  0.000  0.000  0.000
       0.000  1.000  0.000  0.000  0.000
       0.000  0.000  1.000  0.000  0.000
       0.000  0.000  0.000  1.000  0.000
       0.000  0.000  0.000  0.000  1.000
     occupation matrix ns (before diag.):
       1.000  0.000  0.000  0.000  0.000
       0.000  1.000  0.000  0.000  0.000
       0.000  0.000  1.000  0.000  0.000
       0.000  0.000  0.000  1.000  0.000
       0.000  0.000  0.000  0.000  1.000

     Number of occupied Hubbard levels =   20.0000

     Atomic wfc used for Hubbard projectors are NOT orthogonalized

     Starting wfcs are  168 atomic wfcs
     Checking if some PAW data can be deallocated... 

     total cpu time spent up to now is       31.4 secs

     Self-consistent Calculation

     iteration #  1     ecut=    90.00 Ry     beta= 0.50
     Davidson diagonalization with overlap
     ethr =  1.00E-05,  avg # of iterations =  9.2

     =================== HUBBARD OCCUPATIONS ===================
     ------------------------ ATOM    1 ------------------------
     Tr[ns(  1)] (up, down, total) =   3.97263  0.72892  4.70155
     Atomic magnetic moment for atom   1 =   3.24372
     SPIN  1
     eigenvalues:
       0.527  0.528  0.971  0.973  0.973
     eigenvectors (columns):
       0.001  0.000  0.998  0.047 -0.038
       0.577 -0.599 -0.032  0.274 -0.482
      -0.600 -0.576  0.013 -0.481 -0.276
      -0.383  0.402 -0.046  0.410 -0.722
      -0.401 -0.384 -0.017  0.723  0.411
     occupation matrix ns (before diag.):
       0.971 -0.000  0.000  0.000  0.000
      -0.000  0.665  0.001  0.206  0.001
       0.000  0.001  0.665  0.001 -0.206
       0.000  0.206  0.001  0.836  0.000
       0.000  0.001 -0.206  0.000  0.836
     SPIN  2
     eigenvalues:
       0.084  0.089  0.089  0.233  0.234
     eigenvectors (columns):
       1.000  0.020 -0.008  0.001 -0.000
      -0.003  0.323  0.484  0.492 -0.648
      -0.011  0.484 -0.322 -0.648 -0.492
      -0.003  0.452  0.677 -0.351  0.464
       0.017 -0.676  0.452 -0.463 -0.351
     occupation matrix ns (before diag.):
       0.084  0.000 -0.000 -0.000 -0.000
       0.000  0.185  0.000 -0.068  0.000
      -0.000  0.000  0.185 -0.000  0.068
      -0.000 -0.068 -0.000  0.138 -0.000
      -0.000  0.000  0.068 -0.000  0.138
     ------------------------ ATOM    2 ------------------------
     Tr[ns(  2)] (up, down, total) =   3.97263  0.72892  4.70155
     Atomic magnetic moment for atom   2 =   3.24372
     SPIN  1
     eigenvalues:
       0.527  0.528  0.971  0.973  0.973
     eigenvectors (columns):
       0.001  0.000  0.998  0.047 -0.038
       0.577 -0.599 -0.032  0.274 -0.482
       0.600  0.576 -0.013  0.481  0.276
      -0.383  0.402 -0.046  0.410 -0.722
       0.401  0.384  0.017 -0.723 -0.411
     occupation matrix ns (before diag.):
       0.971 -0.000 -0.000  0.000 -0.000
      -0.000  0.665 -0.001  0.206 -0.001
      -0.000 -0.001  0.665 -0.001 -0.206
       0.000  0.206 -0.001  0.836 -0.000
      -0.000 -0.001 -0.206 -0.000  0.836
     SPIN  2
     eigenvalues:
       0.084  0.089  0.089  0.233  0.234
     eigenvectors (columns):
      -1.000 -0.020 -0.008 -0.001  0.000
       0.003 -0.323  0.484 -0.492  0.648
      -0.011  0.484  0.322 -0.648 -0.492
       0.003 -0.452  0.677  0.351 -0.464
       0.017 -0.676 -0.452 -0.463 -0.351
     occupation matrix ns (before diag.):
       0.084  0.000  0.000 -0.000  0.000
       0.000  0.185 -0.000 -0.068 -0.000
       0.000 -0.000  0.185  0.000  0.068
      -0.000 -0.068  0.000  0.138  0.000
       0.000 -0.000  0.068  0.000  0.138
     ------------------------ ATOM    9 ------------------------
     Tr[ns(  9)] (up, down, total) =   0.72892  3.97264  4.70156
     Atomic magnetic moment for atom   9 =  -3.24372
     SPIN  1
     eigenvalues:
       0.084  0.089  0.089  0.233  0.234
     eigenvectors (columns):
      -1.000 -0.020 -0.008 -0.001  0.000
       0.003 -0.323  0.483 -0.493  0.647
      -0.011  0.484  0.322 -0.648 -0.493
       0.003 -0.452  0.676  0.351 -0.463
       0.017 -0.676 -0.453 -0.463 -0.352
     occupation matrix ns (before diag.):
       0.084  0.000  0.000 -0.000  0.000
       0.000  0.185 -0.000 -0.068 -0.000
       0.000 -0.000  0.185  0.000  0.068
      -0.000 -0.068  0.000  0.138  0.000
       0.000 -0.000  0.068  0.000  0.138
     SPIN  2
     eigenvalues:
       0.527  0.528  0.971  0.973  0.973
     eigenvectors (columns):
       0.001  0.000  0.998  0.047 -0.038
       0.577 -0.599 -0.032  0.273 -0.483
       0.600  0.576 -0.013  0.482  0.274
      -0.383  0.402 -0.046  0.407 -0.724
       0.401  0.384  0.017 -0.725 -0.408
     occupation matrix ns (before diag.):
       0.971 -0.000 -0.000  0.000 -0.000
      -0.000  0.665 -0.001  0.206 -0.001
      -0.000 -0.001  0.665 -0.001 -0.206
       0.000  0.206 -0.001  0.836 -0.000
      -0.000 -0.001 -0.206 -0.000  0.836
     ------------------------ ATOM   10 ------------------------
     Tr[ns( 10)] (up, down, total) =   0.72892  3.97264  4.70156
     Atomic magnetic moment for atom  10 =  -3.24372
     SPIN  1
     eigenvalues:
       0.084  0.089  0.089  0.233  0.234
     eigenvectors (columns):
       1.000  0.020 -0.008  0.001 -0.000
      -0.003  0.323  0.483  0.493 -0.647
      -0.011  0.484 -0.322 -0.648 -0.493
      -0.003  0.452  0.676 -0.351  0.463
       0.017 -0.676  0.453 -0.463 -0.352
     occupation matrix ns (before diag.):
       0.084  0.000 -0.000 -0.000 -0.000
       0.000  0.185  0.000 -0.068  0.000
      -0.000  0.000  0.185 -0.000  0.068
      -0.000 -0.068 -0.000  0.138 -0.000
      -0.000  0.000  0.068 -0.000  0.138
     SPIN  2
     eigenvalues:
       0.527  0.528  0.971  0.973  0.973
     eigenvectors (columns):
       0.001  0.000  0.998  0.047 -0.038
       0.577 -0.599 -0.032  0.273 -0.483
      -0.600 -0.576  0.013 -0.482 -0.274
      -0.383  0.402 -0.046  0.407 -0.724
      -0.401 -0.384 -0.017  0.725  0.408
     occupation matrix ns (before diag.):
       0.971 -0.000  0.000  0.000  0.000
      -0.000  0.665  0.001  0.206  0.001
       0.000  0.001  0.665  0.001 -0.206
       0.000  0.206  0.001  0.836  0.000
       0.000  0.001 -0.206  0.000  0.836

     Number of occupied Hubbard levels =   18.8062

     negative rho (up, down):  3.160E-02 3.162E-02

     total cpu time spent up to now is      265.5 secs

     total energy              =   -5537.86053986 Ry
     estimated scf accuracy    <       3.17946889 Ry

     total magnetization       =     0.00 Bohr mag/cell
     absolute magnetization    =    14.65 Bohr mag/cell

     iteration #  2     ecut=    90.00 Ry     beta= 0.50
     Davidson diagonalization with overlap
     ethr =  2.27E-03,  avg # of iterations =  5.0

     negative rho (up, down):  2.925E-02 2.925E-02

     total cpu time spent up to now is      366.2 secs

     total energy              =   -5532.27168708 Ry
     estimated scf accuracy    <      69.41322355 Ry

     total magnetization       =    -0.00 Bohr mag/cell
     absolute magnetization    =     3.90 Bohr mag/cell

     iteration #  3     ecut=    90.00 Ry     beta= 0.50
     Davidson diagonalization with overlap
     ethr =  2.27E-03,  avg # of iterations =  3.2

     negative rho (up, down):  3.086E-02 3.086E-02

     total cpu time spent up to now is      442.5 secs

     total energy              =   -5539.62782538 Ry
     estimated scf accuracy    <       0.94029569 Ry

     total magnetization       =     0.00 Bohr mag/cell
     absolute magnetization    =    15.28 Bohr mag/cell

     iteration #  4     ecut=    90.00 Ry     beta= 0.50
     Davidson diagonalization with overlap
     ethr =  6.72E-04,  avg # of iterations =  1.7

     negative rho (up, down):  3.153E-02 3.154E-02

     total cpu time spent up to now is      497.9 secs

     total energy              =   -5539.66559044 Ry
     estimated scf accuracy    <       0.17951595 Ry

     total magnetization       =     0.00 Bohr mag/cell
     absolute magnetization    =    15.61 Bohr mag/cell

     iteration #  5     ecut=    90.00 Ry     beta= 0.50
     Davidson diagonalization with overlap
     ethr =  1.28E-04,  avg # of iterations =  3.3

     negative rho (up, down):  3.149E-02 3.150E-02

     total cpu time spent up to now is      561.0 secs

     total energy              =   -5539.69560717 Ry
     estimated scf accuracy    <       0.01894354 Ry

     total magnetization       =     0.00 Bohr mag/cell
     absolute magnetization    =    15.96 Bohr mag/cell

     iteration #  6     ecut=    90.00 Ry     beta= 0.50
     Davidson diagonalization with overlap
     ethr =  1.35E-05,  avg # of iterations =  8.2

     negative rho (up, down):  3.148E-02 3.150E-02

     total cpu time spent up to now is      671.8 secs

     total energy              =   -5539.70037735 Ry
     estimated scf accuracy    <       0.01636172 Ry

     total magnetization       =    -0.00 Bohr mag/cell
     absolute magnetization    =    16.50 Bohr mag/cell

     iteration #  7     ecut=    90.00 Ry     beta= 0.50
     Davidson diagonalization with overlap
     ethr =  1.17E-05,  avg # of iterations =  6.3

     negative rho (up, down):  3.153E-02 3.154E-02

     total cpu time spent up to now is      748.7 secs

     total energy              =   -5539.70247153 Ry
     estimated scf accuracy    <       0.00359629 Ry

     total magnetization       =     0.00 Bohr mag/cell
     absolute magnetization    =    16.67 Bohr mag/cell

     iteration #  8     ecut=    90.00 Ry     beta= 0.50
     Davidson diagonalization with overlap
     ethr =  2.57E-06,  avg # of iterations =  4.0

     negative rho (up, down):  3.151E-02 3.152E-02

     total cpu time spent up to now is      815.7 secs

     total energy              =   -5539.70280764 Ry
     estimated scf accuracy    <       0.00037691 Ry

     total magnetization       =    -0.00 Bohr mag/cell
     absolute magnetization    =    16.65 Bohr mag/cell

     iteration #  9     ecut=    90.00 Ry     beta= 0.50
     Davidson diagonalization with overlap
     ethr =  2.69E-07,  avg # of iterations =  4.0

     negative rho (up, down):  3.149E-02 3.150E-02

     total cpu time spent up to now is      898.5 secs

     total energy              =   -5539.70299662 Ry
     estimated scf accuracy    <       0.00006443 Ry

     total magnetization       =    -0.00 Bohr mag/cell
     absolute magnetization    =    16.63 Bohr mag/cell

     iteration # 10     ecut=    90.00 Ry     beta= 0.50
     Davidson diagonalization with overlap
     ethr =  4.60E-08,  avg # of iterations =  2.0

     negative rho (up, down):  3.144E-02 3.145E-02

     total cpu time spent up to now is      956.5 secs

     total energy              =   -5539.70301507 Ry
     estimated scf accuracy    <       0.00003734 Ry

     total magnetization       =    -0.00 Bohr mag/cell
     absolute magnetization    =    16.64 Bohr mag/cell

     iteration # 11     ecut=    90.00 Ry     beta= 0.50
     Davidson diagonalization with overlap
     ethr =  2.67E-08,  avg # of iterations =  2.0

     negative rho (up, down):  3.141E-02 3.142E-02

     total cpu time spent up to now is     1012.6 secs

     total energy              =   -5539.70303332 Ry
     estimated scf accuracy    <       0.00000599 Ry

     total magnetization       =     0.00 Bohr mag/cell
     absolute magnetization    =    16.67 Bohr mag/cell

     iteration # 12     ecut=    90.00 Ry     beta= 0.50
     Davidson diagonalization with overlap
     ethr =  4.28E-09,  avg # of iterations =  3.8

     negative rho (up, down):  3.139E-02 3.141E-02

     total cpu time spent up to now is     1091.3 secs

     total energy              =   -5539.70303954 Ry
     estimated scf accuracy    <       0.00000910 Ry

     total magnetization       =     0.00 Bohr mag/cell
     absolute magnetization    =    16.70 Bohr mag/cell

     iteration # 13     ecut=    90.00 Ry     beta= 0.50
     Davidson diagonalization with overlap
     ethr =  4.28E-09,  avg # of iterations =  2.0

     negative rho (up, down):  3.139E-02 3.140E-02

     total cpu time spent up to now is     1150.7 secs

     total energy              =   -5539.70304158 Ry
     estimated scf accuracy    <       0.00000132 Ry

     total magnetization       =     0.00 Bohr mag/cell
     absolute magnetization    =    16.71 Bohr mag/cell

     iteration # 14     ecut=    90.00 Ry     beta= 0.50
     Davidson diagonalization with overlap
     ethr =  9.43E-10,  avg # of iterations =  3.2

     negative rho (up, down):  3.139E-02 3.140E-02

     total cpu time spent up to now is     1224.2 secs

     total energy              =   -5539.70304256 Ry
     estimated scf accuracy    <       0.00000033 Ry

     total magnetization       =     0.00 Bohr mag/cell
     absolute magnetization    =    16.72 Bohr mag/cell

     iteration # 15     ecut=    90.00 Ry     beta= 0.50
     Davidson diagonalization with overlap
     ethr =  2.37E-10,  avg # of iterations =  2.3

     negative rho (up, down):  3.140E-02 3.141E-02

     total cpu time spent up to now is     1293.3 secs

     total energy              =   -5539.70304275 Ry
     estimated scf accuracy    <       0.00000004 Ry

     total magnetization       =    -0.00 Bohr mag/cell
     absolute magnetization    =    16.72 Bohr mag/cell

     iteration # 16     ecut=    90.00 Ry     beta= 0.50
     Davidson diagonalization with overlap
     ethr =  2.94E-11,  avg # of iterations =  3.8

     negative rho (up, down):  3.140E-02 3.141E-02

     total cpu time spent up to now is     1376.2 secs

     total energy              =   -5539.70304278 Ry
     estimated scf accuracy    <       0.00000002 Ry

     total magnetization       =    -0.00 Bohr mag/cell
     absolute magnetization    =    16.72 Bohr mag/cell

     iteration # 17     ecut=    90.00 Ry     beta= 0.50
     Davidson diagonalization with overlap
     ethr =  1.54E-11,  avg # of iterations =  1.7

     negative rho (up, down):  3.140E-02 3.141E-02

     total cpu time spent up to now is     1430.9 secs

     total energy              =   -5539.70304279 Ry
     estimated scf accuracy    <          2.0E-09 Ry

     total magnetization       =    -0.00 Bohr mag/cell
     absolute magnetization    =    16.72 Bohr mag/cell

     iteration # 18     ecut=    90.00 Ry     beta= 0.50
     Davidson diagonalization with overlap
     ethr =  1.43E-12,  avg # of iterations =  4.0

     negative rho (up, down):  3.140E-02 3.141E-02

     total cpu time spent up to now is     1509.8 secs

     total energy              =   -5539.70304279 Ry
     estimated scf accuracy    <          3.3E-09 Ry

     total magnetization       =    -0.00 Bohr mag/cell
     absolute magnetization    =    16.72 Bohr mag/cell

     iteration # 19     ecut=    90.00 Ry     beta= 0.50
     Davidson diagonalization with overlap
     ethr =  1.43E-12,  avg # of iterations =  2.0

     negative rho (up, down):  3.140E-02 3.141E-02

     total cpu time spent up to now is     1566.1 secs

     total energy              =   -5539.70304279 Ry
     estimated scf accuracy    <          5.7E-10 Ry

     total magnetization       =     0.00 Bohr mag/cell
     absolute magnetization    =    16.73 Bohr mag/cell

     iteration # 20     ecut=    90.00 Ry     beta= 0.50
     Davidson diagonalization with overlap
     ethr =  4.09E-13,  avg # of iterations =  1.6

     negative rho (up, down):  3.140E-02 3.141E-02

     total cpu time spent up to now is     1620.8 secs

     total energy              =   -5539.70304279 Ry
     estimated scf accuracy    <          6.5E-11 Ry

     total magnetization       =     0.00 Bohr mag/cell
     absolute magnetization    =    16.73 Bohr mag/cell

     iteration # 21     ecut=    90.00 Ry     beta= 0.50
     Davidson diagonalization with overlap
     ethr =  1.00E-13,  avg # of iterations =  2.8

     negative rho (up, down):  3.140E-02 3.141E-02

     total cpu time spent up to now is     1681.9 secs

     total energy              =   -5539.70304279 Ry
     estimated scf accuracy    <          7.6E-11 Ry

     total magnetization       =     0.00 Bohr mag/cell
     absolute magnetization    =    16.73 Bohr mag/cell

     iteration # 22     ecut=    90.00 Ry     beta= 0.50
     Davidson diagonalization with overlap
     ethr =  1.00E-13,  avg # of iterations =  1.2

     negative rho (up, down):  3.140E-02 3.141E-02

     total cpu time spent up to now is     1734.9 secs

     total energy              =   -5539.70304279 Ry
     estimated scf accuracy    <          2.1E-11 Ry

     total magnetization       =    -0.00 Bohr mag/cell
     absolute magnetization    =    16.73 Bohr mag/cell

     iteration # 23     ecut=    90.00 Ry     beta= 0.50
     Davidson diagonalization with overlap
     ethr =  1.00E-13,  avg # of iterations =  1.0

     negative rho (up, down):  3.140E-02 3.141E-02

     Magnetic moment per site  (integrated on atomic sphere of radius R)
     atom   1 (R=0.162)  charge= 12.3974  magn=  3.2500
     atom   2 (R=0.162)  charge= 12.3974  magn=  3.2500
     atom   3 (R=0.162)  charge=  4.0434  magn= -0.1210
     atom   4 (R=0.162)  charge=  4.0444  magn= -0.1239
     atom   5 (R=0.162)  charge=  4.0444  magn= -0.1239
     atom   6 (R=0.162)  charge=  4.0460  magn= -0.1252
     atom   7 (R=0.162)  charge=  4.0458  magn= -0.1263
     atom   8 (R=0.162)  charge=  4.0458  magn= -0.1263
     atom   9 (R=0.162)  charge= 12.3973  magn= -3.2499
     atom  10 (R=0.162)  charge= 12.3973  magn= -3.2499
     atom  11 (R=0.162)  charge=  4.0459  magn=  0.1252
     atom  12 (R=0.162)  charge=  4.0457  magn=  0.1263
     atom  13 (R=0.162)  charge=  4.0457  magn=  0.1263
     atom  14 (R=0.162)  charge=  4.0433  magn=  0.1210
     atom  15 (R=0.162)  charge=  4.0443  magn=  0.1239
     atom  16 (R=0.162)  charge=  4.0443  magn=  0.1239

     total cpu time spent up to now is     1786.7 secs

     End of self-consistent calculation

     =================== HUBBARD OCCUPATIONS ===================
     ------------------------ ATOM    1 ------------------------
     Tr[ns(  1)] (up, down, total) =   4.39479  1.07603  5.47083
     Atomic magnetic moment for atom   1 =   3.31876
     SPIN  1
     eigenvalues:
       0.706  0.707  0.994  0.994  0.994
     eigenvectors (columns):
       0.002  0.001 -0.997 -0.070 -0.030
       0.502 -0.652  0.041 -0.404 -0.398
      -0.653 -0.501 -0.018  0.396 -0.407
      -0.345  0.452  0.058 -0.586 -0.575
      -0.450 -0.347  0.022 -0.576  0.587
     occupation matrix ns (before diag.):
       0.994 -0.000  0.001  0.000  0.000
      -0.000  0.800  0.001  0.134  0.000
       0.001  0.001  0.799  0.000 -0.135
       0.000  0.134  0.000  0.901  0.000
       0.000  0.000 -0.135  0.000  0.901
     SPIN  2
     eigenvalues:
       0.100  0.107  0.108  0.379  0.381
     eigenvectors (columns):
       0.999  0.033 -0.023  0.002  0.000
      -0.002  0.349  0.455  0.432 -0.696
      -0.021  0.456 -0.347 -0.697 -0.431
      -0.001  0.498  0.651 -0.301  0.488
       0.034 -0.649  0.498 -0.487 -0.302
     occupation matrix ns (before diag.):
       0.101  0.000 -0.000 -0.000 -0.001
       0.000  0.291  0.000 -0.128  0.000
      -0.000  0.000  0.290 -0.001  0.128
      -0.000 -0.128 -0.001  0.197 -0.000
      -0.001  0.000  0.128 -0.000  0.197
     ------------------------ ATOM    2 ------------------------
     Tr[ns(  2)] (up, down, total) =   4.39479  1.07603  5.47083
     Atomic magnetic moment for atom   2 =   3.31876
     SPIN  1
     eigenvalues:
       0.706  0.707  0.994  0.994  0.994
     eigenvectors (columns):
       0.002  0.001 -0.997 -0.070 -0.030
       0.502 -0.652  0.041 -0.404 -0.398
       0.653  0.501  0.018 -0.396  0.407
      -0.345  0.452  0.058 -0.586 -0.575
       0.450  0.347 -0.022  0.576 -0.587
     occupation matrix ns (before diag.):
       0.994 -0.000 -0.001  0.000 -0.000
      -0.000  0.800 -0.001  0.134 -0.000
      -0.001 -0.001  0.799 -0.000 -0.135
       0.000  0.134 -0.000  0.901 -0.000
      -0.000 -0.000 -0.135 -0.000  0.901
     SPIN  2
     eigenvalues:
       0.100  0.107  0.108  0.379  0.381
     eigenvectors (columns):
      -0.999 -0.033 -0.023 -0.002 -0.000
       0.002 -0.349  0.455 -0.432  0.696
      -0.021  0.456  0.347 -0.697 -0.431
       0.001 -0.498  0.651  0.301 -0.488
       0.034 -0.649 -0.498 -0.487 -0.302
     occupation matrix ns (before diag.):
       0.101  0.000  0.000 -0.000  0.001
       0.000  0.291 -0.000 -0.128 -0.000
       0.000 -0.000  0.290  0.001  0.128
      -0.000 -0.128  0.001  0.197  0.000
       0.001 -0.000  0.128  0.000  0.197
     ------------------------ ATOM    9 ------------------------
     Tr[ns(  9)] (up, down, total) =   1.07603  4.39480  5.47083
     Atomic magnetic moment for atom   9 =  -3.31876
     SPIN  1
     eigenvalues:
       0.100  0.107  0.108  0.379  0.381
     eigenvectors (columns):
      -0.999 -0.033 -0.023 -0.002 -0.000
       0.002 -0.350  0.454 -0.433  0.696
      -0.021  0.455  0.348 -0.697 -0.432
       0.001 -0.499  0.650  0.301 -0.488
       0.034 -0.649 -0.500 -0.487 -0.303
     occupation matrix ns (before diag.):
       0.101  0.000  0.000 -0.000  0.001
       0.000  0.291 -0.000 -0.128 -0.000
       0.000 -0.000  0.290  0.001  0.128
      -0.000 -0.128  0.001  0.197  0.000
       0.001 -0.000  0.128  0.000  0.197
     SPIN  2
     eigenvalues:
       0.706  0.707  0.994  0.994  0.994
     eigenvectors (columns):
       0.002  0.001 -0.997 -0.070 -0.029
       0.502 -0.652  0.041 -0.403 -0.399
       0.653  0.501  0.018 -0.397  0.406
      -0.345  0.452  0.058 -0.584 -0.577
       0.451  0.346 -0.022  0.578 -0.585
     occupation matrix ns (before diag.):
       0.994 -0.000 -0.001  0.000 -0.000
      -0.000  0.800 -0.001  0.134 -0.000
      -0.001 -0.001  0.799 -0.000 -0.135
       0.000  0.134 -0.000  0.901 -0.000
      -0.000 -0.000 -0.135 -0.000  0.901
     ------------------------ ATOM   10 ------------------------
     Tr[ns( 10)] (up, down, total) =   1.07603  4.39480  5.47083
     Atomic magnetic moment for atom  10 =  -3.31876
     SPIN  1
     eigenvalues:
       0.100  0.107  0.108  0.379  0.381
     eigenvectors (columns):
       0.999  0.033 -0.023  0.002  0.000
      -0.002  0.350  0.454  0.433 -0.696
      -0.021  0.455 -0.348 -0.697 -0.432
      -0.001  0.499  0.650 -0.301  0.488
       0.034 -0.649  0.500 -0.487 -0.303
     occupation matrix ns (before diag.):
       0.101  0.000 -0.000 -0.000 -0.001
       0.000  0.291  0.000 -0.128  0.000
      -0.000  0.000  0.290 -0.001  0.128
      -0.000 -0.128 -0.001  0.197 -0.000
      -0.001  0.000  0.128 -0.000  0.197
     SPIN  2
     eigenvalues:
       0.706  0.707  0.994  0.994  0.994
     eigenvectors (columns):
       0.002  0.001 -0.997 -0.070 -0.029
       0.502 -0.652  0.041 -0.403 -0.399
      -0.653 -0.501 -0.018  0.397 -0.406
      -0.345  0.452  0.058 -0.584 -0.577
      -0.451 -0.346  0.022 -0.578  0.585
     occupation matrix ns (before diag.):
       0.994 -0.000  0.001  0.000  0.000
      -0.000  0.800  0.001  0.134  0.000
       0.001  0.001  0.799  0.000 -0.135
       0.000  0.134  0.000  0.901  0.000
       0.000  0.000 -0.135  0.000  0.901

     Number of occupied Hubbard levels =   21.8833

 ------ SPIN UP ------------


          k = 0.0000 0.0000 0.0000 (109591 PWs)   bands (ev):

   -78.4437 -78.4426 -75.0622 -75.0611 -49.7815 -49.7801 -49.7755 -49.7750
   -49.7722 -49.7716 -46.4639 -46.4623 -46.4421 -46.4413 -46.4380 -46.4373
   -18.5967 -18.4890 -17.8119 -17.6369 -17.5013 -17.4970 -17.4305 -17.4276
   -17.3085 -17.3072 -17.3056 -17.3043 -10.4482 -10.1269  -9.9752  -9.5871
    -9.5845  -9.4833  -9.4829  -9.2979  -8.9535  -8.9091  -8.8052  -8.7442
    -8.6642  -8.6361  -8.5882  -8.5812  -8.5017  -8.1707  -8.0960  -7.8297
    -7.7910  -7.6030  -7.5602  -7.4830  -7.4522  -7.3573  -7.2772  -7.2177
    -7.1141  -6.9624  -6.9288  -6.8778  -6.7433  -6.3475  -6.3373  -6.2391
    -6.2351  -6.1128  -5.8511  -5.8497  -5.6624  -5.6611  -4.5280  -4.5174
    -4.0483  -4.0468  -2.6529  -2.6526  -2.5492  -2.5398  -2.3899  -2.3773
    -2.0921  -2.0903  -2.0259  -2.0233  -0.7367  -0.4459  -0.1020   0.0572
     0.1415   0.2354   0.7931   0.7968   0.9931   1.0140   1.3852   1.5564
     1.6091   1.6856   1.8053   1.9780

          k = 0.0000 0.1925 0.0000 (109722 PWs)   bands (ev):

   -78.4437 -78.4427 -75.0621 -75.0610 -49.7815 -49.7802 -49.7755 -49.7748
   -49.7724 -49.7715 -46.4639 -46.4624 -46.4422 -46.4411 -46.4381 -46.4373
   -18.5380 -18.4309 -17.7740 -17.6106 -17.5815 -17.5344 -17.5033 -17.4506
   -17.3286 -17.3233 -17.3066 -17.3020 -10.4164 -10.0763  -9.9483  -9.6746
    -9.6398  -9.4158  -9.3465  -9.2891  -9.0279  -8.9527  -8.7786  -8.7338
    -8.7159  -8.6314  -8.6124  -8.3313  -8.2351  -8.0747  -8.0054  -7.8903
    -7.7535  -7.7236  -7.6073  -7.5609  -7.4262  -7.2871  -7.2451  -7.1891
    -7.0211  -6.9801  -6.9379  -6.7979  -6.7018  -6.4398  -6.3745  -6.3056
    -6.2552  -6.1903  -6.0759  -5.9445  -5.8486  -5.6976  -4.5182  -4.4869
    -4.2365  -4.0950  -2.6427  -2.6203  -2.5695  -2.5305  -2.3817  -2.2874
    -2.1484  -2.0909  -2.0849  -2.0783  -0.6945  -0.1437   0.0568   0.3277
     0.4353   0.5246   0.6371   0.6632   0.9394   1.1457   1.3400   1.4364
     1.6820   1.7240   1.8446   1.9361

          k = 0.0000 0.3849 0.0000 (109616 PWs)   bands (ev):

   -78.4438 -78.4428 -75.0619 -75.0608 -49.7814 -49.7803 -49.7755 -49.7743
   -49.7729 -49.7713 -46.4637 -46.4625 -46.4424 -46.4406 -46.4386 -46.4374
   -18.3772 -18.2734 -17.7895 -17.7027 -17.6752 -17.5881 -17.5307 -17.4856
   -17.3910 -17.3561 -17.3331 -17.3157 -10.4152  -9.9326  -9.8551  -9.6567
    -9.5382  -9.3687  -9.2821  -9.2209  -9.1419  -8.8907  -8.8435  -8.7161
    -8.6122  -8.6008  -8.4272  -8.3241  -8.1076  -8.0338  -8.0066  -7.8910
    -7.7180  -7.6941  -7.6573  -7.3995  -7.3431  -7.3209  -7.2055  -7.1648
    -7.0862  -7.0462  -6.9574  -6.7636  -6.7033  -6.6236  -6.4631  -6.3783
    -6.3068  -6.2838  -6.2006  -6.1082  -5.9176  -5.7687  -4.4909  -4.4258
    -4.3582  -4.2490  -2.6601  -2.6174  -2.5855  -2.5041  -2.4648  -2.2429
    -2.2332  -2.1098  -2.0745  -2.0130  -0.8865  -0.1664   0.0897   0.5230
     0.5732   0.7432   0.8226   1.0258   1.0334   1.1164   1.2070   1.2708
     1.4270   1.5121   1.5838   1.7248

          k = 0.0000-0.5774 0.0000 (109602 PWs)   bands (ev):

   -78.4439 -78.4428 -75.0618 -75.0607 -49.7814 -49.7803 -49.7755 -49.7739
   -49.7733 -49.7712 -46.4637 -46.4625 -46.4425 -46.4402 -46.4390 -46.4374
   -18.2245 -18.1271 -17.9652 -17.8635 -17.6140 -17.5876 -17.5053 -17.4594
   -17.4562 -17.4050 -17.3542 -17.3236 -10.4477  -9.8250  -9.7854  -9.6352
    -9.3822  -9.3161  -9.2496  -9.1731  -9.1242  -8.9532  -8.8485  -8.6076
    -8.5731  -8.5430  -8.5202  -8.4728  -8.1959  -8.0994  -8.0289  -7.8058
    -7.7525  -7.6385  -7.4778  -7.4119  -7.3913  -7.3512  -7.3357  -7.2201
    -7.2036  -6.8792  -6.8773  -6.7488  -6.6503  -6.5628  -6.5430  -6.4937
    -6.3574  -6.2847  -6.2575  -6.0508  -5.9516  -5.7447  -4.4489  -4.4309
    -4.3795  -4.2718  -2.7457  -2.6122  -2.5871  -2.5431  -2.4394  -2.3352
    -2.2224  -2.0414  -2.0324  -1.9824  -1.1355  -0.3603   0.1123   0.1606
     0.5342   0.7342   0.8737   0.9014   1.0423   1.2284   1.2720   1.3993
     1.4777   1.5042   1.5863   1.5966

          k = 0.1667 0.2887 0.0000 (109615 PWs)   bands (ev):

   -78.4438 -78.4427 -75.0619 -75.0609 -49.7814 -49.7802 -49.7755 -49.7746
   -49.7725 -49.7715 -46.4638 -46.4625 -46.4423 -46.4408 -46.4386 -46.4373
   -18.4266 -18.3222 -17.7129 -17.7059 -17.6382 -17.5876 -17.5540 -17.4954
   -17.3660 -17.3476 -17.3225 -17.3062 -10.3430 -10.0286  -9.8660  -9.7726
    -9.4787  -9.4043  -9.2897  -9.2470  -9.0823  -8.9715  -8.8642  -8.7552
    -8.6357  -8.5512  -8.4619  -8.2671  -8.0635  -8.0328  -7.9825  -7.8799
    -7.8285  -7.7681  -7.6504  -7.4565  -7.3593  -7.2698  -7.2051  -7.1553
    -7.0879  -6.9776  -6.8735  -6.8614  -6.6947  -6.5295  -6.4584  -6.4090
    -6.2883  -6.2205  -6.1943  -6.0869  -5.9242  -5.7599  -4.5006  -4.4347
    -4.4118  -4.1256  -2.6493  -2.5832  -2.5574  -2.5203  -2.4884  -2.2208
    -2.1980  -2.1643  -2.0558  -2.0341  -0.7142  -0.2772   0.1080   0.3654
     0.5089   0.6582   0.7864   0.8914   1.1101   1.1421   1.2492   1.3663
     1.5145   1.5985   1.6701   1.6894

          k = 0.1667 0.4811 0.0000 (109606 PWs)   bands (ev):

   -78.4439 -78.4428 -75.0618 -75.0607 -49.7814 -49.7803 -49.7755 -49.7741
   -49.7731 -49.7713 -46.4637 -46.4625 -46.4425 -46.4402 -46.4391 -46.4373
   -18.2416 -18.1425 -17.9114 -17.8282 -17.6513 -17.5984 -17.5410 -17.4744
   -17.4368 -17.3926 -17.3501 -17.3192 -10.2921  -9.8903  -9.7316  -9.7080
    -9.4044  -9.3595  -9.2488  -9.2227  -9.1050  -9.0229  -8.8438  -8.6889
    -8.6617  -8.5378  -8.4130  -8.3340  -8.2387  -8.1249  -7.9634  -7.8833
    -7.7576  -7.6577  -7.6023  -7.5106  -7.4287  -7.3658  -7.1745  -7.1471
    -7.0241  -6.9564  -6.8049  -6.7201  -6.6681  -6.6143  -6.5447  -6.4940
    -6.3250  -6.2486  -6.2108  -6.1226  -5.9066  -5.7847  -4.4692  -4.4162
    -4.3573  -4.1783  -2.6697  -2.5936  -2.5687  -2.5564  -2.4659  -2.3375
    -2.2849  -2.0650  -1.9848  -1.9671  -0.9683  -0.4406  -0.2414   0.2034
     0.3347   0.5713   0.6559   0.7740   0.9417   1.0434   1.1001   1.2201
     1.2595   1.3793   1.5343   1.6353

          k = 0.3333 0.5774 0.0000 (109542 PWs)   bands (ev):

   -78.4439 -78.4428 -75.0617 -75.0607 -49.7814 -49.7803 -49.7755 -49.7740
   -49.7730 -49.7714 -46.4636 -46.4626 -46.4423 -46.4403 -46.4393 -46.4373
   -18.0715 -18.0556 -17.9801 -17.9727 -17.7055 -17.5899 -17.5138 -17.4976
   -17.4319 -17.4099 -17.3710 -17.3242  -9.9520  -9.9484  -9.8828  -9.4996
    -9.4734  -9.3479  -9.3248  -9.1780  -9.1644  -8.9593  -8.8785  -8.8145
    -8.6856  -8.6717  -8.2657  -8.2197  -8.2155  -8.0956  -8.0751  -8.0343
    -7.9053  -7.6559  -7.6554  -7.5550  -7.5312  -7.1359  -7.0756  -7.0412
    -6.9286  -6.8762  -6.8445  -6.7682  -6.6456  -6.6194  -6.5959  -6.5219
    -6.3125  -6.2205  -6.1896  -6.1334  -5.8697  -5.8104  -4.4785  -4.3487
    -4.3455  -4.0902  -2.6061  -2.6057  -2.5649  -2.5200  -2.4822  -2.4811
    -2.2873  -2.0207  -1.9392  -1.9379  -0.8712  -0.8393  -0.2415  -0.2012
     0.2380   0.3466   0.3864   0.5817   0.7005   0.7565   0.9762   1.0524
     1.1352   1.2747   1.4388   1.4458

          k =-0.1667 0.0962 0.0000 (109722 PWs)   bands (ev):

   -78.4437 -78.4427 -75.0621 -75.0610 -49.7815 -49.7802 -49.7756 -49.7748
   -49.7723 -49.7716 -46.4639 -46.4624 -46.4420 -46.4414 -46.4381 -46.4373
   -18.5376 -18.4309 -17.7739 -17.6110 -17.5853 -17.5301 -17.5063 -17.4486
   -17.3313 -17.3210 -17.3050 -17.3026 -10.4184 -10.0752  -9.9419  -9.6754
    -9.6442  -9.4104  -9.3512  -9.2938  -9.0216  -8.9391  -8.8329  -8.7191
    -8.6716  -8.6562  -8.6000  -8.3379  -8.2279  -8.1198  -7.9631  -7.8859
    -7.7706  -7.7149  -7.6160  -7.5513  -7.4254  -7.3083  -7.2481  -7.1841
    -7.0451  -6.9850  -6.8559  -6.8104  -6.7055  -6.4495  -6.4105  -6.2969
    -6.2326  -6.2094  -6.0668  -5.9420  -5.8452  -5.7010  -4.5140  -4.4905
    -4.2357  -4.0955  -2.6429  -2.6208  -2.5664  -2.5343  -2.3797  -2.2904
    -2.1469  -2.0910  -2.0843  -2.0776  -0.7074  -0.1294   0.0838   0.3266
     0.4033   0.5435   0.6133   0.6344   0.9927   1.1712   1.2515   1.4643
     1.6453   1.7606   1.8854   1.9468

          k =-0.3333 0.1925 0.0000 (109616 PWs)   bands (ev):

   -78.4438 -78.4428 -75.0619 -75.0608 -49.7814 -49.7802 -49.7756 -49.7744
   -49.7726 -49.7715 -46.4637 -46.4625 -46.4418 -46.4414 -46.4384 -46.4374
   -18.3741 -18.2744 -17.7959 -17.7065 -17.6698 -17.5862 -17.5342 -17.4830
   -17.3936 -17.3491 -17.3374 -17.3141 -10.4167  -9.9254  -9.8595  -9.6539
    -9.5289  -9.3690  -9.2845  -9.2408  -9.1277  -8.9082  -8.8426  -8.7143
    -8.6219  -8.5721  -8.4324  -8.3127  -8.1196  -8.0326  -8.0225  -7.8898
    -7.7211  -7.6953  -7.6355  -7.4010  -7.3648  -7.3052  -7.2125  -7.1974
    -7.1008  -7.0184  -6.9316  -6.7389  -6.6946  -6.6352  -6.4980  -6.4035
    -6.2996  -6.2545  -6.1920  -6.0672  -5.9429  -5.7968  -4.4920  -4.4167
    -4.3577  -4.2485  -2.6610  -2.6173  -2.5871  -2.5031  -2.4626  -2.2417
    -2.2304  -2.1118  -2.0758  -2.0124  -0.9151  -0.1256   0.0639   0.4593
     0.6048   0.7678   0.8671   1.0147   1.0581   1.1338   1.1667   1.2958
     1.4309   1.4614   1.6069   1.6984

          k = 0.5000-0.2887 0.0000 (109602 PWs)   bands (ev):

   -78.4439 -78.4428 -75.0618 -75.0607 -49.7814 -49.7803 -49.7756 -49.7741
   -49.7729 -49.7714 -46.4637 -46.4625 -46.4418 -46.4413 -46.4386 -46.4374
   -18.2067 -18.1435 -17.9653 -17.8703 -17.6131 -17.5779 -17.5020 -17.4968
   -17.4282 -17.4011 -17.3596 -17.3213 -10.4480  -9.8323  -9.7749  -9.6297
    -9.3960  -9.2754  -9.2437  -9.1993  -9.1280  -8.9890  -8.8525  -8.6057
    -8.5408  -8.5320  -8.5014  -8.4624  -8.2581  -8.1139  -7.9969  -7.8213
    -7.7501  -7.6368  -7.4479  -7.4010  -7.3858  -7.3479  -7.3306  -7.3051
    -7.1977  -6.8957  -6.8112  -6.7519  -6.6358  -6.6091  -6.5413  -6.4965
    -6.3784  -6.2689  -6.1987  -6.0230  -5.9218  -5.8466  -4.4548  -4.4182
    -4.3763  -4.2653  -2.7469  -2.6124  -2.5866  -2.5427  -2.4361  -2.3325
    -2.2220  -2.0431  -2.0313  -1.9829  -1.1658  -0.3529   0.1223   0.1341
     0.5442   0.7737   0.8659   0.9310   0.9871   1.2364   1.3319   1.3817
     1.4575   1.4769   1.5852   1.6421

          k = 0.3333 0.0000 0.0000 (109615 PWs)   bands (ev):

   -78.4438 -78.4427 -75.0619 -75.0609 -49.7814 -49.7802 -49.7755 -49.7747
   -49.7723 -49.7716 -46.4638 -46.4625 -46.4419 -46.4414 -46.4385 -46.4373
   -18.4253 -18.3222 -17.7207 -17.7056 -17.6303 -17.5936 -17.5538 -17.4910
   -17.3737 -17.3391 -17.3232 -17.3066 -10.3473 -10.0264  -9.8505  -9.7798
    -9.4791  -9.4075  -9.2842  -9.2650  -9.0542  -8.9851  -8.8487  -8.7790
    -8.6399  -8.5687  -8.4018  -8.2959  -8.0977  -8.0087  -7.9880  -7.8731
    -7.8467  -7.7447  -7.6570  -7.4599  -7.3632  -7.2984  -7.1779  -7.1261
    -7.0935  -6.9982  -6.8716  -6.8307  -6.6980  -6.5428  -6.4659  -6.4297
    -6.2876  -6.1918  -6.1852  -6.0827  -5.9429  -5.7643  -4.5013  -4.4363
    -4.4041  -4.1260  -2.6510  -2.5848  -2.5561  -2.5217  -2.4878  -2.2135
    -2.2007  -2.1642  -2.0561  -2.0340  -0.7462  -0.2174   0.0649   0.3527
     0.4790   0.7060   0.8284   0.8773   1.0348   1.1625   1.2229   1.4060
     1.5603   1.6001   1.6375   1.7877

          k =-0.3333 0.3849 0.0000 (109606 PWs)   bands (ev):

   -78.4439 -78.4428 -75.0618 -75.0607 -49.7814 -49.7803 -49.7756 -49.7740
   -49.7730 -49.7714 -46.4637 -46.4625 -46.4422 -46.4408 -46.4388 -46.4374
   -18.2356 -18.1467 -17.9150 -17.8295 -17.6510 -17.5949 -17.5385 -17.4865
   -17.4302 -17.3876 -17.3547 -17.3176 -10.2929  -9.8839  -9.7356  -9.7133
    -9.3888  -9.3354  -9.2562  -9.2479  -9.1021  -9.0424  -8.8434  -8.6886
    -8.6582  -8.5179  -8.3793  -8.3609  -8.2581  -8.1256  -7.9675  -7.8846
    -7.7615  -7.6345  -7.6002  -7.5247  -7.4200  -7.3645  -7.2020  -7.1571
    -7.0366  -6.9174  -6.7816  -6.7465  -6.6753  -6.6035  -6.5276  -6.4981
    -6.3850  -6.1987  -6.1801  -6.1247  -5.8845  -5.8433  -4.4692  -4.4126
    -4.3548  -4.1764  -2.6704  -2.5937  -2.5681  -2.5555  -2.4639  -2.3382
    -2.2839  -2.0656  -1.9836  -1.9685  -0.9930  -0.4223  -0.2426   0.2057
     0.3087   0.5888   0.7051   0.7711   0.9205   1.0211   1.0777   1.2380
     1.2591   1.4240   1.4754   1.5841

          k = 0.5000 0.0962 0.0000 (109606 PWs)   bands (ev):

   -78.4439 -78.4428 -75.0618 -75.0607 -49.7814 -49.7803 -49.7755 -49.7745
   -49.7725 -49.7716 -46.4637 -46.4625 -46.4421 -46.4408 -46.4390 -46.4372
   -18.2339 -18.1458 -17.9224 -17.8247 -17.6526 -17.5962 -17.5340 -17.4835
   -17.4421 -17.3744 -17.3604 -17.3176 -10.2942  -9.8901  -9.7426  -9.6853
    -9.4092  -9.3466  -9.2559  -9.2255  -9.1001  -9.0378  -8.8589  -8.6927
    -8.6352  -8.5317  -8.4028  -8.3618  -8.2254  -8.1278  -7.9717  -7.8920
    -7.7612  -7.6417  -7.6021  -7.5067  -7.4192  -7.3770  -7.2191  -7.1213
    -7.0551  -6.9038  -6.7753  -6.7286  -6.6886  -6.6202  -6.5686  -6.4801
    -6.3510  -6.2321  -6.1490  -6.1043  -5.9294  -5.8310  -4.4646  -4.4123
    -4.3562  -4.1754  -2.6711  -2.5945  -2.5696  -2.5549  -2.4641  -2.3371
    -2.2809  -2.0642  -1.9848  -1.9684  -1.0004  -0.4186  -0.2416   0.1537
     0.3254   0.6105   0.7192   0.8157   0.8994   1.0005   1.0402   1.1883
     1.3531   1.4596   1.5360   1.5638

 ------ SPIN DOWN ----------


          k = 0.0000 0.0000 0.0000 (109591 PWs)   bands (ev):

   -78.4437 -78.4426 -75.0622 -75.0611 -49.7815 -49.7801 -49.7755 -49.7750
   -49.7722 -49.7716 -46.4639 -46.4624 -46.4421 -46.4413 -46.4380 -46.4373
   -18.5967 -18.4890 -17.8119 -17.6369 -17.5013 -17.4970 -17.4305 -17.4276
   -17.3085 -17.3072 -17.3056 -17.3043 -10.4482 -10.1269  -9.9752  -9.5871
    -9.5845  -9.4833  -9.4829  -9.2979  -8.9535  -8.9091  -8.8052  -8.7442
    -8.6642  -8.6361  -8.5882  -8.5812  -8.5017  -8.1707  -8.0960  -7.8297
    -7.7910  -7.6030  -7.5602  -7.4830  -7.4522  -7.3573  -7.2772  -7.2177
    -7.1141  -6.9624  -6.9288  -6.8778  -6.7433  -6.3475  -6.3373  -6.2391
    -6.2351  -6.1128  -5.8511  -5.8497  -5.6624  -5.6611  -4.5280  -4.5174
    -4.0483  -4.0468  -2.6529  -2.6526  -2.5492  -2.5398  -2.3899  -2.3773
    -2.0921  -2.0903  -2.0259  -2.0233  -0.7367  -0.4459  -0.1020   0.0572
     0.1415   0.2354   0.7931   0.7968   0.9931   1.0140   1.3852   1.5564
     1.6091   1.6856   1.8052   1.9780

          k = 0.0000 0.1925 0.0000 (109722 PWs)   bands (ev):

   -78.4437 -78.4427 -75.0621 -75.0610 -49.7814 -49.7802 -49.7755 -49.7748
   -49.7724 -49.7715 -46.4639 -46.4624 -46.4422 -46.4411 -46.4381 -46.4373
   -18.5380 -18.4309 -17.7740 -17.6106 -17.5815 -17.5344 -17.5033 -17.4506
   -17.3286 -17.3233 -17.3066 -17.3020 -10.4164 -10.0763  -9.9483  -9.6746
    -9.6398  -9.4158  -9.3465  -9.2891  -9.0279  -8.9527  -8.7786  -8.7338
    -8.7158  -8.6314  -8.6124  -8.3313  -8.2351  -8.0747  -8.0054  -7.8903
    -7.7535  -7.7236  -7.6073  -7.5609  -7.4262  -7.2871  -7.2451  -7.1891
    -7.0211  -6.9801  -6.9379  -6.7979  -6.7018  -6.4398  -6.3745  -6.3056
    -6.2552  -6.1903  -6.0759  -5.9445  -5.8486  -5.6975  -4.5183  -4.4869
    -4.2365  -4.0950  -2.6427  -2.6203  -2.5695  -2.5305  -2.3817  -2.2874
    -2.1484  -2.0909  -2.0849  -2.0783  -0.6945  -0.1437   0.0568   0.3276
     0.4353   0.5246   0.6371   0.6632   0.9394   1.1457   1.3400   1.4364
     1.6820   1.7239   1.8446   1.9361

          k = 0.0000 0.3849 0.0000 (109616 PWs)   bands (ev):

   -78.4438 -78.4428 -75.0619 -75.0608 -49.7814 -49.7802 -49.7755 -49.7743
   -49.7729 -49.7713 -46.4638 -46.4625 -46.4424 -46.4406 -46.4386 -46.4374
   -18.3772 -18.2734 -17.7895 -17.7027 -17.6752 -17.5881 -17.5307 -17.4856
   -17.3910 -17.3561 -17.3331 -17.3157 -10.4152  -9.9326  -9.8551  -9.6567
    -9.5383  -9.3687  -9.2821  -9.2209  -9.1419  -8.8907  -8.8435  -8.7161
    -8.6122  -8.6008  -8.4272  -8.3241  -8.1076  -8.0338  -8.0066  -7.8910
    -7.7180  -7.6941  -7.6573  -7.3995  -7.3431  -7.3209  -7.2055  -7.1648
    -7.0862  -7.0462  -6.9574  -6.7636  -6.7033  -6.6236  -6.4631  -6.3783
    -6.3068  -6.2838  -6.2006  -6.1082  -5.9176  -5.7687  -4.4909  -4.4258
    -4.3582  -4.2490  -2.6601  -2.6175  -2.5855  -2.5041  -2.4648  -2.2430
    -2.2332  -2.1098  -2.0745  -2.0130  -0.8865  -0.1664   0.0897   0.5230
     0.5732   0.7432   0.8226   1.0258   1.0334   1.1164   1.2070   1.2707
     1.4270   1.5121   1.5838   1.7248

          k = 0.0000-0.5774 0.0000 (109602 PWs)   bands (ev):

   -78.4439 -78.4428 -75.0618 -75.0607 -49.7813 -49.7803 -49.7755 -49.7739
   -49.7733 -49.7712 -46.4637 -46.4626 -46.4425 -46.4402 -46.4390 -46.4374
   -18.2245 -18.1271 -17.9652 -17.8636 -17.6140 -17.5876 -17.5053 -17.4594
   -17.4562 -17.4050 -17.3542 -17.3236 -10.4477  -9.8250  -9.7854  -9.6352
    -9.3822  -9.3161  -9.2496  -9.1731  -9.1242  -8.9532  -8.8485  -8.6076
    -8.5731  -8.5429  -8.5202  -8.4728  -8.1959  -8.0994  -8.0289  -7.8058
    -7.7525  -7.6385  -7.4778  -7.4119  -7.3913  -7.3512  -7.3357  -7.2201
    -7.2035  -6.8792  -6.8773  -6.7488  -6.6503  -6.5628  -6.5430  -6.4937
    -6.3574  -6.2847  -6.2575  -6.0508  -5.9516  -5.7447  -4.4489  -4.4308
    -4.3795  -4.2719  -2.7457  -2.6122  -2.5871  -2.5431  -2.4394  -2.3352
    -2.2224  -2.0414  -2.0324  -1.9824  -1.1355  -0.3603   0.1122   0.1606
     0.5342   0.7342   0.8737   0.9014   1.0423   1.2284   1.2720   1.3993
     1.4777   1.5042   1.5863   1.5966

          k = 0.1667 0.2887 0.0000 (109615 PWs)   bands (ev):

   -78.4438 -78.4427 -75.0619 -75.0609 -49.7814 -49.7802 -49.7756 -49.7744
   -49.7727 -49.7714 -46.4638 -46.4625 -46.4422 -46.4410 -46.4384 -46.4374
   -18.4266 -18.3222 -17.7129 -17.7059 -17.6382 -17.5875 -17.5540 -17.4954
   -17.3660 -17.3476 -17.3226 -17.3062 -10.3430 -10.0286  -9.8660  -9.7727
    -9.4787  -9.4043  -9.2898  -9.2470  -9.0823  -8.9714  -8.8642  -8.7552
    -8.6357  -8.5512  -8.4620  -8.2671  -8.0635  -8.0328  -7.9825  -7.8800
    -7.8285  -7.7681  -7.6504  -7.4565  -7.3592  -7.2698  -7.2051  -7.1553
    -7.0879  -6.9776  -6.8736  -6.8614  -6.6948  -6.5295  -6.4584  -6.4090
    -6.2883  -6.2204  -6.1943  -6.0869  -5.9242  -5.7599  -4.5006  -4.4347
    -4.4118  -4.1256  -2.6493  -2.5832  -2.5574  -2.5203  -2.4884  -2.2208
    -2.1980  -2.1644  -2.0558  -2.0341  -0.7142  -0.2772   0.1080   0.3654
     0.5089   0.6582   0.7864   0.8914   1.1101   1.1421   1.2492   1.3663
     1.5145   1.5985   1.6701   1.6894

          k = 0.1667 0.4811 0.0000 (109606 PWs)   bands (ev):

   -78.4439 -78.4428 -75.0618 -75.0607 -49.7814 -49.7803 -49.7756 -49.7739
   -49.7733 -49.7713 -46.4637 -46.4626 -46.4424 -46.4403 -46.4390 -46.4374
   -18.2416 -18.1425 -17.9114 -17.8283 -17.6513 -17.5984 -17.5410 -17.4744
   -17.4368 -17.3926 -17.3501 -17.3192 -10.2921  -9.8902  -9.7316  -9.7080
    -9.4045  -9.3595  -9.2488  -9.2227  -9.1050  -9.0228  -8.8438  -8.6890
    -8.6616  -8.5379  -8.4130  -8.3341  -8.2387  -8.1249  -7.9634  -7.8832
    -7.7576  -7.6577  -7.6023  -7.5107  -7.4286  -7.3659  -7.1745  -7.1471
    -7.0241  -6.9564  -6.8049  -6.7202  -6.6681  -6.6143  -6.5447  -6.4941
    -6.3250  -6.2486  -6.2108  -6.1226  -5.9066  -5.7847  -4.4692  -4.4162
    -4.3573  -4.1783  -2.6697  -2.5936  -2.5687  -2.5565  -2.4659  -2.3375
    -2.2849  -2.0650  -1.9848  -1.9671  -0.9683  -0.4406  -0.2415   0.2034
     0.3347   0.5713   0.6559   0.7740   0.9417   1.0435   1.1001   1.2201
     1.2595   1.3793   1.5343   1.6353

          k = 0.3333 0.5774 0.0000 (109542 PWs)   bands (ev):

   -78.4439 -78.4428 -75.0617 -75.0607 -49.7813 -49.7803 -49.7755 -49.7740
   -49.7730 -49.7714 -46.4637 -46.4626 -46.4423 -46.4403 -46.4393 -46.4373
   -18.0716 -18.0555 -17.9801 -17.9727 -17.7055 -17.5899 -17.5138 -17.4975
   -17.4319 -17.4099 -17.3710 -17.3242  -9.9520  -9.9484  -9.8828  -9.4996
    -9.4734  -9.3479  -9.3248  -9.1780  -9.1644  -8.9593  -8.8785  -8.8145
    -8.6856  -8.6717  -8.2657  -8.2197  -8.2155  -8.0956  -8.0751  -8.0343
    -7.9053  -7.6559  -7.6554  -7.5550  -7.5312  -7.1359  -7.0756  -7.0412
    -6.9286  -6.8762  -6.8445  -6.7682  -6.6456  -6.6194  -6.5959  -6.5219
    -6.3125  -6.2205  -6.1896  -6.1334  -5.8697  -5.8104  -4.4785  -4.3487
    -4.3455  -4.0902  -2.6061  -2.6057  -2.5649  -2.5200  -2.4822  -2.4811
    -2.2873  -2.0207  -1.9392  -1.9379  -0.8712  -0.8393  -0.2415  -0.2012
     0.2380   0.3466   0.3864   0.5817   0.7005   0.7564   0.9762   1.0524
     1.1352   1.2747   1.4387   1.4458

          k =-0.1667 0.0962 0.0000 (109722 PWs)   bands (ev):

   -78.4437 -78.4427 -75.0621 -75.0610 -49.7815 -49.7802 -49.7755 -49.7749
   -49.7722 -49.7717 -46.4639 -46.4624 -46.4420 -46.4412 -46.4382 -46.4372
   -18.5376 -18.4309 -17.7739 -17.6110 -17.5853 -17.5301 -17.5063 -17.4485
   -17.3313 -17.3210 -17.3049 -17.3027 -10.4184 -10.0752  -9.9419  -9.6754
    -9.6442  -9.4104  -9.3512  -9.2938  -9.0216  -8.9391  -8.8329  -8.7191
    -8.6716  -8.6562  -8.6000  -8.3379  -8.2279  -8.1198  -7.9631  -7.8859
    -7.7705  -7.7149  -7.6160  -7.5513  -7.4253  -7.3083  -7.2481  -7.1841
    -7.0451  -6.9850  -6.8559  -6.8103  -6.7055  -6.4495  -6.4105  -6.2969
    -6.2326  -6.2094  -6.0668  -5.9420  -5.8452  -5.7010  -4.5140  -4.4905
    -4.2357  -4.0955  -2.6429  -2.6208  -2.5664  -2.5343  -2.3797  -2.2904
    -2.1470  -2.0909  -2.0843  -2.0778  -0.7074  -0.1294   0.0838   0.3266
     0.4033   0.5435   0.6133   0.6344   0.9927   1.1712   1.2515   1.4643
     1.6452   1.7606   1.8854   1.9468

          k =-0.3333 0.1925 0.0000 (109616 PWs)   bands (ev):

   -78.4438 -78.4428 -75.0619 -75.0608 -49.7814 -49.7802 -49.7754 -49.7747
   -49.7722 -49.7717 -46.4638 -46.4625 -46.4421 -46.4410 -46.4387 -46.4372
   -18.3741 -18.2744 -17.7959 -17.7065 -17.6697 -17.5863 -17.5342 -17.4830
   -17.3936 -17.3491 -17.3374 -17.3141 -10.4168  -9.9255  -9.8595  -9.6539
    -9.5289  -9.3690  -9.2845  -9.2408  -9.1278  -8.9082  -8.8426  -8.7143
    -8.6219  -8.5721  -8.4324  -8.3127  -8.1196  -8.0326  -8.0225  -7.8898
    -7.7211  -7.6953  -7.6355  -7.4009  -7.3648  -7.3053  -7.2125  -7.1974
    -7.1008  -7.0184  -6.9316  -6.7389  -6.6945  -6.6352  -6.4979  -6.4035
    -6.2995  -6.2545  -6.1920  -6.0672  -5.9429  -5.7968  -4.4920  -4.4168
    -4.3576  -4.2485  -2.6610  -2.6173  -2.5871  -2.5031  -2.4626  -2.2417
    -2.2304  -2.1118  -2.0758  -2.0124  -0.9151  -0.1256   0.0639   0.4593
     0.6048   0.7678   0.8670   1.0147   1.0581   1.1338   1.1667   1.2958
     1.4309   1.4614   1.6069   1.6980

          k = 0.5000-0.2887 0.0000 (109602 PWs)   bands (ev):

   -78.4439 -78.4428 -75.0618 -75.0607 -49.7814 -49.7802 -49.7754 -49.7746
   -49.7723 -49.7717 -46.4637 -46.4626 -46.4421 -46.4407 -46.4391 -46.4372
   -18.2067 -18.1435 -17.9653 -17.8704 -17.6131 -17.5779 -17.5020 -17.4968
   -17.4282 -17.4011 -17.3596 -17.3213 -10.4480  -9.8323  -9.7749  -9.6297
    -9.3961  -9.2755  -9.2435  -9.1991  -9.1282  -8.9890  -8.8525  -8.6057
    -8.5408  -8.5320  -8.5014  -8.4623  -8.2581  -8.1138  -7.9970  -7.8213
    -7.7501  -7.6368  -7.4479  -7.4011  -7.3858  -7.3479  -7.3307  -7.3050
    -7.1976  -6.8957  -6.8112  -6.7518  -6.6358  -6.6091  -6.5412  -6.4965
    -6.3784  -6.2691  -6.1986  -6.0230  -5.9219  -5.8466  -4.4547  -4.4183
    -4.3764  -4.2652  -2.7469  -2.6124  -2.5866  -2.5427  -2.4361  -2.3325
    -2.2220  -2.0431  -2.0313  -1.9829  -1.1658  -0.3529   0.1222   0.1341
     0.5442   0.7737   0.8659   0.9310   0.9872   1.2363   1.3319   1.3817
     1.4575   1.4770   1.5852   1.6421

          k = 0.3333 0.0000 0.0000 (109615 PWs)   bands (ev):

   -78.4438 -78.4427 -75.0619 -75.0609 -49.7814 -49.7802 -49.7755 -49.7747
   -49.7723 -49.7716 -46.4638 -46.4625 -46.4419 -46.4414 -46.4385 -46.4372
   -18.4253 -18.3222 -17.7207 -17.7056 -17.6303 -17.5936 -17.5538 -17.4910
   -17.3737 -17.3392 -17.3232 -17.3066 -10.3473 -10.0264  -9.8505  -9.7798
    -9.4791  -9.4075  -9.2842  -9.2650  -9.0542  -8.9851  -8.8487  -8.7790
    -8.6399  -8.5687  -8.4018  -8.2959  -8.0977  -8.0086  -7.9880  -7.8731
    -7.8467  -7.7447  -7.6570  -7.4599  -7.3632  -7.2985  -7.1779  -7.1261
    -7.0935  -6.9982  -6.8716  -6.8307  -6.6980  -6.5428  -6.4659  -6.4297
    -6.2876  -6.1918  -6.1852  -6.0827  -5.9429  -5.7643  -4.5012  -4.4363
    -4.4041  -4.1260  -2.6510  -2.5848  -2.5561  -2.5217  -2.4878  -2.2135
    -2.2007  -2.1642  -2.0561  -2.0340  -0.7462  -0.2174   0.0649   0.3527
     0.4790   0.7060   0.8284   0.8773   1.0348   1.1625   1.2228   1.4060
     1.5603   1.6001   1.6374   1.7877

          k =-0.3333 0.3849 0.0000 (109606 PWs)   bands (ev):

   -78.4439 -78.4428 -75.0618 -75.0607 -49.7814 -49.7803 -49.7755 -49.7744
   -49.7726 -49.7715 -46.4637 -46.4626 -46.4423 -46.4404 -46.4391 -46.4372
   -18.2356 -18.1467 -17.9150 -17.8295 -17.6510 -17.5949 -17.5385 -17.4865
   -17.4302 -17.3877 -17.3547 -17.3176 -10.2929  -9.8839  -9.7356  -9.7133
    -9.3888  -9.3354  -9.2561  -9.2480  -9.1022  -9.0424  -8.8434  -8.6886
    -8.6582  -8.5179  -8.3793  -8.3609  -8.2581  -8.1256  -7.9675  -7.8846
    -7.7615  -7.6345  -7.6001  -7.5246  -7.4201  -7.3645  -7.2020  -7.1571
    -7.0366  -6.9174  -6.7816  -6.7465  -6.6753  -6.6035  -6.5276  -6.4981
    -6.3850  -6.1987  -6.1800  -6.1247  -5.8845  -5.8432  -4.4691  -4.4127
    -4.3547  -4.1764  -2.6704  -2.5937  -2.5681  -2.5556  -2.4639  -2.3382
    -2.2839  -2.0656  -1.9836  -1.9685  -0.9930  -0.4223  -0.2426   0.2056
     0.3087   0.5888   0.7051   0.7711   0.9205   1.0211   1.0777   1.2380
     1.2591   1.4240   1.4754   1.5841

          k = 0.5000 0.0962 0.0000 (109606 PWs)   bands (ev):

   -78.4439 -78.4428 -75.0618 -75.0607 -49.7814 -49.7803 -49.7756 -49.7742
   -49.7728 -49.7715 -46.4637 -46.4626 -46.4420 -46.4410 -46.4388 -46.4373
   -18.2339 -18.1458 -17.9224 -17.8247 -17.6526 -17.5962 -17.5340 -17.4835
   -17.4421 -17.3744 -17.3604 -17.3176 -10.2942  -9.8901  -9.7426  -9.6853
    -9.4090  -9.3467  -9.2560  -9.2254  -9.1001  -9.0378  -8.8589  -8.6927
    -8.6351  -8.5318  -8.4028  -8.3618  -8.2254  -8.1278  -7.9717  -7.8919
    -7.7612  -7.6417  -7.6021  -7.5066  -7.4193  -7.3770  -7.2191  -7.1213
    -7.0551  -6.9038  -6.7753  -6.7285  -6.6886  -6.6202  -6.5686  -6.4801
    -6.3510  -6.2320  -6.1490  -6.1043  -5.9293  -5.8311  -4.4646  -4.4122
    -4.3562  -4.1754  -2.6711  -2.5944  -2.5695  -2.5550  -2.4641  -2.3371
    -2.2809  -2.0642  -1.9848  -1.9684  -1.0004  -0.4186  -0.2416   0.1537
     0.3254   0.6105   0.7192   0.8157   0.8994   1.0005   1.0402   1.1883
     1.3531   1.4596   1.5360   1.5638

     highest occupied, lowest unoccupied level (ev):    -5.6611   -4.5280

!    total energy              =   -5539.70304279 Ry
     total all-electron energy =     -5539.703043 Ry
     estimated scf accuracy    <          2.1E-12 Ry

     The total energy is the sum of the following terms:
     one-electron contribution =   -9564.52422907 Ry
     hartree contribution      =    4756.19006023 Ry
     xc contribution           =    -165.75605195 Ry
     ewald contribution        =    3977.84444146 Ry
     Hubbard energy            =       0.51252526 Ry
     one-center paw contrib.   =   -4543.96978871 Ry

     total magnetization       =     0.00 Bohr mag/cell
     absolute magnetization    =    16.73 Bohr mag/cell

     convergence has been achieved in  23 iterations

     negative rho (up, down):  3.140E-02 3.141E-02

     Forces acting on atoms (cartesian axes, Ry/au):

     atom    1 type  1   force =     0.00000730   -0.00043631   -0.00025415
     atom    2 type  1   force =     0.00000730    0.00043631   -0.00025415
     atom    3 type  2   force =     0.01317949   -0.00000000   -0.01953828
     atom    4 type  2   force =    -0.00706889   -0.01193829   -0.01801735
     atom    5 type  2   force =    -0.00706889    0.01193829   -0.01801735
     atom    6 type  2   force =    -0.01355263    0.00000000    0.02099399
     atom    7 type  2   force =     0.00672299    0.01192076    0.02104290
     atom    8 type  2   force =     0.00672299   -0.01192076    0.02104290
     atom    9 type  3   force =    -0.00000669   -0.00043716    0.00025109
     atom   10 type  3   force =    -0.00000669    0.00043716    0.00025109
     atom   11 type  2   force =     0.01355358    0.00000000   -0.02099270
     atom   12 type  2   force =    -0.00672363   -0.01191871   -0.02104133
     atom   13 type  2   force =    -0.00672363    0.01191871   -0.02104133
     atom   14 type  2   force =    -0.01318048    0.00000000    0.01954235
     atom   15 type  2   force =     0.00706895    0.01193860    0.01801617
     atom   16 type  2   force =     0.00706895   -0.01193860    0.01801617

     Total force =     0.083364     Total SCF correction =     0.000002


     Computing stress (Cartesian axis) and pressure


     negative rho (up, down):  3.140E-02 3.141E-02
          total   stress  (Ry/bohr**3)                   (kbar)     P=       19.10
   0.00013010   0.00000000  -0.00000111           19.14        0.00       -0.16
   0.00000000   0.00012961   0.00000000            0.00       19.07        0.00
  -0.00000111   0.00000000   0.00012972           -0.16        0.00       19.08


     Writing all to output data dir ./ht_afm_qe/ht_afm_qe.save/ :
     XML data file, charge density, pseudopotentials, collected wavefunctions

     init_run     :     29.92s CPU     30.54s WALL (       1 calls)
     electrons    :   1633.96s CPU   1755.80s WALL (       1 calls)
     forces       :     23.02s CPU     23.57s WALL (       1 calls)
     stress       :    235.70s CPU    240.20s WALL (       1 calls)

     Called by init_run:
     wfcinit      :     26.98s CPU     27.42s WALL (       1 calls)
     potinit      :      1.10s CPU      1.15s WALL (       1 calls)
     hinit0       :      0.98s CPU      0.99s WALL (       1 calls)

     Called by electrons:
     c_bands      :   1344.75s CPU   1441.90s WALL (      23 calls)
     sum_band     :    227.99s CPU    243.66s WALL (      23 calls)
     v_of_rho     :      7.77s CPU      7.86s WALL (      24 calls)
     newd         :     23.50s CPU     31.80s WALL (      24 calls)
     PAW_pot      :     26.09s CPU     26.31s WALL (      24 calls)
     mix_rho      :      4.34s CPU      4.44s WALL (      23 calls)

     Called by c_bands:
     init_us_2    :     14.94s CPU     15.13s WALL (    1352 calls)
     init_us_2:cp :     14.92s CPU     15.12s WALL (    1352 calls)
     cegterg      :   1312.45s CPU   1408.93s WALL (     598 calls)

     Called by *egterg:
     cdiaghg      :    101.32s CPU    102.11s WALL (    2631 calls)
     h_psi        :    770.28s CPU    800.52s WALL (    2657 calls)
     s_psi        :     38.96s CPU     39.58s WALL (    2735 calls)
     g_psi        :     10.00s CPU     10.12s WALL (    2033 calls)

     Called by h_psi:
     h_psi:calbec :     45.25s CPU     46.14s WALL (    2657 calls)
     vloc_psi     :    526.88s CPU    536.78s WALL (    2657 calls)
     add_vuspsi   :     39.86s CPU     40.50s WALL (    2657 calls)
     vhpsi        :    144.82s CPU    147.36s WALL (    2657 calls)

     General routines
     calbec       :    133.06s CPU    135.09s WALL (   26972 calls)
     fft          :      5.16s CPU      5.24s WALL (     638 calls)
     ffts         :      0.46s CPU      0.48s WALL (      94 calls)
     fftw         :    481.97s CPU    491.57s WALL (  377842 calls)
     interpolate  :      0.72s CPU      0.73s WALL (      48 calls)

     Parallel routines

     Hubbard U routines
     new_ns       :      9.19s CPU      9.31s WALL (      23 calls)
     vhpsi        :    144.82s CPU    147.36s WALL (    2657 calls)
     force_hub    :     16.22s CPU     16.38s WALL (       1 calls)
                                        0.00s GPU  (       1 calls)
     stres_hub    :     66.26s CPU     66.92s WALL (       1 calls)
                                        0.00s GPU  (       1 calls)

     PWSCF        :  32m 6.48s CPU  34m56.80s WALL


   This run was terminated on:  18:14:26  15Oct2025            

=------------------------------------------------------------------------------=
   JOB DONE.
=------------------------------------------------------------------------------=
