
     Program PWSCF v.7.3 starts on 15Oct2025 at 16:51: 9 

     This program is part of the open-source Quantum ESPRESSO suite
     for quantum simulation of materials; please cite
         "P. Giannozzi et al., J. Phys.:Condens. Matter 21 395502 (2009);
         "P. Giannozzi et al., J. Phys.:Condens. Matter 29 465901 (2017);
         "P. Giannozzi et al., J. Chem. Phys. 152 154105 (2020);
          URL http://www.quantum-espresso.org", 
     in publications or presentations arising from this work. More details at
     http://www.quantum-espresso.org/quote

     Parallel version (MPI), running on    24 processors

     MPI processes distributed on     1 nodes
     32262 MiB available memory on the printing compute node when the environment starts

     Reading input from lt_fm_afm_qe.scf.in
Warning: card &CELL ignored
Warning: card / ignored

     Current dimensions of program PWSCF are:
     Max number of different atomic species (ntypx) = 10
     Max number of k-points (npk) =  40000
     Max angular momentum in pseudopotentials (lmaxx) =  4
read_pp_mesh; mismatch in mesh size, discarding the one in header
read_pp_mesh; mismatch in mesh size, discarding the one in header
read_pp_mesh; mismatch in mesh size, discarding the one in header
     file Cr.GGA-PBE-paw.UPF: wavefunction(s)  3S 4S 3P 4P 3D 4D renormalized
     file I.GGA-PBE-paw.UPF: wavefunction(s)  6S 6P renormalized
     file Cr.GGA-PBE-paw.UPF: wavefunction(s)  3S 4S 3P 4P 3D 4D renormalized

     IMPORTANT: XC functional enforced from input :
     Exchange-correlation= PBE
                           (   1   4   3   4   0   0   0)
     Any further DFT definition will be discarded
     Please, verify this is what you really want


     R & G space division:  proc/nbgrp/npool/nimage =      24
     Subspace diagonalization in iterative solution of the eigenvalue problem:
     a serial algorithm will be used


     Parallelization info
     --------------------
     sticks:   dense  smooth     PW     G-vecs:    dense   smooth      PW
     Min         179     174     46                38065    36532    5046
     Max         180     175     47                38082    36557    5059
     Sum        4303    4189   1123               913669   876961  121297

     Using Slab Decomposition



     bravais-lattice index     =            0
     lattice parameter (alat)  =      12.9956  a.u.
     unit-cell volume          =    7602.9282 (a.u.)^3
     number of atoms/cell      =           16
     number of atomic types    =            3
     number of electrons       =       140.00 (up:  70.00, down:  70.00)
     number of Kohn-Sham states=          100
     kinetic-energy cutoff     =      90.0000  Ry
     charge density cutoff     =     370.0000  Ry
     scf convergence threshold =      1.0E-11
     mixing beta               =       0.5000
     number of iterations used =            8  plain     mixing
     Exchange-correlation= PBE
                           (   1   4   3   4   0   0   0)
     Hubbard projectors: atomic
     Hubbard parameters of DFT+U (Dudarev formulation) in eV:
     U(Cr-3d) =  2.7300
     J0(Cr-3d) =  0.4800
     U(Cr1-3d) =  2.7300
     J0(Cr1-3d) =  0.4800

     Internal variables: lda_plus_u =T, lda_plus_u_kind = 0

     celldm(1)=  12.995613  celldm(2)=   0.000000  celldm(3)=   0.000000
     celldm(4)=   0.000000  celldm(5)=   0.000000  celldm(6)=   0.000000

     crystal axes: (cart. coord. in units of alat)
               a(1) = (   1.000000  -0.000000   0.000000 )  
               a(2) = (  -0.500000   0.866025   0.000000 )  
               a(3) = (  -0.000000   0.000000   4.000000 )  

     reciprocal axes: (cart. coord. in units 2 pi/alat)
               b(1) = (  1.000000  0.577350  0.000000 )  
               b(2) = (  0.000000  1.154701  0.000000 )  
               b(3) = ( -0.000000 -0.000000  0.250000 )  


     PseudoPot. # 1 for Cr read from file:
     ../../Cr.GGA-PBE-paw.UPF
     MD5 check sum: 0e9dc003703e132720ff5dfacba66d28
     Pseudo is Projector augmented-wave + core cor, Zval = 14.0
     Generated using ATOMPAW code
     Shape of augmentation charge: SINC**2
     Using radial grid of 2342 points,  6 beta functions with: 
                l(1) =   0
                l(2) =   0
                l(3) =   1
                l(4) =   1
                l(5) =   2
                l(6) =   2
     Q(r) pseudized with 0 coefficients 


     PseudoPot. # 2 for I  read from file:
     ../../I.GGA-PBE-paw.UPF
     MD5 check sum: 736bb4145856fa7ed29d0984862794a4
     Pseudo is Projector augmented-wave + core cor, Zval =  7.0
     Generated using ATOMPAW code
     Shape of augmentation charge: SINC**2
     Using radial grid of 2342 points,  4 beta functions with: 
                l(1) =   0
                l(2) =   0
                l(3) =   1
                l(4) =   1
     Q(r) pseudized with 0 coefficients 


     PseudoPot. # 3 for Cr read from file:
     ../../Cr.GGA-PBE-paw.UPF
     MD5 check sum: 0e9dc003703e132720ff5dfacba66d28
     Pseudo is Projector augmented-wave + core cor, Zval = 14.0
     Generated using ATOMPAW code
     Shape of augmentation charge: SINC**2
     Using radial grid of 2342 points,  6 beta functions with: 
                l(1) =   0
                l(2) =   0
                l(3) =   1
                l(4) =   1
                l(5) =   2
                l(6) =   2
     Q(r) pseudized with 0 coefficients 


     atomic species   valence    mass     pseudopotential
     Cr               14.00    51.99610     Cr( 1.00)
     I                 7.00   126.90447     I ( 1.00)
     Cr1              14.00    51.99610     Cr( 1.00)

     Starting magnetic structure 
     atomic species   magnetization
     Cr              0.214
     I               0.000
     Cr1            -0.214

     No symmetry found



   Cartesian axes

     site n.     atom                  positions (alat units)
         1        Cr     tau(   1) = (   0.3333302   0.5773476   2.4771345  )
         2        Cr     tau(   2) = (  -0.1666653   0.8660272   2.4783670  )
         3        I      tau(   3) = (   0.4785934   0.2878151   2.2541471  )
         4        I      tau(   4) = (   0.0099554   0.5963201   2.2541472  )
         5        I      tau(   5) = (  -0.4885529   0.8479194   2.2541494  )
         6        I      tau(   6) = (   0.1887678   0.2890994   2.7012541  )
         7        I      tau(   7) = (   0.1559814   0.8466725   2.7012541  )
         8        I      tau(   8) = (  -0.3447532   0.5962818   2.7012518  )
         9        Cr1    tau(   9) = (   0.8333317   0.2886782   1.5216322  )
        10        Cr1    tau(  10) = (   0.3333282   0.5773496   1.5228650  )
        11        I      tau(  11) = (   0.9778967  -0.0004210   1.2987495  )
        12        I      tau(  12) = (   0.5106847   0.3080297   1.2987460  )
        13        I      tau(  13) = (   0.0114148   0.5584203   1.2987445  )
        14        I      tau(  14) = (   0.6880724   0.0008651   1.7458527  )
        15        I      tau(  15) = (   0.6567094   0.5583828   1.7458520  )
        16        I      tau(  16) = (   0.1552143   0.3067811   1.7458532  )

     number of k points=    20
                       cart. coord. in units 2pi/alat
        k(    1) = (   0.0000000   0.0000000   0.0000000), wk =   0.0277778
        k(    2) = (   0.0000000   0.1924501   0.0000000), wk =   0.0555556
        k(    3) = (   0.0000000   0.3849002   0.0000000), wk =   0.0555556
        k(    4) = (   0.0000000  -0.5773503   0.0000000), wk =   0.0277778
        k(    5) = (   0.1666667   0.2886751   0.0000000), wk =   0.0555556
        k(    6) = (   0.1666667   0.4811252   0.0000000), wk =   0.0555556
        k(    7) = (   0.3333333   0.5773503   0.0000000), wk =   0.0555556
        k(    8) = (  -0.1666667   0.0962250   0.0000000), wk =   0.0555556
        k(    9) = (   0.1666667   0.0962250   0.0000000), wk =   0.0555556
        k(   10) = (  -0.3333333   0.1924501   0.0000000), wk =   0.0555556
        k(   11) = (   0.3333333   0.1924501   0.0000000), wk =   0.0555556
        k(   12) = (   0.5000000  -0.2886751   0.0000000), wk =   0.0277778
        k(   13) = (  -0.5000000  -0.2886751   0.0000000), wk =   0.0277778
        k(   14) = (  -0.1666667   0.2886751   0.0000000), wk =   0.0555556
        k(   15) = (   0.3333333   0.0000000   0.0000000), wk =   0.0555556
        k(   16) = (  -0.1666667   0.4811252   0.0000000), wk =   0.0555556
        k(   17) = (  -0.3333333   0.3849002   0.0000000), wk =   0.0555556
        k(   18) = (   0.5000000   0.0962250   0.0000000), wk =   0.0555556
        k(   19) = (  -0.3333333  -0.3849002   0.0000000), wk =   0.0555556
        k(   20) = (   0.5000000  -0.0962250   0.0000000), wk =   0.0555556

     Dense  grid:   913669 G-vectors     FFT dimensions: (  80,  80, 320)

     Smooth grid:   876961 G-vectors     FFT dimensions: (  80,  80, 320)

     Estimated max dynamical RAM per process >     595.33 MB

     Estimated total dynamical RAM >      13.95 GB
 ----2D----2D----2D----2D----2D----2D----2D----2D----2D----2D----2D----2D
  The code is running with the 2D cutoff
  Please refer to:
  Sohier, T., Calandra, M., & Mauri, F. (2017), 
  Density functional perturbation theory for gated two-dimensional heterostructures:
  Theoretical developments and application to flexural phonons in graphene.
  Physical Review B, 96(7), 75448. https://doi.org/10.1103/PhysRevB.96.075448
 ----2D----2D----2D----2D----2D----2D----2D----2D----2D----2D----2D----2D
     Generating pointlists ...
     new r_m :   0.1620 (alat units)  2.1047 (a.u.) for type    1
     new r_m :   0.1620 (alat units)  2.1047 (a.u.) for type    2
     new r_m :   0.1620 (alat units)  2.1047 (a.u.) for type    3
     Cannot read rho : file not found

     Initial potential from superposition of free atoms

     starting charge     139.9932, renormalised to     140.0000

     negative rho (up, down):  2.631E-02 2.631E-02

     STARTING HUBBARD OCCUPATIONS:

     =================== HUBBARD OCCUPATIONS ===================
     ------------------------ ATOM    1 ------------------------
     Tr[ns(  1)] (up, down, total) =   5.00000  0.00000  5.00000
     Atomic magnetic moment for atom   1 =   5.00000
     SPIN  1
     eigenvalues:
       1.000  1.000  1.000  1.000  1.000
     eigenvectors (columns):
       1.000  0.000  0.000  0.000  0.000
       0.000  1.000  0.000  0.000  0.000
       0.000  0.000  1.000  0.000  0.000
       0.000  0.000  0.000  1.000  0.000
       0.000  0.000  0.000  0.000  1.000
     occupation matrix ns (before diag.):
       1.000  0.000  0.000  0.000  0.000
       0.000  1.000  0.000  0.000  0.000
       0.000  0.000  1.000  0.000  0.000
       0.000  0.000  0.000  1.000  0.000
       0.000  0.000  0.000  0.000  1.000
     SPIN  2
     eigenvalues:
       0.000  0.000  0.000  0.000  0.000
     eigenvectors (columns):
       1.000  0.000  0.000  0.000  0.000
       0.000  1.000  0.000  0.000  0.000
       0.000  0.000  1.000  0.000  0.000
       0.000  0.000  0.000  1.000  0.000
       0.000  0.000  0.000  0.000  1.000
     occupation matrix ns (before diag.):
       0.000  0.000  0.000  0.000  0.000
       0.000  0.000  0.000  0.000  0.000
       0.000  0.000  0.000  0.000  0.000
       0.000  0.000  0.000  0.000  0.000
       0.000  0.000  0.000  0.000  0.000
     ------------------------ ATOM    2 ------------------------
     Tr[ns(  2)] (up, down, total) =   5.00000  0.00000  5.00000
     Atomic magnetic moment for atom   2 =   5.00000
     SPIN  1
     eigenvalues:
       1.000  1.000  1.000  1.000  1.000
     eigenvectors (columns):
       1.000  0.000  0.000  0.000  0.000
       0.000  1.000  0.000  0.000  0.000
       0.000  0.000  1.000  0.000  0.000
       0.000  0.000  0.000  1.000  0.000
       0.000  0.000  0.000  0.000  1.000
     occupation matrix ns (before diag.):
       1.000  0.000  0.000  0.000  0.000
       0.000  1.000  0.000  0.000  0.000
       0.000  0.000  1.000  0.000  0.000
       0.000  0.000  0.000  1.000  0.000
       0.000  0.000  0.000  0.000  1.000
     SPIN  2
     eigenvalues:
       0.000  0.000  0.000  0.000  0.000
     eigenvectors (columns):
       1.000  0.000  0.000  0.000  0.000
       0.000  1.000  0.000  0.000  0.000
       0.000  0.000  1.000  0.000  0.000
       0.000  0.000  0.000  1.000  0.000
       0.000  0.000  0.000  0.000  1.000
     occupation matrix ns (before diag.):
       0.000  0.000  0.000  0.000  0.000
       0.000  0.000  0.000  0.000  0.000
       0.000  0.000  0.000  0.000  0.000
       0.000  0.000  0.000  0.000  0.000
       0.000  0.000  0.000  0.000  0.000
     ------------------------ ATOM    9 ------------------------
     Tr[ns(  9)] (up, down, total) =   0.00000  5.00000  5.00000
     Atomic magnetic moment for atom   9 =  -5.00000
     SPIN  1
     eigenvalues:
       0.000  0.000  0.000  0.000  0.000
     eigenvectors (columns):
       1.000  0.000  0.000  0.000  0.000
       0.000  1.000  0.000  0.000  0.000
       0.000  0.000  1.000  0.000  0.000
       0.000  0.000  0.000  1.000  0.000
       0.000  0.000  0.000  0.000  1.000
     occupation matrix ns (before diag.):
       0.000  0.000  0.000  0.000  0.000
       0.000  0.000  0.000  0.000  0.000
       0.000  0.000  0.000  0.000  0.000
       0.000  0.000  0.000  0.000  0.000
       0.000  0.000  0.000  0.000  0.000
     SPIN  2
     eigenvalues:
       1.000  1.000  1.000  1.000  1.000
     eigenvectors (columns):
       1.000  0.000  0.000  0.000  0.000
       0.000  1.000  0.000  0.000  0.000
       0.000  0.000  1.000  0.000  0.000
       0.000  0.000  0.000  1.000  0.000
       0.000  0.000  0.000  0.000  1.000
     occupation matrix ns (before diag.):
       1.000  0.000  0.000  0.000  0.000
       0.000  1.000  0.000  0.000  0.000
       0.000  0.000  1.000  0.000  0.000
       0.000  0.000  0.000  1.000  0.000
       0.000  0.000  0.000  0.000  1.000
     ------------------------ ATOM   10 ------------------------
     Tr[ns( 10)] (up, down, total) =   0.00000  5.00000  5.00000
     Atomic magnetic moment for atom  10 =  -5.00000
     SPIN  1
     eigenvalues:
       0.000  0.000  0.000  0.000  0.000
     eigenvectors (columns):
       1.000  0.000  0.000  0.000  0.000
       0.000  1.000  0.000  0.000  0.000
       0.000  0.000  1.000  0.000  0.000
       0.000  0.000  0.000  1.000  0.000
       0.000  0.000  0.000  0.000  1.000
     occupation matrix ns (before diag.):
       0.000  0.000  0.000  0.000  0.000
       0.000  0.000  0.000  0.000  0.000
       0.000  0.000  0.000  0.000  0.000
       0.000  0.000  0.000  0.000  0.000
       0.000  0.000  0.000  0.000  0.000
     SPIN  2
     eigenvalues:
       1.000  1.000  1.000  1.000  1.000
     eigenvectors (columns):
       1.000  0.000  0.000  0.000  0.000
       0.000  1.000  0.000  0.000  0.000
       0.000  0.000  1.000  0.000  0.000
       0.000  0.000  0.000  1.000  0.000
       0.000  0.000  0.000  0.000  1.000
     occupation matrix ns (before diag.):
       1.000  0.000  0.000  0.000  0.000
       0.000  1.000  0.000  0.000  0.000
       0.000  0.000  1.000  0.000  0.000
       0.000  0.000  0.000  1.000  0.000
       0.000  0.000  0.000  0.000  1.000

     Number of occupied Hubbard levels =   20.0000

     Atomic wfc used for Hubbard projectors are NOT orthogonalized

     Starting wfcs are  168 atomic wfcs
     Checking if some PAW data can be deallocated... 

     total cpu time spent up to now is       45.9 secs

     Self-consistent Calculation

     iteration #  1     ecut=    90.00 Ry     beta= 0.50
     Davidson diagonalization with overlap
     ethr =  1.00E-05,  avg # of iterations =  9.2

     =================== HUBBARD OCCUPATIONS ===================
     ------------------------ ATOM    1 ------------------------
     Tr[ns(  1)] (up, down, total) =   3.97107  0.72757  4.69864
     Atomic magnetic moment for atom   1 =   3.24349
     SPIN  1
     eigenvalues:
       0.527  0.527  0.972  0.973  0.973
     eigenvectors (columns):
       0.000 -0.000 -1.000 -0.000  0.000
       0.826 -0.085 -0.000  0.290 -0.476
       0.085  0.826  0.000 -0.476 -0.290
      -0.554  0.057 -0.000  0.432 -0.710
       0.057  0.554 -0.000  0.710  0.432
     occupation matrix ns (before diag.):
       0.972 -0.000  0.000  0.000  0.000
      -0.000  0.665  0.000  0.207  0.000
       0.000  0.000  0.665  0.000 -0.207
       0.000  0.207  0.000  0.835 -0.000
       0.000  0.000 -0.207 -0.000  0.835
     SPIN  2
     eigenvalues:
       0.084  0.089  0.089  0.233  0.233
     eigenvectors (columns):
       1.000 -0.000 -0.000  0.000 -0.000
       0.000  0.583  0.044  0.809 -0.050
      -0.000  0.044 -0.583  0.050  0.809
       0.000  0.809  0.061 -0.584  0.036
       0.000 -0.061  0.809  0.036  0.584
     occupation matrix ns (before diag.):
       0.084  0.000 -0.000 -0.000 -0.000
       0.000  0.184 -0.000 -0.068  0.000
      -0.000 -0.000  0.184  0.000  0.068
      -0.000 -0.068  0.000  0.138 -0.000
      -0.000  0.000  0.068 -0.000  0.138
     ------------------------ ATOM    2 ------------------------
     Tr[ns(  2)] (up, down, total) =   3.97468  0.73166  4.70634
     Atomic magnetic moment for atom   2 =   3.24302
     SPIN  1
     eigenvalues:
       0.528  0.528  0.972  0.973  0.973
     eigenvectors (columns):
      -0.000 -0.000 -1.000 -0.000 -0.000
      -0.830  0.029 -0.000  0.176  0.529
       0.029  0.830  0.000 -0.529  0.176
       0.557 -0.017 -0.000  0.266  0.787
       0.017  0.557 -0.000  0.787 -0.266
     occupation matrix ns (before diag.):
       0.972 -0.000  0.000  0.000  0.000
      -0.000  0.666  0.000  0.206 -0.001
       0.000  0.000  0.666 -0.001 -0.206
       0.000  0.206 -0.001  0.835  0.000
       0.000 -0.001 -0.206  0.000  0.835
     SPIN  2
     eigenvalues:
       0.084  0.089  0.089  0.234  0.234
     eigenvectors (columns):
       1.000  0.000  0.000  0.000 -0.000
      -0.000  0.314 -0.494  0.804 -0.105
      -0.000  0.494  0.314  0.105  0.804
      -0.000  0.432 -0.686 -0.580  0.078
       0.000 -0.686 -0.432  0.078  0.580
     occupation matrix ns (before diag.):
       0.084  0.000 -0.000 -0.000 -0.000
       0.000  0.185 -0.000 -0.069  0.000
      -0.000 -0.000  0.185  0.000  0.069
      -0.000 -0.069  0.000  0.139 -0.000
      -0.000  0.000  0.069 -0.000  0.139
     ------------------------ ATOM    9 ------------------------
     Tr[ns(  9)] (up, down, total) =   0.73168  3.97469  4.70637
     Atomic magnetic moment for atom   9 =  -3.24302
     SPIN  1
     eigenvalues:
       0.084  0.089  0.089  0.234  0.234
     eigenvectors (columns):
       1.000 -0.000 -0.000  0.000  0.000
      -0.000  0.340 -0.476  0.684 -0.436
       0.000  0.476  0.340  0.436  0.684
      -0.000  0.469 -0.661 -0.492  0.317
      -0.000 -0.661 -0.469  0.317  0.492
     occupation matrix ns (before diag.):
       0.084 -0.000  0.000  0.000  0.000
      -0.000  0.185 -0.000 -0.069  0.000
       0.000 -0.000  0.185  0.000  0.069
       0.000 -0.069  0.000  0.139  0.000
       0.000  0.000  0.069  0.000  0.139
     SPIN  2
     eigenvalues:
       0.528  0.528  0.972  0.973  0.973
     eigenvectors (columns):
       0.000  0.000 -1.000 -0.000 -0.000
       0.599 -0.575  0.000 -0.519  0.204
       0.575  0.599  0.000 -0.204 -0.519
      -0.400  0.388  0.000 -0.771  0.308
       0.388  0.400 -0.000  0.308  0.771
     occupation matrix ns (before diag.):
       0.972  0.000 -0.000 -0.000 -0.000
       0.000  0.666 -0.000  0.206 -0.001
      -0.000 -0.000  0.666 -0.001 -0.206
      -0.000  0.206 -0.001  0.835  0.000
      -0.000 -0.001 -0.206  0.000  0.835
     ------------------------ ATOM   10 ------------------------
     Tr[ns( 10)] (up, down, total) =   0.72756  3.97106  4.69861
     Atomic magnetic moment for atom  10 =  -3.24350
     SPIN  1
     eigenvalues:
       0.084  0.089  0.089  0.233  0.233
     eigenvectors (columns):
       1.000 -0.000  0.000 -0.000 -0.000
      -0.000 -0.358  0.463 -0.661  0.470
      -0.000  0.463  0.358  0.470  0.661
      -0.000 -0.497  0.641  0.477 -0.339
       0.000 -0.641 -0.497  0.339  0.477
     occupation matrix ns (before diag.):
       0.084 -0.000 -0.000  0.000 -0.000
      -0.000  0.184  0.000 -0.068  0.000
      -0.000  0.000  0.184  0.000  0.068
       0.000 -0.068  0.000  0.138 -0.000
      -0.000  0.000  0.068 -0.000  0.138
     SPIN  2
     eigenvalues:
       0.527  0.527  0.972  0.973  0.973
     eigenvectors (columns):
       0.000 -0.000  1.000  0.000  0.000
      -0.654  0.512  0.000 -0.541  0.134
       0.512  0.654  0.000 -0.134 -0.541
       0.438 -0.344 -0.000 -0.806  0.199
       0.344  0.438 -0.000  0.199  0.806
     occupation matrix ns (before diag.):
       0.972  0.000 -0.000 -0.000  0.000
       0.000  0.665  0.000  0.207  0.000
      -0.000  0.000  0.665  0.000 -0.207
      -0.000  0.207  0.000  0.835  0.000
       0.000  0.000 -0.207  0.000  0.835

     Number of occupied Hubbard levels =   18.8100

     negative rho (up, down):  3.154E-02 3.154E-02

     total cpu time spent up to now is      406.5 secs

     total energy              =   -5537.86012027 Ry
     estimated scf accuracy    <       3.17863055 Ry

     total magnetization       =    -0.00 Bohr mag/cell
     absolute magnetization    =    14.65 Bohr mag/cell

     iteration #  2     ecut=    90.00 Ry     beta= 0.50
     Davidson diagonalization with overlap
     ethr =  2.27E-03,  avg # of iterations =  5.0

     negative rho (up, down):  2.917E-02 2.918E-02

     total cpu time spent up to now is      560.3 secs

     total energy              =   -5532.25382187 Ry
     estimated scf accuracy    <      69.64627654 Ry

     total magnetization       =    -0.00 Bohr mag/cell
     absolute magnetization    =     3.84 Bohr mag/cell

     iteration #  3     ecut=    90.00 Ry     beta= 0.50
     Davidson diagonalization with overlap
     ethr =  2.27E-03,  avg # of iterations =  3.0

     negative rho (up, down):  3.080E-02 3.080E-02

     total cpu time spent up to now is      675.2 secs

     total energy              =   -5539.62729353 Ry
     estimated scf accuracy    <       0.94351534 Ry

     total magnetization       =    -0.00 Bohr mag/cell
     absolute magnetization    =    15.27 Bohr mag/cell

     iteration #  4     ecut=    90.00 Ry     beta= 0.50
     Davidson diagonalization with overlap
     ethr =  6.74E-04,  avg # of iterations =  1.6

     negative rho (up, down):  3.147E-02 3.147E-02

     total cpu time spent up to now is      756.6 secs

     total energy              =   -5539.66467604 Ry
     estimated scf accuracy    <       0.18235304 Ry

     total magnetization       =     0.00 Bohr mag/cell
     absolute magnetization    =    15.59 Bohr mag/cell

     iteration #  5     ecut=    90.00 Ry     beta= 0.50
     Davidson diagonalization with overlap
     ethr =  1.30E-04,  avg # of iterations =  3.2

     negative rho (up, down):  3.148E-02 3.148E-02

     total cpu time spent up to now is      850.5 secs

     total energy              =   -5539.68796771 Ry
     estimated scf accuracy    <       0.02315226 Ry

     total magnetization       =    -0.00 Bohr mag/cell
     absolute magnetization    =    15.93 Bohr mag/cell

     iteration #  6     ecut=    90.00 Ry     beta= 0.50
     Davidson diagonalization with overlap
     ethr =  1.65E-05,  avg # of iterations =  7.0

     negative rho (up, down):  3.134E-02 3.133E-02

     total cpu time spent up to now is      985.7 secs

     total energy              =   -5539.69688545 Ry
     estimated scf accuracy    <       0.02369156 Ry

     total magnetization       =    -0.00 Bohr mag/cell
     absolute magnetization    =    16.12 Bohr mag/cell

     iteration #  7     ecut=    90.00 Ry     beta= 0.50
     Davidson diagonalization with overlap
     ethr =  1.65E-05,  avg # of iterations =  2.0

     negative rho (up, down):  3.145E-02 3.145E-02

     total cpu time spent up to now is     1071.8 secs

     total energy              =   -5539.70198375 Ry
     estimated scf accuracy    <       0.00237633 Ry

     total magnetization       =    -0.00 Bohr mag/cell
     absolute magnetization    =    16.64 Bohr mag/cell

     iteration #  8     ecut=    90.00 Ry     beta= 0.50
     Davidson diagonalization with overlap
     ethr =  1.70E-06,  avg # of iterations =  5.4

     negative rho (up, down):  3.145E-02 3.144E-02

     total cpu time spent up to now is     1197.2 secs

     total energy              =   -5539.70238019 Ry
     estimated scf accuracy    <       0.00035555 Ry

     total magnetization       =     0.00 Bohr mag/cell
     absolute magnetization    =    16.63 Bohr mag/cell

     iteration #  9     ecut=    90.00 Ry     beta= 0.50
     Davidson diagonalization with overlap
     ethr =  2.54E-07,  avg # of iterations =  3.3

     negative rho (up, down):  3.143E-02 3.143E-02

     total cpu time spent up to now is     1299.0 secs

     total energy              =   -5539.70244720 Ry
     estimated scf accuracy    <       0.00018852 Ry

     total magnetization       =     0.00 Bohr mag/cell
     absolute magnetization    =    16.62 Bohr mag/cell

     iteration # 10     ecut=    90.00 Ry     beta= 0.50
     Davidson diagonalization with overlap
     ethr =  1.35E-07,  avg # of iterations =  2.6

     negative rho (up, down):  3.139E-02 3.138E-02

     total cpu time spent up to now is     1389.3 secs

     total energy              =   -5539.70249487 Ry
     estimated scf accuracy    <       0.00003960 Ry

     total magnetization       =    -0.00 Bohr mag/cell
     absolute magnetization    =    16.62 Bohr mag/cell

     iteration # 11     ecut=    90.00 Ry     beta= 0.50
     Davidson diagonalization with overlap
     ethr =  2.83E-08,  avg # of iterations =  3.9

     negative rho (up, down):  3.136E-02 3.136E-02

     total cpu time spent up to now is     1489.9 secs

     total energy              =   -5539.70250232 Ry
     estimated scf accuracy    <       0.00001981 Ry

     total magnetization       =     0.00 Bohr mag/cell
     absolute magnetization    =    16.64 Bohr mag/cell

     iteration # 12     ecut=    90.00 Ry     beta= 0.50
     Davidson diagonalization with overlap
     ethr =  1.42E-08,  avg # of iterations =  2.5

     negative rho (up, down):  3.135E-02 3.135E-02

     total cpu time spent up to now is     1585.8 secs

     total energy              =   -5539.70251197 Ry
     estimated scf accuracy    <       0.00000782 Ry

     total magnetization       =    -0.00 Bohr mag/cell
     absolute magnetization    =    16.68 Bohr mag/cell

     iteration # 13     ecut=    90.00 Ry     beta= 0.50
     Davidson diagonalization with overlap
     ethr =  5.58E-09,  avg # of iterations =  2.1

     negative rho (up, down):  3.136E-02 3.136E-02

     total cpu time spent up to now is     1673.3 secs

     total energy              =   -5539.70251336 Ry
     estimated scf accuracy    <       0.00000249 Ry

     total magnetization       =     0.00 Bohr mag/cell
     absolute magnetization    =    16.68 Bohr mag/cell

     iteration # 14     ecut=    90.00 Ry     beta= 0.50
     Davidson diagonalization with overlap
     ethr =  1.78E-09,  avg # of iterations =  2.8

     negative rho (up, down):  3.135E-02 3.135E-02

     total cpu time spent up to now is     1765.1 secs

     total energy              =   -5539.70251439 Ry
     estimated scf accuracy    <       0.00000062 Ry

     total magnetization       =    -0.00 Bohr mag/cell
     absolute magnetization    =    16.68 Bohr mag/cell

     iteration # 15     ecut=    90.00 Ry     beta= 0.50
     Davidson diagonalization with overlap
     ethr =  4.41E-10,  avg # of iterations =  3.8

     negative rho (up, down):  3.135E-02 3.135E-02

     total cpu time spent up to now is     1878.6 secs

     total energy              =   -5539.70251488 Ry
     estimated scf accuracy    <       0.00000063 Ry

     total magnetization       =     0.00 Bohr mag/cell
     absolute magnetization    =    16.69 Bohr mag/cell

     iteration # 16     ecut=    90.00 Ry     beta= 0.50
     Davidson diagonalization with overlap
     ethr =  4.41E-10,  avg # of iterations =  1.6

     negative rho (up, down):  3.135E-02 3.135E-02

     total cpu time spent up to now is     1959.9 secs

     total energy              =   -5539.70251505 Ry
     estimated scf accuracy    <       0.00000013 Ry

     total magnetization       =    -0.00 Bohr mag/cell
     absolute magnetization    =    16.69 Bohr mag/cell

     iteration # 17     ecut=    90.00 Ry     beta= 0.50
     Davidson diagonalization with overlap
     ethr =  9.01E-11,  avg # of iterations =  2.3

     negative rho (up, down):  3.135E-02 3.135E-02

     total cpu time spent up to now is     2047.9 secs

     total energy              =   -5539.70251509 Ry
     estimated scf accuracy    <       0.00000012 Ry

     total magnetization       =    -0.00 Bohr mag/cell
     absolute magnetization    =    16.70 Bohr mag/cell

     iteration # 18     ecut=    90.00 Ry     beta= 0.50
     Davidson diagonalization with overlap
     ethr =  8.68E-11,  avg # of iterations =  1.5

     negative rho (up, down):  3.135E-02 3.135E-02

     total cpu time spent up to now is     2128.6 secs

     total energy              =   -5539.70251511 Ry
     estimated scf accuracy    <       0.00000001 Ry

     total magnetization       =     0.00 Bohr mag/cell
     absolute magnetization    =    16.70 Bohr mag/cell

     iteration # 19     ecut=    90.00 Ry     beta= 0.50
     Davidson diagonalization with overlap
     ethr =  8.83E-12,  avg # of iterations =  3.6

     negative rho (up, down):  3.135E-02 3.135E-02

     total cpu time spent up to now is     2240.8 secs

     total energy              =   -5539.70251511 Ry
     estimated scf accuracy    <          8.6E-09 Ry

     total magnetization       =     0.00 Bohr mag/cell
     absolute magnetization    =    16.70 Bohr mag/cell

     iteration # 20     ecut=    90.00 Ry     beta= 0.50
     Davidson diagonalization with overlap
     ethr =  6.15E-12,  avg # of iterations =  1.4

     negative rho (up, down):  3.135E-02 3.135E-02

     total cpu time spent up to now is     2318.3 secs

     total energy              =   -5539.70251511 Ry
     estimated scf accuracy    <          6.9E-10 Ry

     total magnetization       =     0.00 Bohr mag/cell
     absolute magnetization    =    16.70 Bohr mag/cell

     iteration # 21     ecut=    90.00 Ry     beta= 0.50
     Davidson diagonalization with overlap
     ethr =  4.94E-13,  avg # of iterations =  2.8

     negative rho (up, down):  3.135E-02 3.135E-02

     total cpu time spent up to now is     2419.9 secs

     total energy              =   -5539.70251511 Ry
     estimated scf accuracy    <          8.3E-10 Ry

     total magnetization       =    -0.00 Bohr mag/cell
     absolute magnetization    =    16.70 Bohr mag/cell

     iteration # 22     ecut=    90.00 Ry     beta= 0.50
     Davidson diagonalization with overlap
     ethr =  4.94E-13,  avg # of iterations =  2.0

     negative rho (up, down):  3.135E-02 3.135E-02

     total cpu time spent up to now is     2504.8 secs

     total energy              =   -5539.70251511 Ry
     estimated scf accuracy    <          2.6E-10 Ry

     total magnetization       =     0.00 Bohr mag/cell
     absolute magnetization    =    16.70 Bohr mag/cell

     iteration # 23     ecut=    90.00 Ry     beta= 0.50
     Davidson diagonalization with overlap
     ethr =  1.83E-13,  avg # of iterations =  2.1

     negative rho (up, down):  3.135E-02 3.135E-02

     total cpu time spent up to now is     2592.4 secs

     total energy              =   -5539.70251511 Ry
     estimated scf accuracy    <          1.7E-10 Ry

     total magnetization       =    -0.00 Bohr mag/cell
     absolute magnetization    =    16.70 Bohr mag/cell

     iteration # 24     ecut=    90.00 Ry     beta= 0.50
     Davidson diagonalization with overlap
     ethr =  1.18E-13,  avg # of iterations =  1.7

     negative rho (up, down):  3.135E-02 3.135E-02

     Magnetic moment per site  (integrated on atomic sphere of radius R)
     atom   1 (R=0.162)  charge= 12.3969  magn=  3.2491
     atom   2 (R=0.162)  charge= 12.4011  magn=  3.2445
     atom   3 (R=0.162)  charge=  4.0463  magn= -0.1217
     atom   4 (R=0.162)  charge=  4.0463  magn= -0.1217
     atom   5 (R=0.162)  charge=  4.0463  magn= -0.1217
     atom   6 (R=0.162)  charge=  4.0478  magn= -0.1254
     atom   7 (R=0.162)  charge=  4.0478  magn= -0.1254
     atom   8 (R=0.162)  charge=  4.0476  magn= -0.1254
     atom   9 (R=0.162)  charge= 12.4012  magn= -3.2445
     atom  10 (R=0.162)  charge= 12.3969  magn= -3.2491
     atom  11 (R=0.162)  charge=  4.0478  magn=  0.1254
     atom  12 (R=0.162)  charge=  4.0477  magn=  0.1254
     atom  13 (R=0.162)  charge=  4.0478  magn=  0.1254
     atom  14 (R=0.162)  charge=  4.0462  magn=  0.1217
     atom  15 (R=0.162)  charge=  4.0462  magn=  0.1217
     atom  16 (R=0.162)  charge=  4.0462  magn=  0.1217

     total cpu time spent up to now is     2670.6 secs

     End of self-consistent calculation

     =================== HUBBARD OCCUPATIONS ===================
     ------------------------ ATOM    1 ------------------------
     Tr[ns(  1)] (up, down, total) =   4.39384  1.07614  5.46998
     Atomic magnetic moment for atom   1 =   3.31769
     SPIN  1
     eigenvalues:
       0.706  0.706  0.994  0.994  0.994
     eigenvectors (columns):
       0.000 -0.000  1.000  0.000 -0.000
       0.418 -0.707  0.000 -0.345  0.454
      -0.707 -0.418 -0.000  0.454  0.345
      -0.291  0.490  0.000 -0.499  0.653
      -0.490 -0.291  0.000 -0.653 -0.499
     occupation matrix ns (before diag.):
       0.994 -0.000  0.000  0.000  0.000
      -0.000  0.800  0.000  0.135 -0.000
       0.000  0.000  0.800 -0.000 -0.135
       0.000  0.135 -0.000  0.900  0.000
       0.000 -0.000 -0.135  0.000  0.900
     SPIN  2
     eigenvalues:
       0.101  0.108  0.108  0.380  0.380
     eigenvectors (columns):
      -1.000 -0.000  0.000  0.000 -0.000
      -0.000  0.576 -0.029  0.817 -0.029
       0.000  0.029  0.576  0.029  0.817
      -0.000  0.816 -0.044 -0.576  0.022
      -0.000 -0.044 -0.816  0.022  0.576
     occupation matrix ns (before diag.):
       0.101  0.000 -0.000 -0.000 -0.000
       0.000  0.290 -0.000 -0.128  0.000
      -0.000 -0.000  0.290  0.000  0.128
      -0.000 -0.128  0.000  0.198 -0.000
      -0.000  0.000  0.128 -0.000  0.198
     ------------------------ ATOM    2 ------------------------
     Tr[ns(  2)] (up, down, total) =   4.39331  1.08120  5.47450
     Atomic magnetic moment for atom   2 =   3.31211
     SPIN  1
     eigenvalues:
       0.706  0.706  0.994  0.994  0.994
     eigenvectors (columns):
       0.000 -0.000 -1.000 -0.000 -0.000
       0.246 -0.783 -0.000  0.150  0.551
      -0.783 -0.246  0.000 -0.551  0.150
      -0.172  0.544 -0.000  0.217  0.792
      -0.544 -0.172 -0.000  0.792 -0.217
     occupation matrix ns (before diag.):
       0.994 -0.000  0.000  0.000  0.000
      -0.000  0.800  0.000  0.135 -0.000
       0.000  0.000  0.800 -0.000 -0.135
       0.000  0.135 -0.000  0.900  0.000
       0.000 -0.000 -0.135  0.000  0.900
     SPIN  2
     eigenvalues:
       0.101  0.108  0.108  0.382  0.382
     eigenvectors (columns):
       1.000 -0.000 -0.000 -0.000 -0.000
      -0.000 -0.299  0.494  0.696 -0.428
      -0.000 -0.494 -0.299  0.428  0.696
      -0.000 -0.422  0.699 -0.491  0.303
       0.000  0.699  0.422  0.303  0.491
     occupation matrix ns (before diag.):
       0.101  0.000 -0.000 -0.000 -0.000
       0.000  0.291 -0.000 -0.129  0.000
      -0.000 -0.000  0.291  0.000  0.129
      -0.000 -0.129  0.000  0.199 -0.000
      -0.000  0.000  0.129 -0.000  0.199
     ------------------------ ATOM    9 ------------------------
     Tr[ns(  9)] (up, down, total) =   1.08122  4.39330  5.47452
     Atomic magnetic moment for atom   9 =  -3.31208
     SPIN  1
     eigenvalues:
       0.101  0.108  0.108  0.382  0.382
     eigenvectors (columns):
       1.000  0.000 -0.000  0.000  0.000
      -0.000  0.334 -0.471  0.637 -0.511
       0.000  0.471  0.334  0.511  0.637
      -0.000  0.471 -0.667 -0.449  0.362
      -0.000 -0.667 -0.471  0.362  0.449
     occupation matrix ns (before diag.):
       0.101 -0.000  0.000  0.000  0.000
      -0.000  0.291 -0.000 -0.129  0.000
       0.000 -0.000  0.291  0.000  0.129
       0.000 -0.129  0.000  0.199  0.000
       0.000  0.000  0.129  0.000  0.199
     SPIN  2
     eigenvalues:
       0.706  0.706  0.994  0.994  0.994
     eigenvectors (columns):
       0.000  0.000 -1.000 -0.000 -0.000
       0.709 -0.413 -0.000 -0.522  0.231
       0.413  0.709  0.000 -0.231 -0.522
      -0.493  0.289 -0.000 -0.750  0.334
       0.289  0.493 -0.000  0.334  0.750
     occupation matrix ns (before diag.):
       0.994  0.000 -0.000 -0.000 -0.000
       0.000  0.800 -0.000  0.135 -0.000
      -0.000 -0.000  0.800 -0.000 -0.135
      -0.000  0.135 -0.000  0.900  0.000
      -0.000 -0.000 -0.135  0.000  0.900
     ------------------------ ATOM   10 ------------------------
     Tr[ns( 10)] (up, down, total) =   1.07612  4.39384  5.46996
     Atomic magnetic moment for atom  10 =  -3.31772
     SPIN  1
     eigenvalues:
       0.101  0.108  0.108  0.380  0.380
     eigenvectors (columns):
       1.000 -0.000  0.000  0.000 -0.000
      -0.000 -0.353  0.456 -0.642  0.506
       0.000  0.456  0.353  0.506  0.642
      -0.000 -0.502  0.645  0.454 -0.355
      -0.000 -0.645 -0.502  0.355  0.454
     occupation matrix ns (before diag.):
       0.101 -0.000 -0.000  0.000 -0.000
      -0.000  0.290  0.000 -0.128  0.000
      -0.000  0.000  0.290  0.000  0.128
       0.000 -0.128  0.000  0.198 -0.000
      -0.000  0.000  0.128 -0.000  0.198
     SPIN  2
     eigenvalues:
       0.706  0.706  0.994  0.994  0.994
     eigenvectors (columns):
      -0.000  0.000 -1.000  0.000  0.000
       0.814 -0.112 -0.000 -0.568  0.051
      -0.112 -0.814 -0.000 -0.051 -0.568
      -0.565  0.077 -0.000 -0.818  0.075
      -0.077 -0.565  0.000  0.075  0.818
     occupation matrix ns (before diag.):
       0.994  0.000  0.000 -0.000  0.000
       0.000  0.800  0.000  0.135 -0.000
       0.000  0.000  0.800 -0.000 -0.135
      -0.000  0.135 -0.000  0.900 -0.000
       0.000 -0.000 -0.135 -0.000  0.900

     Number of occupied Hubbard levels =   21.8890

 ------ SPIN UP ------------


          k = 0.0000 0.0000 0.0000 (109591 PWs)   bands (ev):

   -78.4658 -78.4431 -75.0853 -75.0677 -49.8021 -49.7967 -49.7967 -49.7802
   -49.7738 -49.7738 -46.4833 -46.4651 -46.4649 -46.4649 -46.4476 -46.4476
   -18.6088 -18.5039 -17.8118 -17.6390 -17.5100 -17.5100 -17.4394 -17.4394
   -17.3250 -17.3250 -17.3172 -17.3172 -10.4359 -10.1334  -9.9559  -9.6165
    -9.6165  -9.5048  -9.5048  -9.3105  -8.9316  -8.9316  -8.7973  -8.7223
    -8.6801  -8.6801  -8.6115  -8.6115  -8.5182  -8.1188  -8.1188  -7.8741
    -7.8095  -7.6000  -7.6000  -7.4514  -7.4514  -7.3234  -7.2822  -7.2822
    -7.2530  -6.9825  -6.9109  -6.9109  -6.7617  -6.3503  -6.3503  -6.2042
    -6.2042  -6.1580  -5.8598  -5.8598  -5.6708  -5.6707  -4.5232  -4.5232
    -4.0558  -4.0558  -2.6614  -2.6614  -2.5480  -2.5480  -2.4157  -2.3805
    -2.0923  -2.0923  -2.0375  -2.0375  -0.8919  -0.4674  -0.2121   0.0470
     0.1349   0.2262   0.9444   1.0455   1.0455   1.1618   1.1618   1.3115
     1.7585   1.8732   1.8732   1.9542

          k = 0.0000 0.1925 0.0000 (109722 PWs)   bands (ev):

   -78.4659 -78.4431 -75.0852 -75.0676 -49.8021 -49.7967 -49.7966 -49.7802
   -49.7738 -49.7738 -46.4833 -46.4651 -46.4649 -46.4649 -46.4477 -46.4477
   -18.5495 -18.4455 -17.7740 -17.6128 -17.5957 -17.5438 -17.5176 -17.4603
   -17.3423 -17.3375 -17.3185 -17.3158 -10.4109 -10.0854  -9.9381  -9.6965
    -9.6675  -9.4339  -9.3650  -9.2988  -9.0125  -8.9535  -8.8037  -8.7590
    -8.7066  -8.6516  -8.6184  -8.3515  -8.2481  -8.1006  -7.9920  -7.9044
    -7.7707  -7.7128  -7.6146  -7.5954  -7.4467  -7.3285  -7.2974  -7.2096
    -7.0855  -6.9845  -6.8681  -6.8261  -6.7226  -6.4377  -6.4056  -6.2977
    -6.2446  -6.1966  -6.0804  -5.9506  -5.8576  -5.7110  -4.5190  -4.4950
    -4.2464  -4.1036  -2.6531  -2.6324  -2.5755  -2.5474  -2.3860  -2.3036
    -2.1610  -2.1017  -2.0862  -2.0849  -0.7947  -0.1700   0.0076   0.3157
     0.4037   0.5571   0.6575   0.7764   0.8765   1.0798   1.3869   1.5165
     1.6512   1.7381   1.8546   1.8933

          k = 0.0000 0.3849 0.0000 (109616 PWs)   bands (ev):

   -78.4660 -78.4432 -75.0850 -75.0674 -49.8021 -49.7966 -49.7966 -49.7802
   -49.7738 -49.7737 -46.4833 -46.4652 -46.4649 -46.4649 -46.4478 -46.4477
   -18.3854 -18.2881 -17.8060 -17.7159 -17.6729 -17.6027 -17.5382 -17.4960
   -17.4016 -17.3636 -17.3510 -17.3257 -10.4260  -9.9417  -9.8677  -9.6778
    -9.5360  -9.3813  -9.2940  -9.2236  -9.1241  -8.9210  -8.8677  -8.7131
    -8.6288  -8.5923  -8.4231  -8.3469  -8.1455  -8.0572  -8.0254  -7.9026
    -7.7353  -7.7024  -7.6762  -7.4233  -7.4032  -7.3455  -7.2432  -7.1523
    -7.0862  -7.0410  -6.9573  -6.7377  -6.7131  -6.6832  -6.4540  -6.3920
    -6.2918  -6.2594  -6.1993  -6.0811  -5.9687  -5.8025  -4.5019  -4.4371
    -4.3660  -4.2546  -2.6730  -2.6296  -2.6049  -2.5123  -2.4860  -2.2548
    -2.2501  -2.1242  -2.0803  -2.0223  -0.8332  -0.2404   0.0377   0.4550
     0.6112   0.7321   0.8469   0.9530   1.0472   1.0824   1.1722   1.2517
     1.3593   1.4966   1.5515   1.6550

          k = 0.0000-0.5774 0.0000 (109602 PWs)   bands (ev):

   -78.4660 -78.4433 -75.0849 -75.0673 -49.8021 -49.7966 -49.7965 -49.7802
   -49.7738 -49.7737 -46.4833 -46.4652 -46.4649 -46.4649 -46.4479 -46.4477
   -18.2167 -18.1565 -17.9757 -17.8840 -17.6296 -17.5798 -17.5149 -17.5011
   -17.4335 -17.4135 -17.3765 -17.3325 -10.4642  -9.8588  -9.7786  -9.6602
    -9.3867  -9.2862  -9.2338  -9.1732  -9.1356  -9.0064  -8.8639  -8.6240
    -8.5708  -8.5501  -8.5127  -8.4894  -8.2515  -8.1200  -8.0059  -7.8292
    -7.7900  -7.6620  -7.5652  -7.4475  -7.4137  -7.3647  -7.3410  -7.2195
    -7.1393  -6.8971  -6.8467  -6.7800  -6.6896  -6.6154  -6.4928  -6.4774
    -6.3846  -6.2697  -6.2220  -6.0205  -5.9052  -5.8915  -4.4699  -4.4415
    -4.3791  -4.2738  -2.7596  -2.6312  -2.6030  -2.5515  -2.4593  -2.3572
    -2.2365  -2.0523  -2.0513  -1.9900  -1.0490  -0.4666   0.1067   0.1363
     0.4251   0.7439   0.8790   0.9516   0.9803   1.1902   1.2446   1.3063
     1.3869   1.4636   1.5661   1.6172

          k = 0.1667 0.2887 0.0000 (109615 PWs)   bands (ev):

   -78.4660 -78.4432 -75.0851 -75.0675 -49.8021 -49.7966 -49.7966 -49.7802
   -49.7738 -49.7738 -46.4833 -46.4652 -46.4650 -46.4648 -46.4478 -46.4477
   -18.4371 -18.3364 -17.7247 -17.7060 -17.6519 -17.6004 -17.5590 -17.5088
   -17.3763 -17.3604 -17.3356 -17.3178 -10.3458 -10.0471  -9.8643  -9.7928
    -9.4904  -9.4201  -9.3180  -9.2321  -9.0690  -8.9870  -8.8850  -8.7641
    -8.6383  -8.5622  -8.4519  -8.2929  -8.1031  -8.0607  -7.9997  -7.9011
    -7.8175  -7.7763  -7.6575  -7.4985  -7.3687  -7.3243  -7.2355  -7.1664
    -7.0947  -6.9961  -6.8842  -6.8320  -6.7277  -6.5086  -6.4589  -6.4293
    -6.2844  -6.1989  -6.1938  -6.0936  -5.9621  -5.7719  -4.5074  -4.4509
    -4.4176  -4.1341  -2.6626  -2.5966  -2.5782  -2.5335  -2.4988  -2.2303
    -2.2142  -2.1740  -2.0631  -2.0423  -0.7255  -0.1617  -0.0694   0.3651
     0.5194   0.5840   0.7387   0.8374   1.0854   1.1606   1.3240   1.3847
     1.4758   1.5744   1.5858   1.6833

          k = 0.1667 0.4811 0.0000 (109606 PWs)   bands (ev):

   -78.4660 -78.4433 -75.0849 -75.0673 -49.8021 -49.7966 -49.7965 -49.7802
   -49.7738 -49.7737 -46.4833 -46.4652 -46.4650 -46.4648 -46.4479 -46.4477
   -18.2450 -18.1596 -17.9249 -17.8428 -17.6674 -17.5999 -17.5526 -17.4893
   -17.4396 -17.3991 -17.3667 -17.3293 -10.3079  -9.9091  -9.7578  -9.7086
    -9.3850  -9.3518  -9.2841  -9.2248  -9.1054  -9.0516  -8.8486  -8.7018
    -8.6577  -8.5369  -8.4320  -8.3556  -8.2625  -8.1336  -7.9708  -7.9046
    -7.8101  -7.6668  -7.6067  -7.5172  -7.4782  -7.3804  -7.2547  -7.1509
    -7.0046  -6.9451  -6.7872  -6.7543  -6.6848  -6.6480  -6.5213  -6.4388
    -6.3361  -6.2281  -6.1997  -6.1239  -5.9335  -5.8451  -4.4819  -4.4274
    -4.3643  -4.1832  -2.6834  -2.6103  -2.5861  -2.5686  -2.4870  -2.3588
    -2.2967  -2.0728  -1.9990  -1.9774  -0.9133  -0.4221  -0.3232   0.1801
     0.2925   0.5465   0.6560   0.6755   0.8956   0.9941   1.1404   1.2450
     1.2954   1.3630   1.4596   1.5475

          k = 0.3333 0.5774 0.0000 (109542 PWs)   bands (ev):

   -78.4660 -78.4433 -75.0849 -75.0673 -49.8021 -49.7966 -49.7965 -49.7802
   -49.7738 -49.7737 -46.4833 -46.4652 -46.4652 -46.4647 -46.4479 -46.4477
   -18.0739 -18.0646 -18.0030 -17.9815 -17.7229 -17.6126 -17.5144 -17.4960
   -17.4493 -17.4179 -17.3798 -17.3364  -9.9716  -9.9662  -9.9079  -9.4685
    -9.4662  -9.3621  -9.3557  -9.1890  -9.1889  -8.9719  -8.8682  -8.8098
    -8.7105  -8.6805  -8.2856  -8.2545  -8.2088  -8.1109  -8.0733  -8.0594
    -7.8885  -7.6891  -7.6733  -7.6077  -7.5490  -7.1472  -7.1425  -7.0952
    -6.9436  -6.9169  -6.8036  -6.7337  -6.6533  -6.6278  -6.5289  -6.5159
    -6.2591  -6.2252  -6.1935  -6.1895  -5.8804  -5.8582  -4.4919  -4.3720
    -4.3425  -4.0966  -2.6184  -2.6160  -2.5895  -2.5363  -2.5100  -2.4959
    -2.3007  -2.0303  -1.9511  -1.9493  -0.8436  -0.8178  -0.2547  -0.2372
     0.2136   0.3452   0.3567   0.5620   0.6082   0.6570   0.9486   0.9963
     1.1412   1.3534   1.3976   1.4224

          k =-0.1667 0.0962 0.0000 (109722 PWs)   bands (ev):

   -78.4659 -78.4431 -75.0852 -75.0676 -49.8021 -49.7967 -49.7966 -49.7802
   -49.7738 -49.7738 -46.4833 -46.4651 -46.4649 -46.4649 -46.4477 -46.4477
   -18.5495 -18.4455 -17.7740 -17.6128 -17.5957 -17.5438 -17.5176 -17.4603
   -17.3423 -17.3375 -17.3185 -17.3158 -10.4109 -10.0854  -9.9381  -9.6965
    -9.6675  -9.4339  -9.3650  -9.2988  -9.0125  -8.9535  -8.8037  -8.7590
    -8.7065  -8.6516  -8.6184  -8.3515  -8.2481  -8.1006  -7.9920  -7.9044
    -7.7707  -7.7128  -7.6146  -7.5954  -7.4467  -7.3286  -7.2974  -7.2096
    -7.0855  -6.9845  -6.8681  -6.8261  -6.7226  -6.4377  -6.4056  -6.2977
    -6.2446  -6.1966  -6.0804  -5.9507  -5.8576  -5.7110  -4.5190  -4.4950
    -4.2464  -4.1036  -2.6531  -2.6324  -2.5755  -2.5474  -2.3860  -2.3036
    -2.1610  -2.1017  -2.0862  -2.0849  -0.7947  -0.1700   0.0076   0.3157
     0.4037   0.5571   0.6575   0.7764   0.8765   1.0798   1.3869   1.5165
     1.6512   1.7381   1.8546   1.8933

          k = 0.1667 0.0962 0.0000 (109722 PWs)   bands (ev):

   -78.4659 -78.4431 -75.0852 -75.0676 -49.8021 -49.7967 -49.7966 -49.7802
   -49.7738 -49.7738 -46.4833 -46.4651 -46.4649 -46.4649 -46.4477 -46.4477
   -18.5495 -18.4455 -17.7740 -17.6128 -17.5957 -17.5438 -17.5176 -17.4603
   -17.3423 -17.3375 -17.3185 -17.3158 -10.4109 -10.0854  -9.9381  -9.6965
    -9.6675  -9.4339  -9.3650  -9.2988  -9.0125  -8.9535  -8.8037  -8.7590
    -8.7066  -8.6516  -8.6184  -8.3515  -8.2481  -8.1006  -7.9919  -7.9044
    -7.7707  -7.7128  -7.6146  -7.5954  -7.4467  -7.3286  -7.2974  -7.2096
    -7.0855  -6.9845  -6.8681  -6.8261  -6.7226  -6.4377  -6.4056  -6.2977
    -6.2446  -6.1966  -6.0804  -5.9507  -5.8576  -5.7110  -4.5190  -4.4951
    -4.2464  -4.1036  -2.6531  -2.6324  -2.5755  -2.5474  -2.3860  -2.3036
    -2.1610  -2.1017  -2.0862  -2.0849  -0.7947  -0.1699   0.0076   0.3157
     0.4037   0.5571   0.6575   0.7765   0.8765   1.0798   1.3869   1.5165
     1.6512   1.7381   1.8546   1.8933

          k =-0.3333 0.1925 0.0000 (109616 PWs)   bands (ev):

   -78.4660 -78.4432 -75.0850 -75.0674 -49.8021 -49.7966 -49.7966 -49.7802
   -49.7738 -49.7737 -46.4833 -46.4652 -46.4649 -46.4649 -46.4478 -46.4477
   -18.3854 -18.2881 -17.8060 -17.7159 -17.6729 -17.6027 -17.5382 -17.4960
   -17.4016 -17.3636 -17.3510 -17.3257 -10.4260  -9.9417  -9.8677  -9.6778
    -9.5360  -9.3813  -9.2940  -9.2236  -9.1241  -8.9210  -8.8677  -8.7131
    -8.6288  -8.5923  -8.4231  -8.3469  -8.1455  -8.0572  -8.0254  -7.9026
    -7.7353  -7.7024  -7.6762  -7.4233  -7.4031  -7.3455  -7.2432  -7.1523
    -7.0862  -7.0410  -6.9573  -6.7377  -6.7131  -6.6832  -6.4540  -6.3920
    -6.2918  -6.2594  -6.1993  -6.0811  -5.9687  -5.8025  -4.5019  -4.4371
    -4.3660  -4.2546  -2.6730  -2.6296  -2.6049  -2.5123  -2.4860  -2.2548
    -2.2501  -2.1242  -2.0803  -2.0223  -0.8332  -0.2404   0.0377   0.4550
     0.6112   0.7321   0.8469   0.9530   1.0472   1.0824   1.1722   1.2517
     1.3593   1.4966   1.5514   1.6550

          k = 0.3333 0.1925 0.0000 (109616 PWs)   bands (ev):

   -78.4660 -78.4432 -75.0850 -75.0674 -49.8021 -49.7966 -49.7966 -49.7802
   -49.7738 -49.7737 -46.4833 -46.4652 -46.4649 -46.4649 -46.4478 -46.4477
   -18.3854 -18.2881 -17.8060 -17.7159 -17.6729 -17.6027 -17.5382 -17.4960
   -17.4016 -17.3636 -17.3510 -17.3257 -10.4260  -9.9417  -9.8677  -9.6778
    -9.5360  -9.3813  -9.2940  -9.2236  -9.1241  -8.9210  -8.8677  -8.7131
    -8.6288  -8.5924  -8.4231  -8.3469  -8.1455  -8.0573  -8.0254  -7.9026
    -7.7353  -7.7023  -7.6761  -7.4233  -7.4031  -7.3455  -7.2432  -7.1523
    -7.0862  -7.0410  -6.9573  -6.7377  -6.7131  -6.6832  -6.4540  -6.3920
    -6.2918  -6.2594  -6.1993  -6.0811  -5.9687  -5.8025  -4.5018  -4.4372
    -4.3660  -4.2546  -2.6730  -2.6296  -2.6049  -2.5123  -2.4860  -2.2548
    -2.2501  -2.1242  -2.0803  -2.0223  -0.8332  -0.2404   0.0377   0.4550
     0.6112   0.7321   0.8469   0.9530   1.0472   1.0824   1.1722   1.2517
     1.3593   1.4966   1.5514   1.6550

          k = 0.5000-0.2887 0.0000 (109602 PWs)   bands (ev):

   -78.4660 -78.4433 -75.0849 -75.0673 -49.8021 -49.7966 -49.7965 -49.7802
   -49.7738 -49.7737 -46.4833 -46.4652 -46.4649 -46.4649 -46.4479 -46.4477
   -18.2167 -18.1565 -17.9757 -17.8839 -17.6296 -17.5798 -17.5149 -17.5011
   -17.4335 -17.4135 -17.3765 -17.3325 -10.4642  -9.8588  -9.7786  -9.6602
    -9.3867  -9.2862  -9.2338  -9.1733  -9.1356  -9.0064  -8.8639  -8.6240
    -8.5708  -8.5501  -8.5127  -8.4894  -8.2515  -8.1200  -8.0059  -7.8292
    -7.7900  -7.6620  -7.5652  -7.4474  -7.4137  -7.3647  -7.3409  -7.2195
    -7.1393  -6.8971  -6.8467  -6.7800  -6.6896  -6.6154  -6.4928  -6.4774
    -6.3846  -6.2697  -6.2220  -6.0205  -5.9052  -5.8916  -4.4699  -4.4415
    -4.3791  -4.2738  -2.7597  -2.6312  -2.6030  -2.5515  -2.4593  -2.3572
    -2.2365  -2.0523  -2.0513  -1.9900  -1.0490  -0.4666   0.1067   0.1363
     0.4251   0.7439   0.8790   0.9515   0.9803   1.1902   1.2446   1.3062
     1.3869   1.4637   1.5661   1.6172

          k =-0.5000-0.2887 0.0000 (109602 PWs)   bands (ev):

   -78.4660 -78.4433 -75.0849 -75.0673 -49.8021 -49.7966 -49.7965 -49.7802
   -49.7738 -49.7737 -46.4833 -46.4652 -46.4649 -46.4649 -46.4479 -46.4477
   -18.2167 -18.1565 -17.9757 -17.8839 -17.6296 -17.5798 -17.5149 -17.5011
   -17.4335 -17.4135 -17.3765 -17.3325 -10.4642  -9.8588  -9.7786  -9.6602
    -9.3867  -9.2862  -9.2338  -9.1732  -9.1356  -9.0064  -8.8639  -8.6240
    -8.5708  -8.5501  -8.5127  -8.4894  -8.2515  -8.1200  -8.0059  -7.8293
    -7.7900  -7.6619  -7.5652  -7.4474  -7.4137  -7.3647  -7.3409  -7.2195
    -7.1393  -6.8972  -6.8466  -6.7800  -6.6895  -6.6154  -6.4929  -6.4774
    -6.3846  -6.2697  -6.2220  -6.0205  -5.9052  -5.8916  -4.4699  -4.4415
    -4.3791  -4.2738  -2.7597  -2.6312  -2.6030  -2.5515  -2.4593  -2.3572
    -2.2365  -2.0523  -2.0513  -1.9900  -1.0490  -0.4666   0.1067   0.1363
     0.4251   0.7439   0.8790   0.9515   0.9803   1.1902   1.2446   1.3062
     1.3869   1.4636   1.5661   1.6172

          k =-0.1667 0.2887 0.0000 (109615 PWs)   bands (ev):

   -78.4660 -78.4432 -75.0851 -75.0675 -49.8021 -49.7966 -49.7966 -49.7802
   -49.7738 -49.7738 -46.4833 -46.4652 -46.4650 -46.4648 -46.4478 -46.4477
   -18.4371 -18.3364 -17.7247 -17.7060 -17.6519 -17.6004 -17.5590 -17.5088
   -17.3763 -17.3604 -17.3356 -17.3178 -10.3458 -10.0471  -9.8643  -9.7928
    -9.4904  -9.4201  -9.3180  -9.2321  -9.0690  -8.9870  -8.8850  -8.7641
    -8.6383  -8.5622  -8.4519  -8.2929  -8.1031  -8.0607  -7.9997  -7.9011
    -7.8175  -7.7763  -7.6575  -7.4985  -7.3687  -7.3242  -7.2355  -7.1664
    -7.0947  -6.9961  -6.8842  -6.8321  -6.7277  -6.5086  -6.4590  -6.4293
    -6.2844  -6.1989  -6.1939  -6.0936  -5.9621  -5.7719  -4.5074  -4.4509
    -4.4176  -4.1341  -2.6625  -2.5966  -2.5782  -2.5335  -2.4988  -2.2303
    -2.2142  -2.1740  -2.0630  -2.0423  -0.7255  -0.1617  -0.0694   0.3651
     0.5194   0.5840   0.7387   0.8374   1.0854   1.1606   1.3240   1.3847
     1.4758   1.5744   1.5858   1.6833

          k = 0.3333 0.0000 0.0000 (109615 PWs)   bands (ev):

   -78.4660 -78.4432 -75.0851 -75.0675 -49.8021 -49.7966 -49.7966 -49.7802
   -49.7738 -49.7738 -46.4833 -46.4652 -46.4650 -46.4648 -46.4478 -46.4477
   -18.4371 -18.3364 -17.7247 -17.7060 -17.6519 -17.6004 -17.5590 -17.5088
   -17.3764 -17.3604 -17.3356 -17.3178 -10.3458 -10.0471  -9.8643  -9.7928
    -9.4904  -9.4201  -9.3180  -9.2321  -9.0690  -8.9870  -8.8850  -8.7641
    -8.6383  -8.5622  -8.4519  -8.2929  -8.1031  -8.0607  -7.9997  -7.9011
    -7.8175  -7.7763  -7.6576  -7.4985  -7.3687  -7.3243  -7.2355  -7.1664
    -7.0947  -6.9961  -6.8842  -6.8320  -6.7277  -6.5086  -6.4590  -6.4293
    -6.2844  -6.1989  -6.1938  -6.0936  -5.9621  -5.7719  -4.5074  -4.4509
    -4.4176  -4.1341  -2.6626  -2.5966  -2.5782  -2.5335  -2.4988  -2.2303
    -2.2142  -2.1739  -2.0631  -2.0423  -0.7255  -0.1617  -0.0694   0.3651
     0.5194   0.5840   0.7387   0.8374   1.0854   1.1606   1.3240   1.3847
     1.4758   1.5744   1.5858   1.6833

          k =-0.1667 0.4811 0.0000 (109606 PWs)   bands (ev):

   -78.4660 -78.4433 -75.0849 -75.0673 -49.8021 -49.7966 -49.7965 -49.7802
   -49.7738 -49.7737 -46.4833 -46.4652 -46.4650 -46.4648 -46.4479 -46.4477
   -18.2451 -18.1593 -17.9262 -17.8411 -17.6687 -17.5988 -17.5531 -17.4882
   -17.4414 -17.3971 -17.3683 -17.3287 -10.3081  -9.9053  -9.7511  -9.7247
    -9.3816  -9.3507  -9.2605  -9.2413  -9.1120  -9.0453  -8.8551  -8.7073
    -8.6612  -8.5423  -8.4155  -8.3571  -8.2375  -8.1447  -8.0032  -7.9115
    -7.7712  -7.6850  -7.5937  -7.5299  -7.4794  -7.3758  -7.2476  -7.1398
    -7.0302  -6.9369  -6.8354  -6.7081  -6.6811  -6.6122  -6.5511  -6.4567
    -6.3193  -6.2443  -6.1975  -6.1148  -5.9317  -5.8478  -4.4809  -4.4322
    -4.3612  -4.1827  -2.6826  -2.6075  -2.5848  -2.5740  -2.4849  -2.3601
    -2.2974  -2.0726  -1.9988  -1.9774  -0.9138  -0.4067  -0.3411   0.1869
     0.3087   0.5003   0.6399   0.7121   0.8887   1.0040   1.1403   1.2053
     1.3186   1.3876   1.5027   1.5534

          k =-0.3333 0.3849 0.0000 (109606 PWs)   bands (ev):

   -78.4660 -78.4433 -75.0849 -75.0673 -49.8021 -49.7966 -49.7965 -49.7802
   -49.7738 -49.7737 -46.4833 -46.4652 -46.4650 -46.4648 -46.4479 -46.4477
   -18.2450 -18.1596 -17.9249 -17.8428 -17.6674 -17.5999 -17.5526 -17.4893
   -17.4396 -17.3991 -17.3667 -17.3293 -10.3079  -9.9092  -9.7578  -9.7086
    -9.3850  -9.3518  -9.2841  -9.2248  -9.1054  -9.0516  -8.8486  -8.7018
    -8.6577  -8.5369  -8.4320  -8.3556  -8.2625  -8.1336  -7.9708  -7.9046
    -7.8101  -7.6668  -7.6066  -7.5172  -7.4782  -7.3804  -7.2547  -7.1509
    -7.0046  -6.9451  -6.7872  -6.7543  -6.6848  -6.6480  -6.5213  -6.4387
    -6.3361  -6.2281  -6.1997  -6.1239  -5.9335  -5.8451  -4.4819  -4.4275
    -4.3643  -4.1832  -2.6834  -2.6103  -2.5861  -2.5686  -2.4870  -2.3588
    -2.2967  -2.0728  -1.9990  -1.9774  -0.9133  -0.4220  -0.3232   0.1801
     0.2925   0.5465   0.6560   0.6755   0.8956   0.9941   1.1404   1.2450
     1.2954   1.3630   1.4596   1.5475

          k = 0.5000 0.0962 0.0000 (109606 PWs)   bands (ev):

   -78.4660 -78.4433 -75.0849 -75.0673 -49.8021 -49.7966 -49.7965 -49.7802
   -49.7738 -49.7737 -46.4833 -46.4652 -46.4650 -46.4648 -46.4479 -46.4477
   -18.2450 -18.1596 -17.9249 -17.8428 -17.6674 -17.5999 -17.5526 -17.4893
   -17.4396 -17.3991 -17.3667 -17.3293 -10.3079  -9.9092  -9.7578  -9.7086
    -9.3849  -9.3518  -9.2840  -9.2248  -9.1054  -9.0516  -8.8486  -8.7018
    -8.6577  -8.5369  -8.4320  -8.3556  -8.2625  -8.1336  -7.9708  -7.9046
    -7.8101  -7.6667  -7.6066  -7.5172  -7.4782  -7.3803  -7.2547  -7.1509
    -7.0046  -6.9451  -6.7872  -6.7543  -6.6848  -6.6480  -6.5213  -6.4388
    -6.3361  -6.2281  -6.1997  -6.1239  -5.9335  -5.8451  -4.4819  -4.4275
    -4.3643  -4.1832  -2.6834  -2.6103  -2.5861  -2.5686  -2.4870  -2.3588
    -2.2967  -2.0728  -1.9990  -1.9774  -0.9133  -0.4220  -0.3232   0.1801
     0.2926   0.5465   0.6560   0.6755   0.8956   0.9941   1.1404   1.2450
     1.2955   1.3630   1.4596   1.5475

          k =-0.3333-0.3849 0.0000 (109606 PWs)   bands (ev):

   -78.4660 -78.4433 -75.0849 -75.0673 -49.8021 -49.7966 -49.7965 -49.7802
   -49.7738 -49.7737 -46.4833 -46.4652 -46.4650 -46.4648 -46.4479 -46.4477
   -18.2451 -18.1593 -17.9262 -17.8411 -17.6687 -17.5988 -17.5531 -17.4882
   -17.4414 -17.3971 -17.3683 -17.3287 -10.3081  -9.9053  -9.7511  -9.7247
    -9.3815  -9.3507  -9.2605  -9.2412  -9.1120  -9.0453  -8.8551  -8.7073
    -8.6612  -8.5423  -8.4155  -8.3571  -8.2375  -8.1447  -8.0032  -7.9115
    -7.7712  -7.6850  -7.5937  -7.5299  -7.4794  -7.3758  -7.2476  -7.1398
    -7.0302  -6.9369  -6.8353  -6.7081  -6.6811  -6.6122  -6.5511  -6.4567
    -6.3193  -6.2443  -6.1975  -6.1148  -5.9318  -5.8478  -4.4809  -4.4322
    -4.3612  -4.1827  -2.6826  -2.6076  -2.5848  -2.5740  -2.4849  -2.3601
    -2.2974  -2.0726  -1.9988  -1.9774  -0.9138  -0.4067  -0.3411   0.1869
     0.3088   0.5003   0.6399   0.7121   0.8887   1.0040   1.1403   1.2053
     1.3186   1.3876   1.5027   1.5534

          k = 0.5000-0.0962 0.0000 (109606 PWs)   bands (ev):

   -78.4660 -78.4433 -75.0849 -75.0673 -49.8021 -49.7966 -49.7965 -49.7802
   -49.7738 -49.7737 -46.4833 -46.4652 -46.4650 -46.4648 -46.4479 -46.4477
   -18.2451 -18.1593 -17.9262 -17.8411 -17.6687 -17.5988 -17.5531 -17.4882
   -17.4414 -17.3971 -17.3683 -17.3287 -10.3081  -9.9053  -9.7511  -9.7248
    -9.3815  -9.3507  -9.2605  -9.2413  -9.1120  -9.0453  -8.8551  -8.7073
    -8.6612  -8.5423  -8.4155  -8.3571  -8.2375  -8.1447  -8.0032  -7.9115
    -7.7712  -7.6850  -7.5937  -7.5299  -7.4794  -7.3758  -7.2476  -7.1398
    -7.0302  -6.9369  -6.8353  -6.7081  -6.6811  -6.6123  -6.5511  -6.4567
    -6.3193  -6.2443  -6.1975  -6.1148  -5.9318  -5.8478  -4.4809  -4.4322
    -4.3612  -4.1827  -2.6826  -2.6076  -2.5848  -2.5741  -2.4849  -2.3601
    -2.2974  -2.0726  -1.9988  -1.9774  -0.9138  -0.4067  -0.3411   0.1869
     0.3088   0.5003   0.6399   0.7121   0.8887   1.0040   1.1403   1.2052
     1.3186   1.3876   1.5027   1.5534

 ------ SPIN DOWN ----------


          k = 0.0000 0.0000 0.0000 (109591 PWs)   bands (ev):

   -78.4658 -78.4431 -75.0853 -75.0677 -49.8021 -49.7967 -49.7967 -49.7802
   -49.7738 -49.7738 -46.4833 -46.4651 -46.4649 -46.4649 -46.4476 -46.4476
   -18.6088 -18.5039 -17.8118 -17.6390 -17.5100 -17.5100 -17.4394 -17.4394
   -17.3250 -17.3250 -17.3172 -17.3172 -10.4359 -10.1334  -9.9559  -9.6165
    -9.6165  -9.5048  -9.5048  -9.3105  -8.9316  -8.9316  -8.7973  -8.7223
    -8.6801  -8.6801  -8.6115  -8.6115  -8.5182  -8.1188  -8.1188  -7.8741
    -7.8095  -7.6000  -7.6000  -7.4514  -7.4514  -7.3234  -7.2822  -7.2822
    -7.2530  -6.9825  -6.9109  -6.9109  -6.7617  -6.3503  -6.3503  -6.2042
    -6.2042  -6.1580  -5.8597  -5.8597  -5.6708  -5.6707  -4.5233  -4.5232
    -4.0558  -4.0558  -2.6614  -2.6614  -2.5480  -2.5480  -2.4157  -2.3805
    -2.0923  -2.0923  -2.0375  -2.0375  -0.8919  -0.4674  -0.2121   0.0470
     0.1349   0.2262   0.9444   1.0455   1.0455   1.1618   1.1618   1.3115
     1.7585   1.8732   1.8732   1.9543

          k = 0.0000 0.1925 0.0000 (109722 PWs)   bands (ev):

   -78.4659 -78.4431 -75.0852 -75.0676 -49.8021 -49.7967 -49.7967 -49.7802
   -49.7738 -49.7738 -46.4833 -46.4651 -46.4649 -46.4649 -46.4477 -46.4476
   -18.5495 -18.4455 -17.7740 -17.6128 -17.5957 -17.5438 -17.5176 -17.4603
   -17.3423 -17.3375 -17.3185 -17.3158 -10.4109 -10.0854  -9.9381  -9.6965
    -9.6675  -9.4339  -9.3650  -9.2988  -9.0125  -8.9535  -8.8037  -8.7590
    -8.7066  -8.6516  -8.6184  -8.3515  -8.2481  -8.1006  -7.9920  -7.9044
    -7.7707  -7.7128  -7.6146  -7.5954  -7.4467  -7.3286  -7.2974  -7.2096
    -7.0855  -6.9845  -6.8681  -6.8261  -6.7226  -6.4377  -6.4056  -6.2977
    -6.2446  -6.1966  -6.0804  -5.9506  -5.8576  -5.7110  -4.5190  -4.4951
    -4.2464  -4.1036  -2.6531  -2.6324  -2.5755  -2.5474  -2.3860  -2.3036
    -2.1610  -2.1017  -2.0862  -2.0849  -0.7947  -0.1699   0.0076   0.3157
     0.4037   0.5571   0.6575   0.7764   0.8765   1.0798   1.3869   1.5165
     1.6512   1.7381   1.8546   1.8933

          k = 0.0000 0.3849 0.0000 (109616 PWs)   bands (ev):

   -78.4660 -78.4432 -75.0850 -75.0674 -49.8021 -49.7966 -49.7966 -49.7802
   -49.7738 -49.7737 -46.4833 -46.4652 -46.4649 -46.4649 -46.4478 -46.4477
   -18.3854 -18.2881 -17.8060 -17.7159 -17.6729 -17.6027 -17.5382 -17.4960
   -17.4016 -17.3636 -17.3510 -17.3257 -10.4260  -9.9417  -9.8677  -9.6778
    -9.5360  -9.3813  -9.2940  -9.2236  -9.1240  -8.9210  -8.8677  -8.7131
    -8.6288  -8.5923  -8.4231  -8.3469  -8.1455  -8.0573  -8.0254  -7.9026
    -7.7353  -7.7023  -7.6761  -7.4233  -7.4031  -7.3455  -7.2432  -7.1523
    -7.0862  -7.0410  -6.9573  -6.7377  -6.7131  -6.6832  -6.4540  -6.3920
    -6.2918  -6.2594  -6.1993  -6.0811  -5.9687  -5.8025  -4.5019  -4.4372
    -4.3660  -4.2547  -2.6730  -2.6296  -2.6049  -2.5123  -2.4860  -2.2548
    -2.2501  -2.1242  -2.0803  -2.0223  -0.8332  -0.2404   0.0377   0.4550
     0.6112   0.7321   0.8469   0.9530   1.0472   1.0824   1.1722   1.2517
     1.3593   1.4966   1.5514   1.6550

          k = 0.0000-0.5774 0.0000 (109602 PWs)   bands (ev):

   -78.4660 -78.4433 -75.0849 -75.0673 -49.8021 -49.7966 -49.7965 -49.7802
   -49.7738 -49.7737 -46.4833 -46.4652 -46.4649 -46.4649 -46.4479 -46.4477
   -18.2166 -18.1565 -17.9757 -17.8839 -17.6296 -17.5798 -17.5149 -17.5011
   -17.4335 -17.4135 -17.3765 -17.3325 -10.4642  -9.8588  -9.7786  -9.6602
    -9.3867  -9.2862  -9.2338  -9.1732  -9.1356  -9.0064  -8.8639  -8.6240
    -8.5708  -8.5501  -8.5127  -8.4894  -8.2515  -8.1200  -8.0059  -7.8293
    -7.7900  -7.6619  -7.5652  -7.4474  -7.4137  -7.3647  -7.3409  -7.2195
    -7.1393  -6.8972  -6.8466  -6.7800  -6.6896  -6.6154  -6.4928  -6.4774
    -6.3846  -6.2697  -6.2220  -6.0205  -5.9053  -5.8916  -4.4700  -4.4415
    -4.3791  -4.2738  -2.7597  -2.6312  -2.6030  -2.5515  -2.4593  -2.3572
    -2.2365  -2.0523  -2.0513  -1.9900  -1.0490  -0.4666   0.1067   0.1363
     0.4251   0.7439   0.8790   0.9515   0.9803   1.1902   1.2446   1.3062
     1.3869   1.4637   1.5661   1.6172

          k = 0.1667 0.2887 0.0000 (109615 PWs)   bands (ev):

   -78.4660 -78.4432 -75.0851 -75.0675 -49.8021 -49.7967 -49.7966 -49.7802
   -49.7738 -49.7737 -46.4833 -46.4652 -46.4650 -46.4648 -46.4478 -46.4477
   -18.4371 -18.3364 -17.7247 -17.7060 -17.6519 -17.6004 -17.5590 -17.5088
   -17.3763 -17.3604 -17.3356 -17.3178 -10.3458 -10.0471  -9.8643  -9.7928
    -9.4904  -9.4201  -9.3180  -9.2321  -9.0690  -8.9870  -8.8850  -8.7641
    -8.6383  -8.5622  -8.4519  -8.2929  -8.1031  -8.0607  -7.9997  -7.9011
    -7.8175  -7.7763  -7.6575  -7.4985  -7.3687  -7.3243  -7.2355  -7.1664
    -7.0947  -6.9961  -6.8842  -6.8320  -6.7278  -6.5086  -6.4589  -6.4293
    -6.2844  -6.1989  -6.1938  -6.0936  -5.9621  -5.7719  -4.5074  -4.4509
    -4.4176  -4.1341  -2.6625  -2.5966  -2.5782  -2.5335  -2.4988  -2.2303
    -2.2142  -2.1740  -2.0630  -2.0423  -0.7255  -0.1617  -0.0694   0.3651
     0.5194   0.5840   0.7387   0.8374   1.0854   1.1606   1.3240   1.3847
     1.4758   1.5744   1.5858   1.6832

          k = 0.1667 0.4811 0.0000 (109606 PWs)   bands (ev):

   -78.4660 -78.4433 -75.0849 -75.0673 -49.8021 -49.7966 -49.7965 -49.7802
   -49.7738 -49.7737 -46.4833 -46.4652 -46.4650 -46.4648 -46.4479 -46.4477
   -18.2449 -18.1596 -17.9249 -17.8428 -17.6674 -17.5999 -17.5526 -17.4893
   -17.4396 -17.3991 -17.3667 -17.3293 -10.3079  -9.9092  -9.7578  -9.7086
    -9.3850  -9.3518  -9.2840  -9.2249  -9.1054  -9.0516  -8.8486  -8.7018
    -8.6577  -8.5369  -8.4320  -8.3556  -8.2626  -8.1336  -7.9708  -7.9046
    -7.8101  -7.6668  -7.6066  -7.5172  -7.4782  -7.3803  -7.2547  -7.1509
    -7.0046  -6.9451  -6.7872  -6.7543  -6.6848  -6.6480  -6.5213  -6.4388
    -6.3361  -6.2281  -6.1997  -6.1239  -5.9335  -5.8451  -4.4819  -4.4275
    -4.3643  -4.1832  -2.6834  -2.6103  -2.5861  -2.5686  -2.4870  -2.3588
    -2.2967  -2.0728  -1.9990  -1.9774  -0.9133  -0.4220  -0.3232   0.1801
     0.2925   0.5465   0.6560   0.6755   0.8956   0.9941   1.1404   1.2450
     1.2955   1.3630   1.4596   1.5475

          k = 0.3333 0.5774 0.0000 (109542 PWs)   bands (ev):

   -78.4661 -78.4433 -75.0849 -75.0673 -49.8021 -49.7966 -49.7965 -49.7802
   -49.7738 -49.7737 -46.4833 -46.4652 -46.4652 -46.4647 -46.4479 -46.4477
   -18.0739 -18.0646 -18.0030 -17.9815 -17.7229 -17.6126 -17.5144 -17.4960
   -17.4493 -17.4179 -17.3798 -17.3364  -9.9716  -9.9662  -9.9079  -9.4685
    -9.4662  -9.3621  -9.3557  -9.1891  -9.1889  -8.9719  -8.8682  -8.8098
    -8.7105  -8.6805  -8.2855  -8.2545  -8.2088  -8.1110  -8.0733  -8.0594
    -7.8885  -7.6891  -7.6733  -7.6077  -7.5490  -7.1472  -7.1425  -7.0952
    -6.9436  -6.9169  -6.8036  -6.7337  -6.6533  -6.6278  -6.5289  -6.5159
    -6.2591  -6.2252  -6.1935  -6.1895  -5.8805  -5.8582  -4.4919  -4.3721
    -4.3425  -4.0966  -2.6184  -2.6160  -2.5895  -2.5363  -2.5100  -2.4959
    -2.3006  -2.0303  -1.9511  -1.9493  -0.8436  -0.8178  -0.2547  -0.2372
     0.2136   0.3452   0.3567   0.5620   0.6082   0.6570   0.9486   0.9963
     1.1412   1.3534   1.3977   1.4224

          k =-0.1667 0.0962 0.0000 (109722 PWs)   bands (ev):

   -78.4659 -78.4431 -75.0852 -75.0676 -49.8021 -49.7967 -49.7967 -49.7802
   -49.7738 -49.7738 -46.4833 -46.4651 -46.4649 -46.4649 -46.4477 -46.4476
   -18.5495 -18.4455 -17.7740 -17.6128 -17.5957 -17.5438 -17.5176 -17.4603
   -17.3423 -17.3375 -17.3185 -17.3158 -10.4109 -10.0854  -9.9381  -9.6965
    -9.6675  -9.4339  -9.3650  -9.2988  -9.0125  -8.9535  -8.8037  -8.7590
    -8.7065  -8.6516  -8.6184  -8.3515  -8.2481  -8.1006  -7.9920  -7.9044
    -7.7707  -7.7128  -7.6146  -7.5954  -7.4467  -7.3286  -7.2974  -7.2096
    -7.0855  -6.9845  -6.8681  -6.8261  -6.7226  -6.4377  -6.4056  -6.2977
    -6.2446  -6.1966  -6.0804  -5.9506  -5.8576  -5.7110  -4.5190  -4.4951
    -4.2464  -4.1036  -2.6531  -2.6324  -2.5755  -2.5474  -2.3860  -2.3036
    -2.1610  -2.1017  -2.0862  -2.0849  -0.7947  -0.1699   0.0076   0.3157
     0.4037   0.5571   0.6575   0.7764   0.8765   1.0798   1.3869   1.5165
     1.6512   1.7381   1.8546   1.8933

          k = 0.1667 0.0962 0.0000 (109722 PWs)   bands (ev):

   -78.4659 -78.4431 -75.0852 -75.0676 -49.8021 -49.7967 -49.7967 -49.7802
   -49.7738 -49.7738 -46.4833 -46.4651 -46.4649 -46.4649 -46.4477 -46.4476
   -18.5495 -18.4455 -17.7740 -17.6128 -17.5957 -17.5438 -17.5176 -17.4603
   -17.3423 -17.3375 -17.3185 -17.3158 -10.4109 -10.0854  -9.9381  -9.6965
    -9.6675  -9.4339  -9.3650  -9.2988  -9.0125  -8.9535  -8.8037  -8.7590
    -8.7065  -8.6516  -8.6184  -8.3515  -8.2481  -8.1006  -7.9920  -7.9044
    -7.7707  -7.7128  -7.6146  -7.5954  -7.4467  -7.3286  -7.2974  -7.2096
    -7.0855  -6.9845  -6.8681  -6.8261  -6.7226  -6.4377  -6.4056  -6.2977
    -6.2446  -6.1966  -6.0804  -5.9506  -5.8576  -5.7110  -4.5190  -4.4951
    -4.2464  -4.1036  -2.6531  -2.6324  -2.5755  -2.5474  -2.3860  -2.3036
    -2.1610  -2.1017  -2.0862  -2.0849  -0.7947  -0.1699   0.0076   0.3157
     0.4037   0.5571   0.6575   0.7764   0.8765   1.0798   1.3869   1.5165
     1.6512   1.7381   1.8546   1.8933

          k =-0.3333 0.1925 0.0000 (109616 PWs)   bands (ev):

   -78.4660 -78.4432 -75.0850 -75.0674 -49.8021 -49.7966 -49.7966 -49.7802
   -49.7738 -49.7737 -46.4833 -46.4652 -46.4649 -46.4649 -46.4478 -46.4477
   -18.3854 -18.2881 -17.8060 -17.7159 -17.6729 -17.6027 -17.5382 -17.4960
   -17.4016 -17.3636 -17.3510 -17.3257 -10.4260  -9.9417  -9.8677  -9.6778
    -9.5360  -9.3813  -9.2940  -9.2236  -9.1240  -8.9210  -8.8677  -8.7131
    -8.6288  -8.5923  -8.4231  -8.3469  -8.1455  -8.0573  -8.0254  -7.9026
    -7.7353  -7.7023  -7.6762  -7.4233  -7.4032  -7.3455  -7.2432  -7.1523
    -7.0862  -7.0410  -6.9573  -6.7377  -6.7131  -6.6832  -6.4540  -6.3920
    -6.2918  -6.2594  -6.1993  -6.0811  -5.9687  -5.8025  -4.5019  -4.4372
    -4.3660  -4.2546  -2.6730  -2.6296  -2.6049  -2.5123  -2.4860  -2.2548
    -2.2501  -2.1242  -2.0803  -2.0223  -0.8332  -0.2404   0.0377   0.4550
     0.6112   0.7321   0.8469   0.9530   1.0472   1.0824   1.1722   1.2517
     1.3593   1.4966   1.5515   1.6550

          k = 0.3333 0.1925 0.0000 (109616 PWs)   bands (ev):

   -78.4660 -78.4432 -75.0850 -75.0674 -49.8021 -49.7966 -49.7966 -49.7802
   -49.7738 -49.7737 -46.4833 -46.4652 -46.4649 -46.4649 -46.4478 -46.4477
   -18.3854 -18.2881 -17.8060 -17.7159 -17.6729 -17.6027 -17.5382 -17.4960
   -17.4016 -17.3636 -17.3510 -17.3257 -10.4260  -9.9417  -9.8677  -9.6778
    -9.5360  -9.3813  -9.2940  -9.2236  -9.1241  -8.9210  -8.8677  -8.7131
    -8.6288  -8.5923  -8.4231  -8.3469  -8.1455  -8.0573  -8.0254  -7.9026
    -7.7353  -7.7023  -7.6762  -7.4233  -7.4032  -7.3455  -7.2432  -7.1523
    -7.0862  -7.0410  -6.9573  -6.7377  -6.7131  -6.6832  -6.4540  -6.3920
    -6.2918  -6.2594  -6.1993  -6.0811  -5.9687  -5.8025  -4.5019  -4.4372
    -4.3660  -4.2546  -2.6730  -2.6296  -2.6048  -2.5123  -2.4860  -2.2548
    -2.2501  -2.1242  -2.0803  -2.0223  -0.8332  -0.2404   0.0377   0.4550
     0.6112   0.7321   0.8469   0.9530   1.0472   1.0824   1.1722   1.2517
     1.3593   1.4966   1.5514   1.6550

          k = 0.5000-0.2887 0.0000 (109602 PWs)   bands (ev):

   -78.4660 -78.4433 -75.0849 -75.0673 -49.8021 -49.7966 -49.7965 -49.7802
   -49.7738 -49.7737 -46.4833 -46.4652 -46.4649 -46.4649 -46.4479 -46.4477
   -18.2167 -18.1565 -17.9757 -17.8839 -17.6296 -17.5798 -17.5149 -17.5011
   -17.4335 -17.4135 -17.3765 -17.3325 -10.4642  -9.8588  -9.7786  -9.6602
    -9.3867  -9.2862  -9.2338  -9.1732  -9.1356  -9.0064  -8.8639  -8.6240
    -8.5708  -8.5501  -8.5127  -8.4894  -8.2515  -8.1200  -8.0059  -7.8293
    -7.7900  -7.6620  -7.5652  -7.4475  -7.4137  -7.3647  -7.3410  -7.2195
    -7.1393  -6.8971  -6.8467  -6.7800  -6.6896  -6.6154  -6.4928  -6.4774
    -6.3846  -6.2697  -6.2220  -6.0205  -5.9052  -5.8916  -4.4699  -4.4415
    -4.3791  -4.2738  -2.7597  -2.6312  -2.6030  -2.5515  -2.4593  -2.3572
    -2.2365  -2.0523  -2.0513  -1.9900  -1.0490  -0.4666   0.1067   0.1363
     0.4250   0.7439   0.8790   0.9516   0.9803   1.1902   1.2446   1.3062
     1.3869   1.4637   1.5661   1.6172

          k =-0.5000-0.2887 0.0000 (109602 PWs)   bands (ev):

   -78.4660 -78.4433 -75.0849 -75.0673 -49.8021 -49.7966 -49.7965 -49.7802
   -49.7738 -49.7737 -46.4833 -46.4652 -46.4649 -46.4649 -46.4479 -46.4477
   -18.2167 -18.1565 -17.9756 -17.8840 -17.6296 -17.5798 -17.5149 -17.5011
   -17.4335 -17.4135 -17.3765 -17.3325 -10.4642  -9.8588  -9.7786  -9.6602
    -9.3867  -9.2862  -9.2338  -9.1733  -9.1356  -9.0064  -8.8639  -8.6240
    -8.5708  -8.5501  -8.5127  -8.4894  -8.2515  -8.1200  -8.0059  -7.8292
    -7.7900  -7.6620  -7.5652  -7.4475  -7.4137  -7.3647  -7.3410  -7.2195
    -7.1393  -6.8971  -6.8467  -6.7800  -6.6896  -6.6154  -6.4928  -6.4774
    -6.3846  -6.2697  -6.2220  -6.0205  -5.9052  -5.8916  -4.4700  -4.4415
    -4.3791  -4.2738  -2.7596  -2.6312  -2.6029  -2.5515  -2.4593  -2.3572
    -2.2365  -2.0523  -2.0513  -1.9900  -1.0490  -0.4666   0.1067   0.1363
     0.4251   0.7438   0.8790   0.9516   0.9803   1.1902   1.2446   1.3062
     1.3869   1.4637   1.5661   1.6173

          k =-0.1667 0.2887 0.0000 (109615 PWs)   bands (ev):

   -78.4660 -78.4432 -75.0851 -75.0675 -49.8021 -49.7966 -49.7966 -49.7802
   -49.7738 -49.7738 -46.4833 -46.4652 -46.4650 -46.4648 -46.4478 -46.4477
   -18.4371 -18.3364 -17.7247 -17.7060 -17.6519 -17.6004 -17.5590 -17.5088
   -17.3764 -17.3604 -17.3356 -17.3178 -10.3458 -10.0471  -9.8643  -9.7928
    -9.4904  -9.4201  -9.3180  -9.2321  -9.0690  -8.9870  -8.8850  -8.7641
    -8.6383  -8.5622  -8.4519  -8.2929  -8.1031  -8.0607  -7.9997  -7.9011
    -7.8175  -7.7763  -7.6575  -7.4985  -7.3687  -7.3243  -7.2355  -7.1664
    -7.0947  -6.9961  -6.8842  -6.8320  -6.7277  -6.5086  -6.4590  -6.4293
    -6.2844  -6.1989  -6.1938  -6.0936  -5.9621  -5.7719  -4.5074  -4.4509
    -4.4176  -4.1341  -2.6626  -2.5966  -2.5782  -2.5335  -2.4988  -2.2303
    -2.2142  -2.1739  -2.0631  -2.0423  -0.7255  -0.1617  -0.0693   0.3651
     0.5194   0.5840   0.7387   0.8374   1.0854   1.1606   1.3240   1.3847
     1.4758   1.5744   1.5858   1.6832

          k = 0.3333 0.0000 0.0000 (109615 PWs)   bands (ev):

   -78.4660 -78.4432 -75.0851 -75.0675 -49.8021 -49.7966 -49.7966 -49.7802
   -49.7738 -49.7737 -46.4833 -46.4652 -46.4650 -46.4648 -46.4478 -46.4477
   -18.4371 -18.3364 -17.7247 -17.7060 -17.6519 -17.6004 -17.5590 -17.5088
   -17.3763 -17.3604 -17.3356 -17.3178 -10.3458 -10.0471  -9.8643  -9.7928
    -9.4904  -9.4201  -9.3180  -9.2321  -9.0690  -8.9870  -8.8850  -8.7641
    -8.6383  -8.5622  -8.4519  -8.2929  -8.1031  -8.0607  -7.9997  -7.9011
    -7.8175  -7.7763  -7.6575  -7.4985  -7.3687  -7.3243  -7.2355  -7.1664
    -7.0947  -6.9961  -6.8842  -6.8320  -6.7277  -6.5086  -6.4589  -6.4293
    -6.2844  -6.1989  -6.1938  -6.0936  -5.9621  -5.7719  -4.5074  -4.4509
    -4.4176  -4.1341  -2.6625  -2.5966  -2.5782  -2.5335  -2.4988  -2.2303
    -2.2142  -2.1740  -2.0630  -2.0423  -0.7255  -0.1617  -0.0694   0.3651
     0.5194   0.5840   0.7387   0.8374   1.0854   1.1606   1.3240   1.3847
     1.4758   1.5744   1.5858   1.6832

          k =-0.1667 0.4811 0.0000 (109606 PWs)   bands (ev):

   -78.4660 -78.4433 -75.0849 -75.0673 -49.8021 -49.7966 -49.7965 -49.7802
   -49.7738 -49.7737 -46.4833 -46.4652 -46.4650 -46.4648 -46.4479 -46.4477
   -18.2451 -18.1593 -17.9262 -17.8411 -17.6687 -17.5988 -17.5531 -17.4882
   -17.4414 -17.3971 -17.3683 -17.3287 -10.3081  -9.9053  -9.7511  -9.7247
    -9.3815  -9.3507  -9.2605  -9.2413  -9.1120  -9.0453  -8.8551  -8.7073
    -8.6612  -8.5423  -8.4155  -8.3571  -8.2375  -8.1447  -8.0032  -7.9115
    -7.7712  -7.6850  -7.5937  -7.5299  -7.4794  -7.3758  -7.2476  -7.1398
    -7.0302  -6.9369  -6.8353  -6.7081  -6.6811  -6.6122  -6.5511  -6.4567
    -6.3193  -6.2443  -6.1975  -6.1148  -5.9318  -5.8478  -4.4809  -4.4322
    -4.3612  -4.1827  -2.6826  -2.6076  -2.5848  -2.5741  -2.4848  -2.3601
    -2.2974  -2.0726  -1.9988  -1.9774  -0.9138  -0.4067  -0.3411   0.1870
     0.3087   0.5003   0.6399   0.7121   0.8887   1.0040   1.1403   1.2052
     1.3186   1.3876   1.5027   1.5534

          k =-0.3333 0.3849 0.0000 (109606 PWs)   bands (ev):

   -78.4660 -78.4433 -75.0849 -75.0673 -49.8021 -49.7966 -49.7965 -49.7802
   -49.7738 -49.7737 -46.4833 -46.4652 -46.4650 -46.4648 -46.4479 -46.4477
   -18.2449 -18.1596 -17.9249 -17.8428 -17.6674 -17.5999 -17.5526 -17.4893
   -17.4396 -17.3991 -17.3667 -17.3293 -10.3079  -9.9091  -9.7578  -9.7086
    -9.3850  -9.3518  -9.2841  -9.2248  -9.1054  -9.0516  -8.8486  -8.7018
    -8.6577  -8.5369  -8.4320  -8.3557  -8.2625  -8.1336  -7.9708  -7.9046
    -7.8101  -7.6668  -7.6066  -7.5172  -7.4782  -7.3803  -7.2547  -7.1509
    -7.0046  -6.9451  -6.7872  -6.7543  -6.6848  -6.6480  -6.5213  -6.4388
    -6.3361  -6.2281  -6.1997  -6.1239  -5.9335  -5.8451  -4.4819  -4.4275
    -4.3643  -4.1832  -2.6834  -2.6103  -2.5861  -2.5686  -2.4870  -2.3588
    -2.2967  -2.0728  -1.9990  -1.9774  -0.9133  -0.4221  -0.3232   0.1801
     0.2925   0.5465   0.6560   0.6755   0.8956   0.9941   1.1404   1.2450
     1.2954   1.3630   1.4596   1.5475

          k = 0.5000 0.0962 0.0000 (109606 PWs)   bands (ev):

   -78.4660 -78.4433 -75.0849 -75.0673 -49.8021 -49.7966 -49.7965 -49.7802
   -49.7738 -49.7737 -46.4833 -46.4652 -46.4650 -46.4648 -46.4479 -46.4477
   -18.2450 -18.1596 -17.9249 -17.8428 -17.6674 -17.5999 -17.5526 -17.4893
   -17.4396 -17.3991 -17.3667 -17.3293 -10.3079  -9.9091  -9.7578  -9.7086
    -9.3850  -9.3518  -9.2841  -9.2248  -9.1054  -9.0516  -8.8486  -8.7018
    -8.6577  -8.5369  -8.4320  -8.3556  -8.2625  -8.1336  -7.9708  -7.9046
    -7.8101  -7.6668  -7.6066  -7.5172  -7.4782  -7.3804  -7.2547  -7.1509
    -7.0046  -6.9451  -6.7872  -6.7543  -6.6848  -6.6480  -6.5213  -6.4388
    -6.3361  -6.2281  -6.1997  -6.1239  -5.9335  -5.8451  -4.4819  -4.4275
    -4.3643  -4.1832  -2.6834  -2.6103  -2.5860  -2.5686  -2.4870  -2.3588
    -2.2967  -2.0728  -1.9990  -1.9774  -0.9133  -0.4221  -0.3232   0.1801
     0.2925   0.5465   0.6560   0.6755   0.8956   0.9941   1.1404   1.2450
     1.2954   1.3630   1.4596   1.5475

          k =-0.3333-0.3849 0.0000 (109606 PWs)   bands (ev):

   -78.4660 -78.4433 -75.0849 -75.0673 -49.8021 -49.7966 -49.7965 -49.7802
   -49.7738 -49.7737 -46.4833 -46.4652 -46.4650 -46.4648 -46.4479 -46.4477
   -18.2451 -18.1593 -17.9262 -17.8411 -17.6687 -17.5988 -17.5531 -17.4882
   -17.4414 -17.3971 -17.3683 -17.3287 -10.3081  -9.9053  -9.7511  -9.7247
    -9.3815  -9.3507  -9.2605  -9.2413  -9.1120  -9.0453  -8.8551  -8.7073
    -8.6612  -8.5423  -8.4155  -8.3571  -8.2375  -8.1447  -8.0032  -7.9115
    -7.7712  -7.6850  -7.5937  -7.5299  -7.4794  -7.3758  -7.2476  -7.1398
    -7.0302  -6.9369  -6.8354  -6.7081  -6.6811  -6.6122  -6.5511  -6.4567
    -6.3193  -6.2443  -6.1975  -6.1148  -5.9318  -5.8478  -4.4809  -4.4322
    -4.3612  -4.1827  -2.6825  -2.6075  -2.5848  -2.5741  -2.4849  -2.3601
    -2.2974  -2.0726  -1.9988  -1.9774  -0.9138  -0.4067  -0.3411   0.1870
     0.3087   0.5003   0.6399   0.7121   0.8887   1.0040   1.1403   1.2052
     1.3186   1.3876   1.5027   1.5534

          k = 0.5000-0.0962 0.0000 (109606 PWs)   bands (ev):

   -78.4660 -78.4433 -75.0849 -75.0673 -49.8021 -49.7966 -49.7965 -49.7802
   -49.7738 -49.7737 -46.4833 -46.4652 -46.4650 -46.4648 -46.4479 -46.4477
   -18.2451 -18.1593 -17.9262 -17.8411 -17.6687 -17.5988 -17.5531 -17.4882
   -17.4414 -17.3971 -17.3683 -17.3287 -10.3081  -9.9053  -9.7511  -9.7247
    -9.3815  -9.3507  -9.2605  -9.2413  -9.1120  -9.0453  -8.8551  -8.7073
    -8.6612  -8.5423  -8.4155  -8.3571  -8.2375  -8.1447  -8.0032  -7.9115
    -7.7712  -7.6850  -7.5937  -7.5299  -7.4794  -7.3758  -7.2476  -7.1398
    -7.0302  -6.9369  -6.8354  -6.7081  -6.6811  -6.6122  -6.5511  -6.4567
    -6.3193  -6.2443  -6.1975  -6.1148  -5.9317  -5.8478  -4.4809  -4.4322
    -4.3612  -4.1827  -2.6826  -2.6075  -2.5848  -2.5740  -2.4849  -2.3601
    -2.2974  -2.0726  -1.9988  -1.9774  -0.9138  -0.4067  -0.3411   0.1870
     0.3088   0.5003   0.6399   0.7121   0.8887   1.0040   1.1403   1.2052
     1.3186   1.3876   1.5027   1.5534

     highest occupied, lowest unoccupied level (ev):    -5.6707   -4.5233

!    total energy              =   -5539.70251511 Ry
     total all-electron energy =     -5539.702515 Ry
     estimated scf accuracy    <          7.6E-12 Ry

     The total energy is the sum of the following terms:
     one-electron contribution =   -9587.49776221 Ry
     hartree contribution      =    4767.62516671 Ry
     xc contribution           =    -165.75883150 Ry
     ewald contribution        =    3989.39166454 Ry
     Hubbard energy            =       0.51318506 Ry
     one-center paw contrib.   =   -4543.97593770 Ry

     total magnetization       =     0.00 Bohr mag/cell
     absolute magnetization    =    16.70 Bohr mag/cell

     convergence has been achieved in  24 iterations

     negative rho (up, down):  3.135E-02 3.135E-02

     Forces acting on atoms (cartesian axes, Ry/au):

     atom    1 type  1   force =    -0.00000180    0.00000028   -0.00064644
     atom    2 type  1   force =     0.00000468    0.00000074   -0.00002190
     atom    3 type  2   force =     0.01331852    0.00002285   -0.01942929
     atom    4 type  2   force =    -0.00663862   -0.01154514   -0.01942917
     atom    5 type  2   force =    -0.00667893    0.01152171   -0.01942746
     atom    6 type  2   force =    -0.01312331    0.00002020    0.02196396
     atom    7 type  2   force =     0.00658197    0.01135327    0.02196252
     atom    8 type  2   force =     0.00654217   -0.01137574    0.02196382
     atom    9 type  3   force =    -0.00000418    0.00000384    0.00002406
     atom   10 type  3   force =     0.00000268   -0.00000444    0.00064989
     atom   11 type  2   force =     0.01312321   -0.00002552   -0.02196431
     atom   12 type  2   force =    -0.00658414   -0.01135213   -0.02196438
     atom   13 type  2   force =    -0.00653947    0.01137834   -0.02196345
     atom   14 type  2   force =    -0.01331856   -0.00002700    0.01942782
     atom   15 type  2   force =     0.00663391    0.01154762    0.01942701
     atom   16 type  2   force =     0.00668186   -0.01151887    0.01942731

     Total force =     0.085191     Total SCF correction =     0.000004


     Computing stress (Cartesian axis) and pressure


     negative rho (up, down):  3.135E-02 3.135E-02
          total   stress  (Ry/bohr**3)                   (kbar)     P=       19.21
   0.00012994  -0.00000000  -0.00000000           19.11       -0.00       -0.00
  -0.00000000   0.00012994  -0.00000000           -0.00       19.12       -0.00
  -0.00000000  -0.00000000   0.00013184           -0.00       -0.00       19.39


     Writing all to output data dir ./lt_fm_afm_qe/lt_fm_afm_qe.save/ :
     XML data file, charge density, pseudopotentials, collected wavefunctions

     init_run     :     44.09s CPU     45.00s WALL (       1 calls)
     electrons    :   2452.14s CPU   2625.16s WALL (       1 calls)
     forces       :     34.18s CPU     34.81s WALL (       1 calls)
     stress       :    355.00s CPU    361.23s WALL (       1 calls)

     Called by init_run:
     wfcinit      :     41.15s CPU     41.88s WALL (       1 calls)
     potinit      :      1.11s CPU      1.16s WALL (       1 calls)
     hinit0       :      0.98s CPU      1.00s WALL (       1 calls)

     Called by electrons:
     c_bands      :   2063.69s CPU   2209.35s WALL (      24 calls)
     sum_band     :    323.00s CPU    341.26s WALL (      24 calls)
     v_of_rho     :      8.22s CPU      8.31s WALL (      25 calls)
     newd         :     25.28s CPU     33.63s WALL (      25 calls)
     PAW_pot      :     27.50s CPU     27.66s WALL (      25 calls)
     mix_rho      :      4.87s CPU      5.06s WALL (      24 calls)

     Called by c_bands:
     init_us_2    :     24.14s CPU     24.55s WALL (    2160 calls)
     init_us_2:cp :     24.12s CPU     24.54s WALL (    2160 calls)
     cegterg      :   2012.75s CPU   2157.37s WALL (     960 calls)

     Called by *egterg:
     cdiaghg      :    148.02s CPU    149.22s WALL (    4031 calls)
     h_psi        :   1211.30s CPU   1257.39s WALL (    4071 calls)
     s_psi        :     55.92s CPU     56.70s WALL (    4191 calls)
     g_psi        :     15.50s CPU     15.69s WALL (    3071 calls)

     Called by h_psi:
     h_psi:calbec :     69.81s CPU     71.24s WALL (    4071 calls)
     vloc_psi     :    836.62s CPU    850.79s WALL (    4071 calls)
     add_vuspsi   :     58.87s CPU     59.67s WALL (    4071 calls)
     vhpsi        :    226.00s CPU    229.29s WALL (    4071 calls)

     General routines
     calbec       :    208.32s CPU    211.54s WALL (   41542 calls)
     fft          :      6.89s CPU      6.99s WALL (     663 calls)
     ffts         :      0.55s CPU      0.57s WALL (      98 calls)
     fftw         :    794.25s CPU    808.06s WALL (  591078 calls)
     interpolate  :      0.76s CPU      0.77s WALL (      50 calls)

     Parallel routines

     Hubbard U routines
     new_ns       :     14.33s CPU     14.86s WALL (      24 calls)
     vhpsi        :    226.00s CPU    229.29s WALL (    4071 calls)
     force_hub    :     25.20s CPU     25.44s WALL (       1 calls)
                                        0.00s GPU  (       1 calls)
     stres_hub    :    102.62s CPU    103.62s WALL (       1 calls)
                                        0.00s GPU  (       1 calls)

     PWSCF        :  48m11.02s CPU  52m17.29s WALL


   This run was terminated on:  17:43:26  15Oct2025            

=------------------------------------------------------------------------------=
   JOB DONE.
=------------------------------------------------------------------------------=
