
     Program PWSCF v.7.3 starts on 15Oct2025 at 17:13:35 

     This program is part of the open-source Quantum ESPRESSO suite
     for quantum simulation of materials; please cite
         "P. Giannozzi et al., J. Phys.:Condens. Matter 21 395502 (2009);
         "P. Giannozzi et al., J. Phys.:Condens. Matter 29 465901 (2017);
         "P. Giannozzi et al., J. Chem. Phys. 152 154105 (2020);
          URL http://www.quantum-espresso.org", 
     in publications or presentations arising from this work. More details at
     http://www.quantum-espresso.org/quote

     Parallel version (MPI), running on    24 processors

     MPI processes distributed on     1 nodes
     37779 MiB available memory on the printing compute node when the environment starts

     Reading input from lt_fm_fm_qe.scf.in
Warning: card &CELL ignored
Warning: card / ignored

     Current dimensions of program PWSCF are:
     Max number of different atomic species (ntypx) = 10
     Max number of k-points (npk) =  40000
     Max angular momentum in pseudopotentials (lmaxx) =  4
read_pp_mesh; mismatch in mesh size, discarding the one in header
read_pp_mesh; mismatch in mesh size, discarding the one in header
     file Cr.GGA-PBE-paw.UPF: wavefunction(s)  3S 4S 3P 4P 3D 4D renormalized
     file I.GGA-PBE-paw.UPF: wavefunction(s)  6S 6P renormalized

     IMPORTANT: XC functional enforced from input :
     Exchange-correlation= PBE
                           (   1   4   3   4   0   0   0)
     Any further DFT definition will be discarded
     Please, verify this is what you really want

     Message from routine find_sym:
     Not a group! Trying with lower acceptance parameter...
     Message from routine find_sym:
     Symmetry operations form a group

     R & G space division:  proc/nbgrp/npool/nimage =      24
     Subspace diagonalization in iterative solution of the eigenvalue problem:
     a serial algorithm will be used


     Parallelization info
     --------------------
     sticks:   dense  smooth     PW     G-vecs:    dense   smooth      PW
     Min         179     174     46                38065    36532    5046
     Max         180     175     47                38082    36557    5059
     Sum        4303    4189   1123               913669   876961  121297

     Using Slab Decomposition



     bravais-lattice index     =            0
     lattice parameter (alat)  =      12.9956  a.u.
     unit-cell volume          =    7602.9282 (a.u.)^3
     number of atoms/cell      =           16
     number of atomic types    =            2
     number of electrons       =       140.00 (up:  76.00, down:  64.00)
     number of Kohn-Sham states=          100
     kinetic-energy cutoff     =      90.0000  Ry
     charge density cutoff     =     370.0000  Ry
     scf convergence threshold =      1.0E-11
     mixing beta               =       0.5000
     number of iterations used =            8  plain     mixing
     Exchange-correlation= PBE
                           (   1   4   3   4   0   0   0)
     Hubbard projectors: atomic
     Hubbard parameters of DFT+U (Dudarev formulation) in eV:
     U(Cr-3d) =  2.7300
     J0(Cr-3d) =  0.4800

     Internal variables: lda_plus_u =T, lda_plus_u_kind = 0

     celldm(1)=  12.995613  celldm(2)=   0.000000  celldm(3)=   0.000000
     celldm(4)=   0.000000  celldm(5)=   0.000000  celldm(6)=   0.000000

     crystal axes: (cart. coord. in units of alat)
               a(1) = (   1.000000  -0.000000   0.000000 )  
               a(2) = (  -0.500000   0.866025   0.000000 )  
               a(3) = (  -0.000000   0.000000   4.000000 )  

     reciprocal axes: (cart. coord. in units 2 pi/alat)
               b(1) = (  1.000000  0.577350  0.000000 )  
               b(2) = (  0.000000  1.154701  0.000000 )  
               b(3) = ( -0.000000 -0.000000  0.250000 )  


     PseudoPot. # 1 for Cr read from file:
     ../../Cr.GGA-PBE-paw.UPF
     MD5 check sum: 0e9dc003703e132720ff5dfacba66d28
     Pseudo is Projector augmented-wave + core cor, Zval = 14.0
     Generated using ATOMPAW code
     Shape of augmentation charge: SINC**2
     Using radial grid of 2342 points,  6 beta functions with: 
                l(1) =   0
                l(2) =   0
                l(3) =   1
                l(4) =   1
                l(5) =   2
                l(6) =   2
     Q(r) pseudized with 0 coefficients 


     PseudoPot. # 2 for I  read from file:
     ../../I.GGA-PBE-paw.UPF
     MD5 check sum: 736bb4145856fa7ed29d0984862794a4
     Pseudo is Projector augmented-wave + core cor, Zval =  7.0
     Generated using ATOMPAW code
     Shape of augmentation charge: SINC**2
     Using radial grid of 2342 points,  4 beta functions with: 
                l(1) =   0
                l(2) =   0
                l(3) =   1
                l(4) =   1
     Q(r) pseudized with 0 coefficients 


     atomic species   valence    mass     pseudopotential
     Cr               14.00    51.99610     Cr( 1.00)
     I                 7.00   126.90447     I ( 1.00)

     Starting magnetic structure 
     atomic species   magnetization
     Cr              0.214
     I               0.000

     No symmetry found



   Cartesian axes

     site n.     atom                  positions (alat units)
         1        Cr     tau(   1) = (   0.3333302   0.5773476   2.4771345  )
         2        Cr     tau(   2) = (  -0.1666653   0.8660272   2.4783670  )
         3        I      tau(   3) = (   0.4785934   0.2878151   2.2541471  )
         4        I      tau(   4) = (   0.0099554   0.5963201   2.2541472  )
         5        I      tau(   5) = (  -0.4885529   0.8479194   2.2541494  )
         6        I      tau(   6) = (   0.1887678   0.2890994   2.7012541  )
         7        I      tau(   7) = (   0.1559814   0.8466725   2.7012541  )
         8        I      tau(   8) = (  -0.3447532   0.5962818   2.7012518  )
         9        Cr     tau(   9) = (   0.8333317   0.2886782   1.5216322  )
        10        Cr     tau(  10) = (   0.3333282   0.5773496   1.5228650  )
        11        I      tau(  11) = (   0.9778967  -0.0004210   1.2987495  )
        12        I      tau(  12) = (   0.5106847   0.3080297   1.2987460  )
        13        I      tau(  13) = (   0.0114148   0.5584203   1.2987445  )
        14        I      tau(  14) = (   0.6880724   0.0008651   1.7458527  )
        15        I      tau(  15) = (   0.6567094   0.5583828   1.7458520  )
        16        I      tau(  16) = (   0.1552143   0.3067811   1.7458532  )

     number of k points=    20
                       cart. coord. in units 2pi/alat
        k(    1) = (   0.0000000   0.0000000   0.0000000), wk =   0.0277778
        k(    2) = (   0.0000000   0.1924501   0.0000000), wk =   0.0555556
        k(    3) = (   0.0000000   0.3849002   0.0000000), wk =   0.0555556
        k(    4) = (   0.0000000  -0.5773503   0.0000000), wk =   0.0277778
        k(    5) = (   0.1666667   0.2886751   0.0000000), wk =   0.0555556
        k(    6) = (   0.1666667   0.4811252   0.0000000), wk =   0.0555556
        k(    7) = (   0.3333333   0.5773503   0.0000000), wk =   0.0555556
        k(    8) = (  -0.1666667   0.0962250   0.0000000), wk =   0.0555556
        k(    9) = (   0.1666667   0.0962250   0.0000000), wk =   0.0555556
        k(   10) = (  -0.3333333   0.1924501   0.0000000), wk =   0.0555556
        k(   11) = (   0.3333333   0.1924501   0.0000000), wk =   0.0555556
        k(   12) = (   0.5000000  -0.2886751   0.0000000), wk =   0.0277778
        k(   13) = (  -0.5000000  -0.2886751   0.0000000), wk =   0.0277778
        k(   14) = (  -0.1666667   0.2886751   0.0000000), wk =   0.0555556
        k(   15) = (   0.3333333   0.0000000   0.0000000), wk =   0.0555556
        k(   16) = (  -0.3333333   0.3849002   0.0000000), wk =   0.0555556
        k(   17) = (  -0.1666667   0.4811252   0.0000000), wk =   0.0555556
        k(   18) = (   0.5000000   0.0962250   0.0000000), wk =   0.0555556
        k(   19) = (  -0.3333333  -0.3849002   0.0000000), wk =   0.0555556
        k(   20) = (   0.5000000  -0.0962250   0.0000000), wk =   0.0555556

     Dense  grid:   913669 G-vectors     FFT dimensions: (  80,  80, 320)

     Smooth grid:   876961 G-vectors     FFT dimensions: (  80,  80, 320)

     Estimated max dynamical RAM per process >     592.63 MB

     Estimated total dynamical RAM >      13.89 GB
 ----2D----2D----2D----2D----2D----2D----2D----2D----2D----2D----2D----2D
  The code is running with the 2D cutoff
  Please refer to:
  Sohier, T., Calandra, M., & Mauri, F. (2017), 
  Density functional perturbation theory for gated two-dimensional heterostructures:
  Theoretical developments and application to flexural phonons in graphene.
  Physical Review B, 96(7), 75448. https://doi.org/10.1103/PhysRevB.96.075448
 ----2D----2D----2D----2D----2D----2D----2D----2D----2D----2D----2D----2D
     Generating pointlists ...
     new r_m :   0.1620 (alat units)  2.1047 (a.u.) for type    1
     new r_m :   0.1620 (alat units)  2.1047 (a.u.) for type    2
     Cannot read rho : file not found

     Initial potential from superposition of free atoms

     starting charge     139.9932, renormalised to     140.0000

     negative rho (up, down):  2.605E-02 2.652E-02

     STARTING HUBBARD OCCUPATIONS:

     =================== HUBBARD OCCUPATIONS ===================
     ------------------------ ATOM    1 ------------------------
     Tr[ns(  1)] (up, down, total) =   5.00000  0.00000  5.00000
     Atomic magnetic moment for atom   1 =   5.00000
     SPIN  1
     eigenvalues:
       1.000  1.000  1.000  1.000  1.000
     eigenvectors (columns):
       1.000  0.000  0.000  0.000  0.000
       0.000  1.000  0.000  0.000  0.000
       0.000  0.000  1.000  0.000  0.000
       0.000  0.000  0.000  1.000  0.000
       0.000  0.000  0.000  0.000  1.000
     occupation matrix ns (before diag.):
       1.000  0.000  0.000  0.000  0.000
       0.000  1.000  0.000  0.000  0.000
       0.000  0.000  1.000  0.000  0.000
       0.000  0.000  0.000  1.000  0.000
       0.000  0.000  0.000  0.000  1.000
     SPIN  2
     eigenvalues:
       0.000  0.000  0.000  0.000  0.000
     eigenvectors (columns):
       1.000  0.000  0.000  0.000  0.000
       0.000  1.000  0.000  0.000  0.000
       0.000  0.000  1.000  0.000  0.000
       0.000  0.000  0.000  1.000  0.000
       0.000  0.000  0.000  0.000  1.000
     occupation matrix ns (before diag.):
       0.000  0.000  0.000  0.000  0.000
       0.000  0.000  0.000  0.000  0.000
       0.000  0.000  0.000  0.000  0.000
       0.000  0.000  0.000  0.000  0.000
       0.000  0.000  0.000  0.000  0.000
     ------------------------ ATOM    2 ------------------------
     Tr[ns(  2)] (up, down, total) =   5.00000  0.00000  5.00000
     Atomic magnetic moment for atom   2 =   5.00000
     SPIN  1
     eigenvalues:
       1.000  1.000  1.000  1.000  1.000
     eigenvectors (columns):
       1.000  0.000  0.000  0.000  0.000
       0.000  1.000  0.000  0.000  0.000
       0.000  0.000  1.000  0.000  0.000
       0.000  0.000  0.000  1.000  0.000
       0.000  0.000  0.000  0.000  1.000
     occupation matrix ns (before diag.):
       1.000  0.000  0.000  0.000  0.000
       0.000  1.000  0.000  0.000  0.000
       0.000  0.000  1.000  0.000  0.000
       0.000  0.000  0.000  1.000  0.000
       0.000  0.000  0.000  0.000  1.000
     SPIN  2
     eigenvalues:
       0.000  0.000  0.000  0.000  0.000
     eigenvectors (columns):
       1.000  0.000  0.000  0.000  0.000
       0.000  1.000  0.000  0.000  0.000
       0.000  0.000  1.000  0.000  0.000
       0.000  0.000  0.000  1.000  0.000
       0.000  0.000  0.000  0.000  1.000
     occupation matrix ns (before diag.):
       0.000  0.000  0.000  0.000  0.000
       0.000  0.000  0.000  0.000  0.000
       0.000  0.000  0.000  0.000  0.000
       0.000  0.000  0.000  0.000  0.000
       0.000  0.000  0.000  0.000  0.000
     ------------------------ ATOM    9 ------------------------
     Tr[ns(  9)] (up, down, total) =   5.00000  0.00000  5.00000
     Atomic magnetic moment for atom   9 =   5.00000
     SPIN  1
     eigenvalues:
       1.000  1.000  1.000  1.000  1.000
     eigenvectors (columns):
       1.000  0.000  0.000  0.000  0.000
       0.000  1.000  0.000  0.000  0.000
       0.000  0.000  1.000  0.000  0.000
       0.000  0.000  0.000  1.000  0.000
       0.000  0.000  0.000  0.000  1.000
     occupation matrix ns (before diag.):
       1.000  0.000  0.000  0.000  0.000
       0.000  1.000  0.000  0.000  0.000
       0.000  0.000  1.000  0.000  0.000
       0.000  0.000  0.000  1.000  0.000
       0.000  0.000  0.000  0.000  1.000
     SPIN  2
     eigenvalues:
       0.000  0.000  0.000  0.000  0.000
     eigenvectors (columns):
       1.000  0.000  0.000  0.000  0.000
       0.000  1.000  0.000  0.000  0.000
       0.000  0.000  1.000  0.000  0.000
       0.000  0.000  0.000  1.000  0.000
       0.000  0.000  0.000  0.000  1.000
     occupation matrix ns (before diag.):
       0.000  0.000  0.000  0.000  0.000
       0.000  0.000  0.000  0.000  0.000
       0.000  0.000  0.000  0.000  0.000
       0.000  0.000  0.000  0.000  0.000
       0.000  0.000  0.000  0.000  0.000
     ------------------------ ATOM   10 ------------------------
     Tr[ns( 10)] (up, down, total) =   5.00000  0.00000  5.00000
     Atomic magnetic moment for atom  10 =   5.00000
     SPIN  1
     eigenvalues:
       1.000  1.000  1.000  1.000  1.000
     eigenvectors (columns):
       1.000  0.000  0.000  0.000  0.000
       0.000  1.000  0.000  0.000  0.000
       0.000  0.000  1.000  0.000  0.000
       0.000  0.000  0.000  1.000  0.000
       0.000  0.000  0.000  0.000  1.000
     occupation matrix ns (before diag.):
       1.000  0.000  0.000  0.000  0.000
       0.000  1.000  0.000  0.000  0.000
       0.000  0.000  1.000  0.000  0.000
       0.000  0.000  0.000  1.000  0.000
       0.000  0.000  0.000  0.000  1.000
     SPIN  2
     eigenvalues:
       0.000  0.000  0.000  0.000  0.000
     eigenvectors (columns):
       1.000  0.000  0.000  0.000  0.000
       0.000  1.000  0.000  0.000  0.000
       0.000  0.000  1.000  0.000  0.000
       0.000  0.000  0.000  1.000  0.000
       0.000  0.000  0.000  0.000  1.000
     occupation matrix ns (before diag.):
       0.000  0.000  0.000  0.000  0.000
       0.000  0.000  0.000  0.000  0.000
       0.000  0.000  0.000  0.000  0.000
       0.000  0.000  0.000  0.000  0.000
       0.000  0.000  0.000  0.000  0.000

     Number of occupied Hubbard levels =   20.0000

     Atomic wfc used for Hubbard projectors are NOT orthogonalized

     Starting wfcs are  168 atomic wfcs
     Checking if some PAW data can be deallocated... 

     total cpu time spent up to now is       44.3 secs

     Self-consistent Calculation

     iteration #  1     ecut=    90.00 Ry     beta= 0.50
     Davidson diagonalization with overlap
     ethr =  1.00E-05,  avg # of iterations =  9.3

     =================== HUBBARD OCCUPATIONS ===================
     ------------------------ ATOM    1 ------------------------
     Tr[ns(  1)] (up, down, total) =   3.97051  0.72772  4.69823
     Atomic magnetic moment for atom   1 =   3.24279
     SPIN  1
     eigenvalues:
       0.527  0.527  0.971  0.973  0.973
     eigenvectors (columns):
       0.000 -0.000 -1.000 -0.000  0.000
       0.824 -0.105 -0.000  0.281 -0.480
       0.105  0.824  0.000 -0.480 -0.281
      -0.552  0.071 -0.000  0.420 -0.717
       0.071  0.552 -0.000  0.717  0.420
     occupation matrix ns (before diag.):
       0.971 -0.000  0.000  0.000  0.000
      -0.000  0.665  0.000  0.206 -0.000
       0.000  0.000  0.665 -0.000 -0.206
       0.000  0.206 -0.000  0.835 -0.000
       0.000 -0.000 -0.206 -0.000  0.835
     SPIN  2
     eigenvalues:
       0.084  0.089  0.089  0.233  0.233
     eigenvectors (columns):
       1.000 -0.000 -0.000  0.000 -0.000
       0.000  0.583  0.045  0.809 -0.050
      -0.000  0.045 -0.583  0.050  0.810
       0.000  0.809  0.062 -0.584  0.036
       0.000 -0.062  0.809  0.036  0.584
     occupation matrix ns (before diag.):
       0.084  0.000 -0.000 -0.000 -0.000
       0.000  0.184 -0.000 -0.069  0.000
      -0.000 -0.000  0.184  0.000  0.069
      -0.000 -0.069  0.000  0.138 -0.000
      -0.000  0.000  0.069 -0.000  0.138
     ------------------------ ATOM    2 ------------------------
     Tr[ns(  2)] (up, down, total) =   3.97579  0.73149  4.70729
     Atomic magnetic moment for atom   2 =   3.24430
     SPIN  1
     eigenvalues:
       0.530  0.530  0.971  0.973  0.973
     eigenvectors (columns):
      -0.000 -0.000 -1.000 -0.000 -0.000
      -0.828  0.060 -0.000  0.190  0.525
       0.060  0.828  0.000 -0.525  0.190
       0.556 -0.038 -0.000  0.285  0.779
       0.038  0.556 -0.000  0.779 -0.285
     occupation matrix ns (before diag.):
       0.971 -0.000  0.000  0.000  0.000
      -0.000  0.668  0.000  0.205 -0.001
       0.000  0.000  0.668 -0.001 -0.205
       0.000  0.205 -0.001  0.835  0.000
       0.000 -0.001 -0.205  0.000  0.835
     SPIN  2
     eigenvalues:
       0.084  0.089  0.089  0.234  0.234
     eigenvectors (columns):
       1.000  0.000  0.000  0.000 -0.000
      -0.000  0.315 -0.493  0.804 -0.105
      -0.000  0.493  0.315  0.105  0.804
      -0.000  0.434 -0.686 -0.580  0.078
       0.000 -0.686 -0.434  0.078  0.580
     occupation matrix ns (before diag.):
       0.084  0.000 -0.000 -0.000 -0.000
       0.000  0.185 -0.000 -0.069  0.000
      -0.000 -0.000  0.185  0.000  0.069
      -0.000 -0.069  0.000  0.139 -0.000
      -0.000  0.000  0.069 -0.000  0.139
     ------------------------ ATOM    9 ------------------------
     Tr[ns(  9)] (up, down, total) =   3.97580  0.73151  4.70731
     Atomic magnetic moment for atom   9 =   3.24429
     SPIN  1
     eigenvalues:
       0.530  0.530  0.971  0.973  0.973
     eigenvectors (columns):
      -0.000 -0.000 -1.000 -0.000 -0.000
      -0.586  0.587  0.000 -0.525  0.188
      -0.587 -0.586  0.000 -0.188 -0.525
       0.393 -0.396  0.000 -0.781  0.282
      -0.396 -0.393 -0.000  0.282  0.781
     occupation matrix ns (before diag.):
       0.971  0.000 -0.000 -0.000 -0.000
       0.000  0.668 -0.000  0.205 -0.001
      -0.000 -0.000  0.668 -0.001 -0.205
      -0.000  0.205 -0.001  0.835  0.000
      -0.000 -0.001 -0.205  0.000  0.835
     SPIN  2
     eigenvalues:
       0.084  0.089  0.089  0.234  0.234
     eigenvectors (columns):
       1.000 -0.000 -0.000  0.000  0.000
      -0.000  0.342 -0.474  0.672 -0.454
       0.000  0.474  0.342  0.454  0.672
      -0.000  0.472 -0.660 -0.483  0.329
      -0.000 -0.660 -0.472  0.329  0.483
     occupation matrix ns (before diag.):
       0.084 -0.000  0.000  0.000  0.000
      -0.000  0.185 -0.000 -0.069  0.000
       0.000 -0.000  0.185  0.000  0.069
       0.000 -0.069  0.000  0.139  0.000
       0.000  0.000  0.069  0.000  0.139
     ------------------------ ATOM   10 ------------------------
     Tr[ns( 10)] (up, down, total) =   3.97050  0.72770  4.69821
     Atomic magnetic moment for atom  10 =   3.24280
     SPIN  1
     eigenvalues:
       0.527  0.527  0.971  0.973  0.973
     eigenvectors (columns):
       0.000 -0.000  1.000  0.000  0.000
      -0.663  0.501  0.000 -0.541  0.132
       0.501  0.663  0.000 -0.132 -0.541
       0.444 -0.335  0.000 -0.807  0.198
       0.335  0.444 -0.000  0.198  0.807
     occupation matrix ns (before diag.):
       0.971  0.000 -0.000 -0.000  0.000
       0.000  0.665  0.000  0.206 -0.000
      -0.000  0.000  0.665 -0.000 -0.206
      -0.000  0.206 -0.000  0.835  0.000
       0.000 -0.000 -0.206  0.000  0.835
     SPIN  2
     eigenvalues:
       0.084  0.089  0.089  0.233  0.233
     eigenvectors (columns):
       1.000 -0.000  0.000 -0.000 -0.000
      -0.000 -0.357  0.463 -0.662  0.468
      -0.000  0.463  0.357  0.468  0.662
      -0.000 -0.495  0.642  0.478 -0.337
       0.000 -0.642 -0.495  0.337  0.478
     occupation matrix ns (before diag.):
       0.084 -0.000 -0.000  0.000 -0.000
      -0.000  0.184  0.000 -0.069  0.000
      -0.000  0.000  0.184  0.000  0.069
       0.000 -0.069  0.000  0.138 -0.000
      -0.000  0.000  0.069 -0.000  0.138

     Number of occupied Hubbard levels =   18.8110

     negative rho (up, down):  3.025E-02 3.276E-02

     total cpu time spent up to now is      292.1 secs

     total energy              =   -5537.86037111 Ry
     estimated scf accuracy    <       3.17752899 Ry

     total magnetization       =    12.00 Bohr mag/cell
     absolute magnetization    =    14.65 Bohr mag/cell

     iteration #  2     ecut=    90.00 Ry     beta= 0.50
     Davidson diagonalization with overlap
     ethr =  2.27E-03,  avg # of iterations =  4.5

     negative rho (up, down):  2.886E-02 2.959E-02

     total cpu time spent up to now is      396.3 secs

     total energy              =   -5532.46855640 Ry
     estimated scf accuracy    <      65.48757694 Ry

     total magnetization       =    12.00 Bohr mag/cell
     absolute magnetization    =    12.07 Bohr mag/cell

     iteration #  3     ecut=    90.00 Ry     beta= 0.50
     Davidson diagonalization with overlap
     ethr =  2.27E-03,  avg # of iterations =  2.9

     negative rho (up, down):  2.977E-02 3.183E-02

     total cpu time spent up to now is      478.5 secs

     total energy              =   -5539.62539358 Ry
     estimated scf accuracy    <       0.90760808 Ry

     total magnetization       =    12.00 Bohr mag/cell
     absolute magnetization    =    15.29 Bohr mag/cell

     iteration #  4     ecut=    90.00 Ry     beta= 0.50
     Davidson diagonalization with overlap
     ethr =  6.48E-04,  avg # of iterations =  1.6

     negative rho (up, down):  2.966E-02 3.315E-02

     total cpu time spent up to now is      539.9 secs

     total energy              =   -5539.66522276 Ry
     estimated scf accuracy    <       0.17130362 Ry

     total magnetization       =    12.00 Bohr mag/cell
     absolute magnetization    =    15.62 Bohr mag/cell

     iteration #  5     ecut=    90.00 Ry     beta= 0.50
     Davidson diagonalization with overlap
     ethr =  1.22E-04,  avg # of iterations =  3.1

     negative rho (up, down):  2.940E-02 3.352E-02

     total cpu time spent up to now is      610.6 secs

     total energy              =   -5539.68434563 Ry
     estimated scf accuracy    <       0.04014190 Ry

     total magnetization       =    12.00 Bohr mag/cell
     absolute magnetization    =    15.97 Bohr mag/cell

     iteration #  6     ecut=    90.00 Ry     beta= 0.50
     Davidson diagonalization with overlap
     ethr =  2.87E-05,  avg # of iterations =  6.2

     negative rho (up, down):  2.754E-02 3.492E-02

     total cpu time spent up to now is      690.4 secs

     total energy              =   -5539.69892558 Ry
     estimated scf accuracy    <       0.01323138 Ry

     total magnetization       =    12.00 Bohr mag/cell
     absolute magnetization    =    16.09 Bohr mag/cell

     iteration #  7     ecut=    90.00 Ry     beta= 0.50
     Davidson diagonalization with overlap
     ethr =  9.45E-06,  avg # of iterations =  7.5

     negative rho (up, down):  2.729E-02 3.524E-02

     total cpu time spent up to now is      795.2 secs

     total energy              =   -5539.70174603 Ry
     estimated scf accuracy    <       0.01166960 Ry

     total magnetization       =    12.00 Bohr mag/cell
     absolute magnetization    =    16.64 Bohr mag/cell

     iteration #  8     ecut=    90.00 Ry     beta= 0.50
     Davidson diagonalization with overlap
     ethr =  8.34E-06,  avg # of iterations =  6.7

     negative rho (up, down):  2.737E-02 3.532E-02

     total cpu time spent up to now is      879.3 secs

     total energy              =   -5539.70314501 Ry
     estimated scf accuracy    <       0.00192578 Ry

     total magnetization       =    12.00 Bohr mag/cell
     absolute magnetization    =    16.72 Bohr mag/cell

     iteration #  9     ecut=    90.00 Ry     beta= 0.50
     Davidson diagonalization with overlap
     ethr =  1.38E-06,  avg # of iterations =  6.0

     negative rho (up, down):  2.735E-02 3.537E-02

     total cpu time spent up to now is      960.8 secs

     total energy              =   -5539.70342992 Ry
     estimated scf accuracy    <       0.00023930 Ry

     total magnetization       =    12.00 Bohr mag/cell
     absolute magnetization    =    16.68 Bohr mag/cell

     iteration # 10     ecut=    90.00 Ry     beta= 0.50
     Davidson diagonalization with overlap
     ethr =  1.71E-07,  avg # of iterations =  5.1

     negative rho (up, down):  2.728E-02 3.544E-02

     total cpu time spent up to now is     1045.7 secs

     total energy              =   -5539.70348695 Ry
     estimated scf accuracy    <       0.00024613 Ry

     total magnetization       =    12.00 Bohr mag/cell
     absolute magnetization    =    16.67 Bohr mag/cell

     iteration # 11     ecut=    90.00 Ry     beta= 0.50
     Davidson diagonalization with overlap
     ethr =  1.71E-07,  avg # of iterations =  3.1

     negative rho (up, down):  2.715E-02 3.552E-02

     total cpu time spent up to now is     1113.2 secs

     total energy              =   -5539.70354592 Ry
     estimated scf accuracy    <       0.00002415 Ry

     total magnetization       =    12.00 Bohr mag/cell
     absolute magnetization    =    16.68 Bohr mag/cell

     iteration # 12     ecut=    90.00 Ry     beta= 0.50
     Davidson diagonalization with overlap
     ethr =  1.72E-08,  avg # of iterations =  3.9

     negative rho (up, down):  2.709E-02 3.555E-02

     total cpu time spent up to now is     1199.9 secs

     total energy              =   -5539.70355999 Ry
     estimated scf accuracy    <       0.00001258 Ry

     total magnetization       =    12.00 Bohr mag/cell
     absolute magnetization    =    16.70 Bohr mag/cell

     iteration # 13     ecut=    90.00 Ry     beta= 0.50
     Davidson diagonalization with overlap
     ethr =  8.99E-09,  avg # of iterations =  2.0

     negative rho (up, down):  2.707E-02 3.556E-02

     total cpu time spent up to now is     1264.2 secs

     total energy              =   -5539.70356420 Ry
     estimated scf accuracy    <       0.00000967 Ry

     total magnetization       =    12.00 Bohr mag/cell
     absolute magnetization    =    16.71 Bohr mag/cell

     iteration # 14     ecut=    90.00 Ry     beta= 0.50
     Davidson diagonalization with overlap
     ethr =  6.90E-09,  avg # of iterations =  1.1

     negative rho (up, down):  2.697E-02 3.563E-02

     total cpu time spent up to now is     1324.3 secs

     total energy              =   -5539.70356914 Ry
     estimated scf accuracy    <       0.00000258 Ry

     total magnetization       =    12.00 Bohr mag/cell
     absolute magnetization    =    16.72 Bohr mag/cell

     iteration # 15     ecut=    90.00 Ry     beta= 0.50
     Davidson diagonalization with overlap
     ethr =  1.84E-09,  avg # of iterations =  2.5

     negative rho (up, down):  2.693E-02 3.566E-02

     total cpu time spent up to now is     1401.6 secs

     total energy              =   -5539.70357245 Ry
     estimated scf accuracy    <       0.00000238 Ry

     total magnetization       =    12.00 Bohr mag/cell
     absolute magnetization    =    16.74 Bohr mag/cell

     iteration # 16     ecut=    90.00 Ry     beta= 0.50
     Davidson diagonalization with overlap
     ethr =  1.70E-09,  avg # of iterations =  2.0

     negative rho (up, down):  2.692E-02 3.567E-02

     total cpu time spent up to now is     1467.5 secs

     total energy              =   -5539.70357339 Ry
     estimated scf accuracy    <       0.00000149 Ry

     total magnetization       =    12.00 Bohr mag/cell
     absolute magnetization    =    16.75 Bohr mag/cell

     iteration # 17     ecut=    90.00 Ry     beta= 0.50
     Davidson diagonalization with overlap
     ethr =  1.07E-09,  avg # of iterations =  1.6

     negative rho (up, down):  2.694E-02 3.566E-02

     total cpu time spent up to now is     1530.1 secs

     total energy              =   -5539.70357370 Ry
     estimated scf accuracy    <       0.00000050 Ry

     total magnetization       =    12.00 Bohr mag/cell
     absolute magnetization    =    16.75 Bohr mag/cell

     iteration # 18     ecut=    90.00 Ry     beta= 0.50
     Davidson diagonalization with overlap
     ethr =  3.56E-10,  avg # of iterations =  2.3

     negative rho (up, down):  2.693E-02 3.566E-02

     total cpu time spent up to now is     1598.0 secs

     total energy              =   -5539.70357374 Ry
     estimated scf accuracy    <       0.00000043 Ry

     total magnetization       =    12.00 Bohr mag/cell
     absolute magnetization    =    16.75 Bohr mag/cell

     iteration # 19     ecut=    90.00 Ry     beta= 0.50
     Davidson diagonalization with overlap
     ethr =  3.07E-10,  avg # of iterations =  2.0

     negative rho (up, down):  2.694E-02 3.566E-02

     total cpu time spent up to now is     1662.3 secs

     total energy              =   -5539.70357383 Ry
     estimated scf accuracy    <       0.00000006 Ry

     total magnetization       =    12.00 Bohr mag/cell
     absolute magnetization    =    16.76 Bohr mag/cell

     iteration # 20     ecut=    90.00 Ry     beta= 0.50
     Davidson diagonalization with overlap
     ethr =  3.99E-11,  avg # of iterations =  3.3

     negative rho (up, down):  2.694E-02 3.567E-02

     total cpu time spent up to now is     1735.0 secs

     total energy              =   -5539.70357385 Ry
     estimated scf accuracy    <          3.7E-09 Ry

     total magnetization       =    12.00 Bohr mag/cell
     absolute magnetization    =    16.76 Bohr mag/cell

     iteration # 21     ecut=    90.00 Ry     beta= 0.50
     Davidson diagonalization with overlap
     ethr =  2.65E-12,  avg # of iterations =  4.4

     negative rho (up, down):  2.694E-02 3.566E-02

     total cpu time spent up to now is     1833.2 secs

     total energy              =   -5539.70357385 Ry
     estimated scf accuracy    <          2.6E-09 Ry

     total magnetization       =    12.00 Bohr mag/cell
     absolute magnetization    =    16.76 Bohr mag/cell

     iteration # 22     ecut=    90.00 Ry     beta= 0.50
     Davidson diagonalization with overlap
     ethr =  1.86E-12,  avg # of iterations =  2.0

     negative rho (up, down):  2.694E-02 3.567E-02

     total cpu time spent up to now is     1902.0 secs

     total energy              =   -5539.70357385 Ry
     estimated scf accuracy    <          1.8E-09 Ry

     total magnetization       =    12.00 Bohr mag/cell
     absolute magnetization    =    16.76 Bohr mag/cell

     iteration # 23     ecut=    90.00 Ry     beta= 0.50
     Davidson diagonalization with overlap
     ethr =  1.27E-12,  avg # of iterations =  2.0

     negative rho (up, down):  2.694E-02 3.567E-02

     total cpu time spent up to now is     1966.2 secs

     total energy              =   -5539.70357385 Ry
     estimated scf accuracy    <          4.3E-10 Ry

     total magnetization       =    12.00 Bohr mag/cell
     absolute magnetization    =    16.76 Bohr mag/cell

     iteration # 24     ecut=    90.00 Ry     beta= 0.50
     Davidson diagonalization with overlap
     ethr =  3.08E-13,  avg # of iterations =  1.8

     negative rho (up, down):  2.694E-02 3.567E-02

     total cpu time spent up to now is     2028.5 secs

     total energy              =   -5539.70357385 Ry
     estimated scf accuracy    <          2.9E-11 Ry

     total magnetization       =    12.00 Bohr mag/cell
     absolute magnetization    =    16.76 Bohr mag/cell

     iteration # 25     ecut=    90.00 Ry     beta= 0.50
     Davidson diagonalization with overlap
     ethr =  1.00E-13,  avg # of iterations =  2.1

     negative rho (up, down):  2.694E-02 3.567E-02

     Magnetic moment per site  (integrated on atomic sphere of radius R)
     atom   1 (R=0.162)  charge= 12.3972  magn=  3.2506
     atom   2 (R=0.162)  charge= 12.4017  magn=  3.2507
     atom   3 (R=0.162)  charge=  4.0458  magn= -0.1295
     atom   4 (R=0.162)  charge=  4.0458  magn= -0.1295
     atom   5 (R=0.162)  charge=  4.0458  magn= -0.1295
     atom   6 (R=0.162)  charge=  4.0479  magn= -0.1263
     atom   7 (R=0.162)  charge=  4.0479  magn= -0.1263
     atom   8 (R=0.162)  charge=  4.0478  magn= -0.1263
     atom   9 (R=0.162)  charge= 12.4017  magn=  3.2507
     atom  10 (R=0.162)  charge= 12.3972  magn=  3.2506
     atom  11 (R=0.162)  charge=  4.0479  magn= -0.1263
     atom  12 (R=0.162)  charge=  4.0479  magn= -0.1263
     atom  13 (R=0.162)  charge=  4.0479  magn= -0.1263
     atom  14 (R=0.162)  charge=  4.0458  magn= -0.1295
     atom  15 (R=0.162)  charge=  4.0457  magn= -0.1295
     atom  16 (R=0.162)  charge=  4.0457  magn= -0.1295

     total cpu time spent up to now is     2091.8 secs

     End of self-consistent calculation

     =================== HUBBARD OCCUPATIONS ===================
     ------------------------ ATOM    1 ------------------------
     Tr[ns(  1)] (up, down, total) =   4.39516  1.07541  5.47056
     Atomic magnetic moment for atom   1 =   3.31975
     SPIN  1
     eigenvalues:
       0.707  0.707  0.994  0.994  0.994
     eigenvectors (columns):
       0.000 -0.000  1.000  0.000 -0.000
       0.425 -0.703  0.000 -0.312  0.477
      -0.703 -0.425 -0.000  0.477  0.312
      -0.296  0.487  0.000 -0.453  0.686
      -0.487 -0.296  0.000 -0.686 -0.453
     occupation matrix ns (before diag.):
       0.994 -0.000  0.000  0.000  0.000
      -0.000  0.800  0.000  0.134 -0.000
       0.000  0.000  0.800 -0.000 -0.134
       0.000  0.134 -0.000  0.901  0.000
       0.000 -0.000 -0.134  0.000  0.901
     SPIN  2
     eigenvalues:
       0.100  0.108  0.108  0.380  0.380
     eigenvectors (columns):
      -1.000 -0.000  0.000  0.000 -0.000
      -0.000  0.575 -0.031  0.817 -0.034
       0.000  0.031  0.575  0.034  0.817
      -0.000  0.816 -0.045 -0.576  0.025
      -0.000 -0.045 -0.816  0.025  0.576
     occupation matrix ns (before diag.):
       0.100  0.000 -0.000 -0.000 -0.000
       0.000  0.289 -0.000 -0.128  0.000
      -0.000 -0.000  0.289  0.000  0.128
      -0.000 -0.128  0.000  0.198 -0.000
      -0.000  0.000  0.128 -0.000  0.198
     ------------------------ ATOM    2 ------------------------
     Tr[ns(  2)] (up, down, total) =   4.39659  1.07785  5.47445
     Atomic magnetic moment for atom   2 =   3.31874
     SPIN  1
     eigenvalues:
       0.708  0.708  0.993  0.994  0.994
     eigenvectors (columns):
       0.000 -0.000 -1.000 -0.000 -0.000
       0.236 -0.786 -0.000  0.164  0.547
      -0.786 -0.236  0.000 -0.547  0.164
      -0.165  0.547 -0.000  0.237  0.786
      -0.547 -0.165 -0.000  0.786 -0.237
     occupation matrix ns (before diag.):
       0.993 -0.000  0.000  0.000  0.000
      -0.000  0.801  0.000  0.134 -0.000
       0.000  0.000  0.801 -0.000 -0.134
       0.000  0.134 -0.000  0.900  0.000
       0.000 -0.000 -0.134  0.000  0.900
     SPIN  2
     eigenvalues:
       0.101  0.108  0.108  0.381  0.381
     eigenvectors (columns):
       1.000 -0.000 -0.000 -0.000 -0.000
      -0.000 -0.300  0.493  0.717 -0.391
      -0.000 -0.493 -0.300  0.391  0.717
      -0.000 -0.423  0.699 -0.506  0.278
       0.000  0.699  0.423  0.278  0.506
     occupation matrix ns (before diag.):
       0.101  0.000 -0.000 -0.000 -0.000
       0.000  0.290 -0.000 -0.129  0.000
      -0.000 -0.000  0.290  0.000  0.129
      -0.000 -0.129  0.000  0.199 -0.000
      -0.000  0.000  0.129 -0.000  0.199
     ------------------------ ATOM    9 ------------------------
     Tr[ns(  9)] (up, down, total) =   4.39659  1.07788  5.47447
     Atomic magnetic moment for atom   9 =   3.31871
     SPIN  1
     eigenvalues:
       0.708  0.708  0.993  0.994  0.994
     eigenvectors (columns):
       0.000  0.000 -1.000 -0.000 -0.000
       0.710 -0.412 -0.000 -0.528  0.218
       0.412  0.710  0.000 -0.218 -0.528
      -0.494  0.288 -0.000 -0.758  0.315
       0.288  0.494 -0.000  0.315  0.758
     occupation matrix ns (before diag.):
       0.993  0.000 -0.000 -0.000 -0.000
       0.000  0.801 -0.000  0.134 -0.000
      -0.000 -0.000  0.801 -0.000 -0.134
      -0.000  0.134 -0.000  0.900  0.000
      -0.000 -0.000 -0.134  0.000  0.900
     SPIN  2
     eigenvalues:
       0.101  0.108  0.108  0.381  0.381
     eigenvectors (columns):
       1.000  0.000 -0.000  0.000  0.000
      -0.000  0.336 -0.469  0.647 -0.499
       0.000  0.469  0.336  0.499  0.647
      -0.000  0.474 -0.665 -0.456  0.353
      -0.000 -0.665 -0.474  0.353  0.456
     occupation matrix ns (before diag.):
       0.101 -0.000  0.000  0.000  0.000
      -0.000  0.290 -0.000 -0.129  0.000
       0.000 -0.000  0.290  0.000  0.129
       0.000 -0.129  0.000  0.199  0.000
       0.000  0.000  0.129  0.000  0.199
     ------------------------ ATOM   10 ------------------------
     Tr[ns( 10)] (up, down, total) =   4.39516  1.07538  5.47054
     Atomic magnetic moment for atom  10 =   3.31978
     SPIN  1
     eigenvalues:
       0.707  0.707  0.994  0.994  0.994
     eigenvectors (columns):
       0.000 -0.000  1.000  0.000  0.000
      -0.816  0.100  0.000 -0.565  0.074
       0.100  0.816  0.000 -0.074 -0.565
       0.566 -0.067  0.000 -0.814  0.110
       0.067  0.566 -0.000  0.110  0.814
     occupation matrix ns (before diag.):
       0.994  0.000  0.000 -0.000  0.000
       0.000  0.800  0.000  0.134 -0.000
       0.000  0.000  0.800 -0.000 -0.134
      -0.000  0.134 -0.000  0.901 -0.000
       0.000 -0.000 -0.134 -0.000  0.901
     SPIN  2
     eigenvalues:
       0.100  0.108  0.108  0.380  0.380
     eigenvectors (columns):
       1.000 -0.000  0.000  0.000 -0.000
      -0.000 -0.353  0.455 -0.639  0.509
       0.000  0.455  0.353  0.509  0.639
      -0.000 -0.502  0.645  0.451 -0.358
      -0.000 -0.645 -0.502  0.358  0.451
     occupation matrix ns (before diag.):
       0.100 -0.000 -0.000  0.000 -0.000
      -0.000  0.289  0.000 -0.128  0.000
      -0.000  0.000  0.289  0.000  0.128
       0.000 -0.128  0.000  0.198 -0.000
      -0.000  0.000  0.128 -0.000  0.198

     Number of occupied Hubbard levels =   21.8900

 ------ SPIN UP ------------


          k = 0.0000 0.0000 0.0000 (109591 PWs)   bands (ev):

   -78.4669 -78.4669 -78.4418 -78.4418 -49.8032 -49.8032 -49.7979 -49.7979
   -49.7979 -49.7979 -49.7784 -49.7784 -49.7733 -49.7733 -49.7733 -49.7733
   -18.5742 -18.4874 -17.7285 -17.6058 -17.4496 -17.4496 -17.4363 -17.4363
   -17.3272 -17.3272 -17.3196 -17.3196 -10.4626 -10.4124 -10.2715  -9.8793
    -9.6443  -9.6443  -9.6309  -9.6309  -9.5012  -9.5012  -9.4487  -9.4487
    -8.8058  -8.7382  -8.6792  -8.6792  -8.6456  -8.6456  -8.5251  -8.5193
    -8.1530  -8.1530  -8.1184  -8.1184  -7.8094  -7.8092  -7.4983  -7.4983
    -7.4856  -7.4856  -7.2993  -7.2722  -7.0090  -6.9794  -6.9794  -6.8935
    -6.8935  -6.7800  -6.7416  -6.3246  -6.3246  -6.1851  -6.1851  -6.0781
    -5.7128  -5.7128  -5.6470  -5.6470  -4.5945  -4.5945  -4.4551  -4.4551
    -4.0593  -4.0593  -4.0436  -4.0436  -1.0591  -0.6709  -0.5666  -0.1765
    -0.0217  -0.0159   0.8535   0.9542   0.9542   0.9983   0.9983   1.1996
     1.6979   1.6979   1.7460   1.8088

          k = 0.0000 0.1925 0.0000 (109722 PWs)   bands (ev):

   -78.4669 -78.4669 -78.4419 -78.4419 -49.8032 -49.8032 -49.7979 -49.7978
   -49.7978 -49.7978 -49.7784 -49.7784 -49.7733 -49.7733 -49.7732 -49.7732
   -18.5134 -18.4287 -17.6987 -17.5808 -17.5384 -17.5082 -17.4795 -17.4513
   -17.3445 -17.3419 -17.3244 -17.3195 -10.4270 -10.4016 -10.2125  -9.8703
    -9.7348  -9.7156  -9.6513  -9.6113  -9.4828  -9.3803  -9.3471  -9.3027
    -8.8133  -8.7678  -8.7384  -8.6889  -8.6710  -8.6303  -8.3557  -8.3504
    -8.1530  -8.1098  -8.0153  -7.9707  -7.9056  -7.8992  -7.7478  -7.7098
    -7.4719  -7.4605  -7.2414  -7.1068  -7.0647  -6.9608  -6.9508  -6.9052
    -6.8112  -6.7605  -6.6575  -6.3457  -6.2779  -6.2376  -6.1894  -6.1054
    -5.9309  -5.7942  -5.7360  -5.6960  -4.5934  -4.5582  -4.4547  -4.4407
    -4.2545  -4.2246  -4.1025  -4.0918  -0.9317  -0.6173  -0.2315   0.1031
     0.2395   0.4079   0.5476   0.6764   0.7272   0.9702   1.3008   1.3999
     1.5413   1.5903   1.7234   1.7992

          k = 0.0000 0.3849 0.0000 (109616 PWs)   bands (ev):

   -78.4670 -78.4670 -78.4420 -78.4420 -49.8032 -49.8032 -49.7978 -49.7978
   -49.7978 -49.7978 -49.7784 -49.7784 -49.7733 -49.7732 -49.7732 -49.7732
   -18.3475 -18.2717 -17.7474 -17.6993 -17.6170 -17.5233 -17.5132 -17.4818
   -17.4005 -17.3718 -17.3503 -17.3414 -10.4493 -10.4096 -10.0309  -9.8140
    -9.7196  -9.6181  -9.5513  -9.4808  -9.4215  -9.2684  -9.2027  -9.1780
    -8.9278  -8.8613  -8.7222  -8.6919  -8.6720  -8.6014  -8.4126  -8.3855
    -8.0923  -8.0575  -8.0407  -8.0267  -7.9072  -7.9026  -7.7445  -7.6319
    -7.4243  -7.4116  -7.2962  -7.2574  -7.2189  -7.0540  -6.8476  -6.7654
    -6.7082  -6.7036  -6.4256  -6.3472  -6.3171  -6.2858  -6.2342  -6.2175
    -6.1854  -5.8708  -5.8262  -5.7842  -4.5836  -4.4994  -4.4449  -4.4094
    -4.3859  -4.3153  -4.2408  -4.2285  -0.8843  -0.8041  -0.0214   0.0807
     0.3705   0.5442   0.7798   0.8358   0.9115   0.9949   1.0605   1.1619
     1.1789   1.3542   1.4174   1.5321

          k = 0.0000-0.5774 0.0000 (109602 PWs)   bands (ev):

   -78.4671 -78.4671 -78.4420 -78.4420 -49.8032 -49.8032 -49.7978 -49.7978
   -49.7977 -49.7977 -49.7784 -49.7784 -49.7733 -49.7732 -49.7732 -49.7732
   -18.1805 -18.1454 -17.9025 -17.8731 -17.5453 -17.5234 -17.4952 -17.4933
   -17.4237 -17.4116 -17.3861 -17.3530 -10.4931 -10.4400  -9.8490  -9.7974
    -9.6332  -9.5916  -9.4041  -9.2847  -9.2641  -9.2021  -9.1609  -9.1278
    -9.0148  -8.9546  -8.8282  -8.8280  -8.6333  -8.6086  -8.5088  -8.4978
    -8.2573  -8.2285  -8.1228  -8.0361  -7.8221  -7.8183  -7.5985  -7.4565
    -7.4159  -7.3667  -7.3305  -7.2539  -7.2276  -7.1864  -6.7676  -6.6985
    -6.6418  -6.6137  -6.5122  -6.4751  -6.3825  -6.3627  -6.2455  -6.2116
    -6.0154  -5.9529  -5.8320  -5.8255  -4.5442  -4.5043  -4.4579  -4.4376
    -4.3737  -4.3122  -4.2496  -4.2288  -1.1118  -1.0083   0.0296   0.0625
     0.1430   0.3156   0.6815   0.7831   0.8483   1.1000   1.1500   1.2020
     1.2149   1.2658   1.3800   1.5933

          k = 0.1667 0.2887 0.0000 (109615 PWs)   bands (ev):

   -78.4670 -78.4670 -78.4419 -78.4419 -49.8032 -49.8032 -49.7978 -49.7978
   -49.7978 -49.7978 -49.7784 -49.7784 -49.7733 -49.7733 -49.7732 -49.7732
   -18.3992 -18.3194 -17.6637 -17.6441 -17.6399 -17.5359 -17.5200 -17.5013
   -17.3737 -17.3670 -17.3347 -17.3330 -10.3588 -10.3412 -10.1378  -9.9445
    -9.8420  -9.6854  -9.5177  -9.4749  -9.4070  -9.3425  -9.2158  -9.1852
    -8.9098  -8.8372  -8.7827  -8.7433  -8.5886  -8.5544  -8.3074  -8.2858
    -8.1134  -8.0910  -8.0312  -8.0122  -7.8986  -7.8828  -7.8151  -7.7744
    -7.4292  -7.4235  -7.2856  -7.2573  -7.0846  -6.9866  -6.8799  -6.8266
    -6.7675  -6.7307  -6.4962  -6.3239  -6.2851  -6.2801  -6.2288  -6.1702
    -6.1398  -5.8532  -5.8236  -5.7411  -4.5856  -4.4991  -4.4793  -4.4377
    -4.4030  -4.3558  -4.1441  -4.1060  -0.8066  -0.6482  -0.1988  -0.1320
     0.4313   0.4599   0.6036   0.6985   0.9993   1.0668   1.2486   1.2640
     1.3814   1.4025   1.5026   1.5820

          k = 0.1667 0.4811 0.0000 (109606 PWs)   bands (ev):

   -78.4671 -78.4671 -78.4420 -78.4420 -49.8032 -49.8032 -49.7978 -49.7978
   -49.7977 -49.7977 -49.7784 -49.7784 -49.7733 -49.7733 -49.7731 -49.7731
   -18.2060 -18.1450 -17.8645 -17.8317 -17.5831 -17.5506 -17.5392 -17.4665
   -17.4298 -17.3974 -17.3716 -17.3502 -10.3391 -10.2831  -9.9574  -9.8649
    -9.7822  -9.6418  -9.4168  -9.3663  -9.2957  -9.2544  -9.2077  -9.1569
    -9.0655  -8.9999  -8.7125  -8.6996  -8.6673  -8.6170  -8.3889  -8.3513
    -8.2001  -8.1750  -8.0335  -7.9663  -7.9327  -7.8770  -7.7222  -7.6274
    -7.5007  -7.4824  -7.2813  -7.1710  -7.1156  -6.9668  -6.8542  -6.8071
    -6.6849  -6.6617  -6.5461  -6.4471  -6.3652  -6.2678  -6.2279  -6.1809
    -6.0737  -5.9346  -5.8371  -5.7816  -4.5585  -4.5062  -4.4389  -4.3908
    -4.3429  -4.3143  -4.1875  -4.1527  -0.9607  -0.8958  -0.4608  -0.3433
     0.1505   0.3861   0.5261   0.5853   0.7253   0.8284   1.0693   1.1467
     1.1687   1.2378   1.2837   1.4049

          k = 0.3333 0.5774 0.0000 (109542 PWs)   bands (ev):

   -78.4671 -78.4671 -78.4420 -78.4420 -49.8032 -49.8032 -49.7978 -49.7978
   -49.7977 -49.7977 -49.7784 -49.7784 -49.7733 -49.7733 -49.7731 -49.7731
   -18.0325 -18.0047 -18.0047 -17.9647 -17.6119 -17.6119 -17.4816 -17.4536
   -17.4536 -17.4016 -17.3757 -17.3757 -10.0292  -9.9981  -9.9981  -9.9017
    -9.8773  -9.8773  -9.4758  -9.3204  -9.3204  -9.2492  -9.1947  -9.1855
    -9.1855  -9.0424  -8.7217  -8.7217  -8.6851  -8.6851  -8.1397  -8.1396
    -8.1269  -8.0785  -8.0595  -8.0595  -7.9868  -7.9868  -7.7156  -7.6756
    -7.6756  -7.6368  -7.1252  -7.0321  -7.0321  -6.9419  -6.9419  -6.7820
    -6.7202  -6.7202  -6.5694  -6.5694  -6.2911  -6.2303  -6.2303  -6.2083
    -6.0030  -5.8854  -5.8854  -5.7557  -4.5362  -4.5362  -4.3822  -4.3222
    -4.3221  -4.2940  -4.0912  -4.0912  -0.9479  -0.8276  -0.8276  -0.7441
     0.1564   0.1564   0.1815   0.4136   0.4745   0.4745   0.8791   0.8792
     1.0458   1.1219   1.2301   1.2301

          k =-0.1667 0.0962 0.0000 (109722 PWs)   bands (ev):

   -78.4669 -78.4669 -78.4419 -78.4419 -49.8032 -49.8032 -49.7979 -49.7979
   -49.7978 -49.7978 -49.7784 -49.7784 -49.7733 -49.7733 -49.7732 -49.7732
   -18.5134 -18.4287 -17.6987 -17.5808 -17.5384 -17.5082 -17.4795 -17.4513
   -17.3445 -17.3419 -17.3244 -17.3195 -10.4270 -10.4016 -10.2125  -9.8703
    -9.7348  -9.7156  -9.6513  -9.6113  -9.4828  -9.3803  -9.3471  -9.3027
    -8.8133  -8.7678  -8.7384  -8.6889  -8.6710  -8.6303  -8.3557  -8.3504
    -8.1530  -8.1098  -8.0153  -7.9707  -7.9056  -7.8992  -7.7478  -7.7098
    -7.4719  -7.4605  -7.2414  -7.1068  -7.0647  -6.9608  -6.9508  -6.9052
    -6.8112  -6.7605  -6.6575  -6.3457  -6.2779  -6.2376  -6.1894  -6.1054
    -5.9309  -5.7942  -5.7360  -5.6960  -4.5934  -4.5583  -4.4547  -4.4407
    -4.2545  -4.2246  -4.1025  -4.0918  -0.9317  -0.6173  -0.2315   0.1031
     0.2395   0.4079   0.5476   0.6764   0.7272   0.9702   1.3008   1.3999
     1.5413   1.5903   1.7234   1.7992

          k = 0.1667 0.0962 0.0000 (109722 PWs)   bands (ev):

   -78.4669 -78.4669 -78.4419 -78.4419 -49.8032 -49.8032 -49.7979 -49.7979
   -49.7978 -49.7978 -49.7784 -49.7784 -49.7733 -49.7733 -49.7732 -49.7732
   -18.5134 -18.4287 -17.6987 -17.5808 -17.5384 -17.5082 -17.4795 -17.4513
   -17.3445 -17.3419 -17.3244 -17.3195 -10.4270 -10.4016 -10.2125  -9.8703
    -9.7348  -9.7156  -9.6513  -9.6113  -9.4828  -9.3803  -9.3471  -9.3027
    -8.8133  -8.7678  -8.7384  -8.6889  -8.6710  -8.6303  -8.3557  -8.3504
    -8.1530  -8.1098  -8.0153  -7.9707  -7.9056  -7.8992  -7.7478  -7.7098
    -7.4719  -7.4605  -7.2414  -7.1068  -7.0647  -6.9608  -6.9508  -6.9052
    -6.8112  -6.7605  -6.6575  -6.3457  -6.2779  -6.2376  -6.1894  -6.1054
    -5.9309  -5.7942  -5.7360  -5.6960  -4.5934  -4.5583  -4.4547  -4.4407
    -4.2545  -4.2246  -4.1025  -4.0918  -0.9317  -0.6173  -0.2315   0.1031
     0.2395   0.4079   0.5476   0.6764   0.7272   0.9702   1.3008   1.3999
     1.5413   1.5903   1.7234   1.7992

          k =-0.3333 0.1925 0.0000 (109616 PWs)   bands (ev):

   -78.4670 -78.4670 -78.4420 -78.4420 -49.8032 -49.8032 -49.7978 -49.7978
   -49.7978 -49.7978 -49.7784 -49.7784 -49.7733 -49.7732 -49.7732 -49.7732
   -18.3475 -18.2717 -17.7474 -17.6993 -17.6170 -17.5233 -17.5132 -17.4818
   -17.4005 -17.3718 -17.3503 -17.3414 -10.4493 -10.4096 -10.0309  -9.8140
    -9.7196  -9.6181  -9.5513  -9.4808  -9.4215  -9.2684  -9.2027  -9.1780
    -8.9278  -8.8613  -8.7222  -8.6919  -8.6720  -8.6014  -8.4126  -8.3855
    -8.0923  -8.0575  -8.0407  -8.0267  -7.9072  -7.9026  -7.7445  -7.6318
    -7.4243  -7.4116  -7.2962  -7.2574  -7.2189  -7.0540  -6.8476  -6.7654
    -6.7082  -6.7036  -6.4256  -6.3473  -6.3171  -6.2858  -6.2342  -6.2175
    -6.1854  -5.8708  -5.8262  -5.7842  -4.5836  -4.4994  -4.4449  -4.4094
    -4.3859  -4.3153  -4.2408  -4.2285  -0.8843  -0.8041  -0.0214   0.0807
     0.3705   0.5442   0.7798   0.8358   0.9115   0.9949   1.0605   1.1618
     1.1789   1.3542   1.4174   1.5321

          k = 0.3333 0.1925 0.0000 (109616 PWs)   bands (ev):

   -78.4670 -78.4670 -78.4420 -78.4420 -49.8032 -49.8032 -49.7978 -49.7978
   -49.7978 -49.7978 -49.7784 -49.7784 -49.7733 -49.7733 -49.7732 -49.7732
   -18.3475 -18.2717 -17.7474 -17.6993 -17.6170 -17.5234 -17.5132 -17.4818
   -17.4005 -17.3718 -17.3503 -17.3414 -10.4493 -10.4096 -10.0309  -9.8140
    -9.7196  -9.6181  -9.5513  -9.4808  -9.4215  -9.2684  -9.2027  -9.1780
    -8.9278  -8.8613  -8.7222  -8.6919  -8.6720  -8.6014  -8.4126  -8.3855
    -8.0923  -8.0575  -8.0407  -8.0267  -7.9072  -7.9026  -7.7445  -7.6318
    -7.4243  -7.4116  -7.2962  -7.2574  -7.2189  -7.0540  -6.8476  -6.7654
    -6.7082  -6.7036  -6.4256  -6.3473  -6.3171  -6.2858  -6.2342  -6.2176
    -6.1854  -5.8708  -5.8262  -5.7842  -4.5836  -4.4994  -4.4449  -4.4094
    -4.3859  -4.3153  -4.2408  -4.2285  -0.8843  -0.8041  -0.0214   0.0807
     0.3705   0.5442   0.7798   0.8358   0.9115   0.9949   1.0605   1.1618
     1.1789   1.3542   1.4174   1.5321

          k = 0.5000-0.2887 0.0000 (109602 PWs)   bands (ev):

   -78.4671 -78.4671 -78.4420 -78.4420 -49.8032 -49.8032 -49.7978 -49.7978
   -49.7977 -49.7977 -49.7784 -49.7784 -49.7732 -49.7732 -49.7732 -49.7732
   -18.1805 -18.1454 -17.9025 -17.8731 -17.5453 -17.5234 -17.4952 -17.4933
   -17.4237 -17.4116 -17.3861 -17.3530 -10.4931 -10.4400  -9.8490  -9.7974
    -9.6332  -9.5917  -9.4041  -9.2847  -9.2641  -9.2021  -9.1609  -9.1278
    -9.0148  -8.9546  -8.8282  -8.8280  -8.6333  -8.6086  -8.5088  -8.4978
    -8.2573  -8.2285  -8.1228  -8.0361  -7.8221  -7.8183  -7.5985  -7.4565
    -7.4159  -7.3667  -7.3305  -7.2539  -7.2276  -7.1864  -6.7676  -6.6985
    -6.6418  -6.6137  -6.5122  -6.4751  -6.3825  -6.3627  -6.2455  -6.2116
    -6.0154  -5.9529  -5.8320  -5.8255  -4.5442  -4.5043  -4.4579  -4.4376
    -4.3737  -4.3122  -4.2496  -4.2288  -1.1118  -1.0083   0.0296   0.0625
     0.1430   0.3156   0.6815   0.7831   0.8483   1.1000   1.1500   1.2020
     1.2149   1.2658   1.3800   1.5933

          k =-0.5000-0.2887 0.0000 (109602 PWs)   bands (ev):

   -78.4671 -78.4671 -78.4420 -78.4420 -49.8032 -49.8032 -49.7978 -49.7978
   -49.7977 -49.7977 -49.7784 -49.7784 -49.7732 -49.7732 -49.7732 -49.7732
   -18.1805 -18.1454 -17.9025 -17.8731 -17.5453 -17.5234 -17.4952 -17.4933
   -17.4237 -17.4116 -17.3861 -17.3530 -10.4931 -10.4400  -9.8490  -9.7974
    -9.6332  -9.5916  -9.4041  -9.2847  -9.2641  -9.2021  -9.1609  -9.1278
    -9.0149  -8.9546  -8.8282  -8.8280  -8.6333  -8.6086  -8.5088  -8.4978
    -8.2573  -8.2285  -8.1228  -8.0361  -7.8221  -7.8183  -7.5985  -7.4565
    -7.4159  -7.3667  -7.3305  -7.2539  -7.2276  -7.1864  -6.7676  -6.6985
    -6.6418  -6.6137  -6.5122  -6.4751  -6.3825  -6.3627  -6.2455  -6.2116
    -6.0154  -5.9529  -5.8320  -5.8255  -4.5442  -4.5043  -4.4579  -4.4376
    -4.3737  -4.3122  -4.2496  -4.2288  -1.1118  -1.0083   0.0296   0.0625
     0.1430   0.3156   0.6815   0.7831   0.8483   1.1000   1.1500   1.2020
     1.2149   1.2658   1.3800   1.5933

          k =-0.1667 0.2887 0.0000 (109615 PWs)   bands (ev):

   -78.4670 -78.4670 -78.4419 -78.4419 -49.8032 -49.8032 -49.7978 -49.7978
   -49.7978 -49.7978 -49.7784 -49.7784 -49.7733 -49.7733 -49.7732 -49.7732
   -18.3992 -18.3194 -17.6637 -17.6441 -17.6399 -17.5359 -17.5200 -17.5013
   -17.3737 -17.3670 -17.3347 -17.3330 -10.3588 -10.3412 -10.1377  -9.9445
    -9.8421  -9.6854  -9.5177  -9.4749  -9.4070  -9.3425  -9.2158  -9.1852
    -8.9098  -8.8372  -8.7827  -8.7433  -8.5886  -8.5544  -8.3074  -8.2858
    -8.1134  -8.0910  -8.0312  -8.0122  -7.8986  -7.8828  -7.8151  -7.7744
    -7.4292  -7.4235  -7.2856  -7.2573  -7.0846  -6.9866  -6.8799  -6.8267
    -6.7675  -6.7307  -6.4962  -6.3239  -6.2851  -6.2802  -6.2288  -6.1702
    -6.1398  -5.8532  -5.8235  -5.7411  -4.5856  -4.4992  -4.4793  -4.4377
    -4.4030  -4.3558  -4.1441  -4.1060  -0.8066  -0.6482  -0.1988  -0.1320
     0.4314   0.4599   0.6036   0.6985   0.9993   1.0668   1.2486   1.2640
     1.3814   1.4025   1.5025   1.5820

          k = 0.3333 0.0000 0.0000 (109615 PWs)   bands (ev):

   -78.4670 -78.4670 -78.4419 -78.4419 -49.8032 -49.8032 -49.7978 -49.7978
   -49.7978 -49.7978 -49.7784 -49.7784 -49.7733 -49.7733 -49.7732 -49.7732
   -18.3992 -18.3194 -17.6637 -17.6441 -17.6399 -17.5359 -17.5200 -17.5013
   -17.3737 -17.3670 -17.3347 -17.3330 -10.3588 -10.3412 -10.1377  -9.9445
    -9.8421  -9.6854  -9.5177  -9.4749  -9.4070  -9.3425  -9.2158  -9.1852
    -8.9098  -8.8372  -8.7827  -8.7433  -8.5886  -8.5544  -8.3074  -8.2858
    -8.1134  -8.0910  -8.0312  -8.0122  -7.8986  -7.8828  -7.8151  -7.7744
    -7.4292  -7.4235  -7.2856  -7.2573  -7.0846  -6.9866  -6.8799  -6.8267
    -6.7675  -6.7307  -6.4962  -6.3239  -6.2851  -6.2802  -6.2288  -6.1702
    -6.1398  -5.8532  -5.8236  -5.7411  -4.5856  -4.4991  -4.4793  -4.4377
    -4.4030  -4.3558  -4.1441  -4.1060  -0.8066  -0.6482  -0.1988  -0.1320
     0.4314   0.4599   0.6036   0.6985   0.9993   1.0668   1.2486   1.2640
     1.3814   1.4025   1.5026   1.5820

          k =-0.3333 0.3849 0.0000 (109606 PWs)   bands (ev):

   -78.4671 -78.4671 -78.4420 -78.4420 -49.8032 -49.8032 -49.7978 -49.7978
   -49.7977 -49.7977 -49.7784 -49.7784 -49.7733 -49.7733 -49.7732 -49.7731
   -18.2060 -18.1450 -17.8645 -17.8317 -17.5831 -17.5506 -17.5392 -17.4665
   -17.4298 -17.3974 -17.3716 -17.3502 -10.3391 -10.2831  -9.9574  -9.8649
    -9.7822  -9.6418  -9.4168  -9.3663  -9.2957  -9.2544  -9.2077  -9.1569
    -9.0655  -8.9999  -8.7125  -8.6996  -8.6673  -8.6170  -8.3889  -8.3513
    -8.2001  -8.1750  -8.0335  -7.9663  -7.9327  -7.8770  -7.7222  -7.6274
    -7.5006  -7.4824  -7.2813  -7.1710  -7.1156  -6.9668  -6.8542  -6.8071
    -6.6849  -6.6617  -6.5462  -6.4471  -6.3652  -6.2678  -6.2279  -6.1809
    -6.0737  -5.9346  -5.8371  -5.7816  -4.5585  -4.5062  -4.4389  -4.3908
    -4.3429  -4.3143  -4.1875  -4.1527  -0.9607  -0.8958  -0.4608  -0.3433
     0.1505   0.3861   0.5261   0.5854   0.7253   0.8284   1.0693   1.1467
     1.1687   1.2378   1.2837   1.4048

          k =-0.1667 0.4811 0.0000 (109606 PWs)   bands (ev):

   -78.4671 -78.4671 -78.4420 -78.4420 -49.8032 -49.8032 -49.7978 -49.7978
   -49.7977 -49.7977 -49.7784 -49.7784 -49.7733 -49.7733 -49.7731 -49.7731
   -18.2063 -18.1445 -17.8680 -17.8279 -17.5798 -17.5614 -17.5323 -17.4641
   -17.4339 -17.3941 -17.3735 -17.3497 -10.3432 -10.2760  -9.9776  -9.8376
    -9.7857  -9.6518  -9.4062  -9.3782  -9.2722  -9.2403  -9.2209  -9.1917
    -9.0629  -8.9847  -8.7161  -8.7068  -8.6548  -8.6240  -8.3690  -8.3618
    -8.2246  -8.1563  -8.0296  -7.9823  -7.9200  -7.8859  -7.7149  -7.6122
    -7.5173  -7.4838  -7.2679  -7.1847  -7.0809  -7.0199  -6.8966  -6.7022
    -6.6889  -6.6644  -6.5835  -6.4459  -6.3670  -6.2653  -6.2212  -6.1734
    -6.1069  -5.8944  -5.8413  -5.7972  -4.5458  -4.5342  -4.4389  -4.3863
    -4.3336  -4.3009  -4.1937  -4.1586  -0.9773  -0.8756  -0.4621  -0.3459
     0.1614   0.3680   0.5069   0.5858   0.7242   0.8936   1.0081   1.0897
     1.2190   1.2737   1.3428   1.3856

          k = 0.5000 0.0962 0.0000 (109606 PWs)   bands (ev):

   -78.4671 -78.4671 -78.4420 -78.4420 -49.8032 -49.8032 -49.7978 -49.7978
   -49.7977 -49.7977 -49.7784 -49.7784 -49.7733 -49.7733 -49.7732 -49.7731
   -18.2060 -18.1450 -17.8645 -17.8317 -17.5831 -17.5506 -17.5392 -17.4665
   -17.4298 -17.3973 -17.3716 -17.3502 -10.3391 -10.2831  -9.9574  -9.8649
    -9.7822  -9.6418  -9.4168  -9.3663  -9.2957  -9.2544  -9.2077  -9.1569
    -9.0655  -8.9999  -8.7125  -8.6996  -8.6673  -8.6170  -8.3889  -8.3513
    -8.2001  -8.1750  -8.0335  -7.9663  -7.9327  -7.8770  -7.7222  -7.6274
    -7.5007  -7.4824  -7.2813  -7.1710  -7.1156  -6.9668  -6.8542  -6.8071
    -6.6849  -6.6617  -6.5462  -6.4471  -6.3652  -6.2678  -6.2279  -6.1809
    -6.0737  -5.9346  -5.8371  -5.7816  -4.5585  -4.5062  -4.4389  -4.3908
    -4.3429  -4.3143  -4.1875  -4.1527  -0.9607  -0.8958  -0.4608  -0.3433
     0.1505   0.3861   0.5261   0.5853   0.7253   0.8284   1.0693   1.1466
     1.1687   1.2378   1.2837   1.4048

          k =-0.3333-0.3849 0.0000 (109606 PWs)   bands (ev):

   -78.4671 -78.4671 -78.4420 -78.4420 -49.8032 -49.8032 -49.7978 -49.7978
   -49.7977 -49.7977 -49.7784 -49.7784 -49.7733 -49.7733 -49.7732 -49.7731
   -18.2063 -18.1445 -17.8680 -17.8279 -17.5798 -17.5614 -17.5323 -17.4641
   -17.4339 -17.3941 -17.3735 -17.3497 -10.3432 -10.2760  -9.9776  -9.8376
    -9.7857  -9.6518  -9.4062  -9.3782  -9.2722  -9.2403  -9.2209  -9.1917
    -9.0629  -8.9847  -8.7161  -8.7068  -8.6548  -8.6240  -8.3690  -8.3618
    -8.2246  -8.1563  -8.0296  -7.9823  -7.9200  -7.8859  -7.7149  -7.6122
    -7.5173  -7.4838  -7.2679  -7.1847  -7.0809  -7.0199  -6.8966  -6.7021
    -6.6889  -6.6644  -6.5835  -6.4459  -6.3670  -6.2653  -6.2212  -6.1734
    -6.1069  -5.8944  -5.8413  -5.7972  -4.5458  -4.5342  -4.4389  -4.3863
    -4.3336  -4.3009  -4.1937  -4.1586  -0.9773  -0.8756  -0.4621  -0.3459
     0.1614   0.3680   0.5069   0.5858   0.7242   0.8936   1.0081   1.0897
     1.2190   1.2737   1.3428   1.3856

          k = 0.5000-0.0962 0.0000 (109606 PWs)   bands (ev):

   -78.4671 -78.4671 -78.4420 -78.4420 -49.8032 -49.8032 -49.7978 -49.7978
   -49.7977 -49.7977 -49.7784 -49.7784 -49.7733 -49.7733 -49.7732 -49.7731
   -18.2063 -18.1445 -17.8680 -17.8279 -17.5799 -17.5614 -17.5323 -17.4641
   -17.4339 -17.3941 -17.3735 -17.3497 -10.3432 -10.2760  -9.9776  -9.8376
    -9.7857  -9.6518  -9.4062  -9.3782  -9.2722  -9.2403  -9.2209  -9.1917
    -9.0629  -8.9847  -8.7161  -8.7068  -8.6548  -8.6240  -8.3690  -8.3618
    -8.2246  -8.1563  -8.0296  -7.9823  -7.9200  -7.8859  -7.7149  -7.6122
    -7.5173  -7.4838  -7.2679  -7.1847  -7.0809  -7.0199  -6.8966  -6.7022
    -6.6889  -6.6644  -6.5835  -6.4459  -6.3670  -6.2653  -6.2212  -6.1734
    -6.1069  -5.8944  -5.8413  -5.7972  -4.5458  -4.5342  -4.4389  -4.3863
    -4.3336  -4.3009  -4.1937  -4.1586  -0.9773  -0.8756  -0.4621  -0.3459
     0.1614   0.3680   0.5069   0.5858   0.7242   0.8936   1.0081   1.0897
     1.2190   1.2737   1.3428   1.3856

 ------ SPIN DOWN ----------


          k = 0.0000 0.0000 0.0000 (109591 PWs)   bands (ev):

   -75.0844 -75.0844 -75.0602 -75.0602 -46.4823 -46.4823 -46.4642 -46.4642
   -46.4642 -46.4642 -46.4567 -46.4566 -46.4411 -46.4411 -46.4411 -46.4411
   -18.6377 -18.5441 -17.8528 -17.7316 -17.5229 -17.5229 -17.5108 -17.5108
   -17.3301 -17.3301 -17.3235 -17.3235  -9.9879  -9.9360  -9.6134  -9.1350
    -9.0140  -9.0140  -8.9124  -8.9124  -8.7958  -8.7082  -8.6449  -8.6448
    -8.5942  -8.5942  -7.8825  -7.8807  -7.6415  -7.6415  -7.5418  -7.5418
    -7.3143  -7.2783  -7.2422  -7.2422  -7.2021  -7.2021  -6.9681  -6.3541
    -6.3541  -6.2787  -6.2786  -6.2538  -5.8896  -5.8896  -5.8302  -5.8302
    -2.6917  -2.6917  -2.6651  -2.6651  -2.5719  -2.5719  -2.4997  -2.4997
    -2.4293  -2.4082  -2.4008  -2.3489  -2.1056  -2.1056  -2.0887  -2.0887
    -2.0283  -2.0283  -2.0194  -2.0194  -0.3177  -0.1944  -0.0943   0.1851
     0.2085   0.3471   1.0465   1.2504   1.2504   1.2674   1.2674   1.4141
     1.8161   2.0135   2.0135   2.0743

          k = 0.0000 0.1925 0.0000 (109722 PWs)   bands (ev):

   -75.0843 -75.0843 -75.0601 -75.0601 -46.4823 -46.4823 -46.4642 -46.4642
   -46.4642 -46.4642 -46.4567 -46.4566 -46.4412 -46.4412 -46.4412 -46.4411
   -18.5785 -18.4874 -17.8126 -17.6975 -17.6155 -17.5858 -17.5626 -17.5354
   -17.3479 -17.3379 -17.3253 -17.3198  -9.9555  -9.9313  -9.5775  -9.1790
    -9.1200  -9.0539  -8.9422  -8.8858  -8.8143  -8.7793  -8.6341  -8.5913
    -8.2614  -8.1995  -7.8229  -7.7368  -7.6727  -7.6269  -7.6131  -7.5602
    -7.3385  -7.2823  -7.2304  -7.1706  -7.1322  -7.1076  -6.8286  -6.4980
    -6.4272  -6.4038  -6.3516  -6.3139  -6.2000  -6.0761  -5.9869  -5.9195
    -2.6848  -2.6749  -2.6476  -2.6282  -2.5927  -2.5614  -2.5451  -2.5075
    -2.4153  -2.3548  -2.3093  -2.2880  -2.1784  -2.1663  -2.1192  -2.1151
    -2.0841  -2.0672  -2.0510  -2.0483  -0.2067   0.0788   0.1474   0.4470
     0.6009   0.6339   0.7242   0.9333   0.9767   1.1811   1.4833   1.7171
     1.7678   1.7822   2.0204   2.0644

          k = 0.0000 0.3849 0.0000 (109616 PWs)   bands (ev):

   -75.0841 -75.0841 -75.0599 -75.0599 -46.4823 -46.4823 -46.4643 -46.4643
   -46.4642 -46.4642 -46.4566 -46.4566 -46.4413 -46.4413 -46.4412 -46.4412
   -18.4135 -18.3325 -17.8314 -17.7818 -17.7064 -17.6287 -17.6107 -17.5791
   -17.4100 -17.3632 -17.3549 -17.3257  -9.8973  -9.8664  -9.4561  -9.2981
    -9.2072  -9.0936  -8.9989  -8.8104  -8.7329  -8.5288  -8.4633  -8.2947
    -8.1883  -8.0198  -7.8372  -7.7278  -7.6906  -7.6345  -7.5305  -7.3620
    -7.3108  -7.1819  -7.1601  -7.1135  -7.0822  -7.0600  -6.9001  -6.8396
    -6.7260  -6.6645  -6.4738  -6.4015  -6.3731  -6.1198  -6.1052  -6.0452
    -2.6956  -2.6785  -2.6577  -2.6530  -2.6076  -2.5818  -2.5277  -2.5018
    -2.4787  -2.4624  -2.2820  -2.2658  -2.2422  -2.2213  -2.1345  -2.1119
    -2.0809  -2.0588  -2.0226  -1.9864  -0.2620  -0.1951   0.5207   0.6074
     0.7787   0.8429   0.9439   1.0482   1.1841   1.2100   1.3162   1.4047
     1.4731   1.6081   1.6730   1.7796

          k = 0.0000-0.5774 0.0000 (109602 PWs)   bands (ev):

   -75.0840 -75.0840 -75.0598 -75.0598 -46.4822 -46.4822 -46.4644 -46.4643
   -46.4642 -46.4642 -46.4566 -46.4566 -46.4414 -46.4414 -46.4412 -46.4412
   -18.2371 -18.2010 -17.9964 -17.9662 -17.6538 -17.6117 -17.6015 -17.5615
   -17.4535 -17.4261 -17.3642 -17.3310  -9.8827  -9.8268  -9.3565  -9.2966
    -9.2445  -9.1453  -8.7894  -8.7038  -8.5521  -8.5418  -8.4545  -8.4155
    -8.1275  -8.0042  -7.8442  -7.7426  -7.6721  -7.6520  -7.5399  -7.4376
    -7.4114  -7.3802  -7.3210  -7.0945  -6.9082  -6.8957  -6.8430  -6.7971
    -6.7527  -6.6839  -6.5478  -6.4807  -6.3426  -6.2791  -6.0194  -6.0180
    -2.7806  -2.7745  -2.6391  -2.6380  -2.6257  -2.6185  -2.5665  -2.5523
    -2.4483  -2.4047  -2.3545  -2.3540  -2.2540  -2.2157  -2.0739  -2.0685
    -2.0267  -2.0238  -1.9929  -1.9526  -0.5269  -0.3859   0.2411   0.5342
     0.8633   0.9181   0.9370   1.0072   1.2036   1.3436   1.3744   1.4034
     1.4614   1.5926   1.6861   1.8037

          k = 0.1667 0.2887 0.0000 (109615 PWs)   bands (ev):

   -75.0841 -75.0841 -75.0600 -75.0599 -46.4823 -46.4823 -46.4643 -46.4643
   -46.4642 -46.4642 -46.4566 -46.4566 -46.4413 -46.4413 -46.4412 -46.4412
   -18.4658 -18.3807 -17.7426 -17.7401 -17.7200 -17.6402 -17.6167 -17.5935
   -17.3839 -17.3670 -17.3329 -17.3219  -9.8832  -9.8593  -9.5179  -9.2332
    -9.1840  -9.1520  -8.9819  -8.9242  -8.7774  -8.6000  -8.4727  -8.3966
    -8.0967  -7.9454  -7.8762  -7.8075  -7.7371  -7.6890  -7.4810  -7.3661
    -7.2832  -7.2424  -7.1690  -7.1354  -7.0408  -6.9953  -6.9698  -6.8405
    -6.5404  -6.4832  -6.4459  -6.4103  -6.3910  -6.1489  -6.0961  -6.0547
    -2.6979  -2.6517  -2.6165  -2.6123  -2.5843  -2.5670  -2.5421  -2.5289
    -2.4925  -2.4757  -2.2563  -2.2472  -2.2081  -2.2001  -2.1724  -2.1531
    -2.0647  -2.0487  -2.0410  -2.0018  -0.1471   0.0012   0.3521   0.4380
     0.6485   0.6833   0.8667   0.9159   1.1859   1.2313   1.4616   1.5429
     1.5786   1.6561   1.7417   1.8155

          k = 0.1667 0.4811 0.0000 (109606 PWs)   bands (ev):

   -75.0840 -75.0840 -75.0598 -75.0598 -46.4822 -46.4822 -46.4644 -46.4644
   -46.4642 -46.4642 -46.4566 -46.4566 -46.4414 -46.4413 -46.4412 -46.4412
   -18.2711 -18.2053 -17.9475 -17.9100 -17.6889 -17.6600 -17.6199 -17.5449
   -17.4552 -17.4194 -17.3514 -17.3316  -9.7797  -9.7295  -9.3765  -9.2924
    -9.2575  -9.0481  -9.0077  -8.7906  -8.7372  -8.4730  -8.4469  -8.3942
    -8.2515  -8.1036  -7.8406  -7.7628  -7.6550  -7.6211  -7.4926  -7.4631
    -7.4106  -7.3576  -7.2228  -7.0362  -6.9635  -6.8387  -6.7864  -6.7400
    -6.6765  -6.6394  -6.5260  -6.4419  -6.3228  -6.2218  -6.1426  -6.0853
    -2.7183  -2.6913  -2.6406  -2.6103  -2.6042  -2.5911  -2.5754  -2.5383
    -2.4960  -2.4470  -2.4106  -2.3390  -2.2917  -2.2583  -2.0741  -2.0655
    -2.0133  -1.9960  -1.9655  -1.9353  -0.3849  -0.2688   0.1927   0.2106
     0.4200   0.7468   0.7866   0.8295   1.0160   1.1033   1.2908   1.4075
     1.4475   1.4702   1.5329   1.6565

          k = 0.3333 0.5774 0.0000 (109542 PWs)   bands (ev):

   -75.0839 -75.0839 -75.0598 -75.0597 -46.4822 -46.4822 -46.4644 -46.4644
   -46.4642 -46.4642 -46.4566 -46.4566 -46.4414 -46.4414 -46.4412 -46.4412
   -18.1007 -18.0721 -18.0721 -18.0313 -17.7314 -17.7313 -17.5383 -17.5049
   -17.5049 -17.4607 -17.3463 -17.3463  -9.5527  -9.4840  -9.4840  -9.3995
    -9.0601  -9.0441  -9.0441  -8.8232  -8.7977  -8.7977  -8.3787  -8.2749
    -8.2749  -8.1909  -8.1909  -7.9927  -7.5763  -7.5763  -7.5537  -7.5537
    -7.1682  -7.1574  -7.1573  -6.9692  -6.9692  -6.8145  -6.6923  -6.6335
    -6.6335  -6.5777  -6.5276  -6.5276  -6.2544  -6.2069  -6.2069  -6.1626
    -2.6482  -2.6482  -2.6475  -2.6136  -2.6136  -2.5916  -2.5577  -2.5343
    -2.5342  -2.4925  -2.4925  -2.4263  -2.2822  -2.2822  -2.0291  -2.0291
    -1.9844  -1.9344  -1.9344  -1.9059  -0.2946  -0.2236  -0.2236  -0.1786
     0.4246   0.4246   0.5744   0.7073   0.7073   0.7721   1.1358   1.1358
     1.2941   1.4569   1.5158   1.5158

          k =-0.1667 0.0962 0.0000 (109722 PWs)   bands (ev):

   -75.0843 -75.0843 -75.0601 -75.0601 -46.4823 -46.4823 -46.4642 -46.4642
   -46.4642 -46.4642 -46.4567 -46.4566 -46.4412 -46.4412 -46.4412 -46.4411
   -18.5785 -18.4874 -17.8126 -17.6975 -17.6155 -17.5857 -17.5626 -17.5354
   -17.3479 -17.3379 -17.3253 -17.3198  -9.9555  -9.9313  -9.5775  -9.1790
    -9.1200  -9.0539  -8.9422  -8.8858  -8.8143  -8.7793  -8.6341  -8.5913
    -8.2614  -8.1995  -7.8229  -7.7368  -7.6726  -7.6269  -7.6131  -7.5602
    -7.3385  -7.2823  -7.2304  -7.1706  -7.1322  -7.1076  -6.8286  -6.4980
    -6.4272  -6.4038  -6.3516  -6.3139  -6.2000  -6.0761  -5.9869  -5.9195
    -2.6848  -2.6749  -2.6476  -2.6282  -2.5927  -2.5614  -2.5451  -2.5075
    -2.4153  -2.3548  -2.3093  -2.2880  -2.1784  -2.1663  -2.1192  -2.1151
    -2.0841  -2.0672  -2.0510  -2.0483  -0.2067   0.0788   0.1474   0.4470
     0.6009   0.6339   0.7242   0.9333   0.9767   1.1811   1.4833   1.7171
     1.7678   1.7822   2.0204   2.0644

          k = 0.1667 0.0962 0.0000 (109722 PWs)   bands (ev):

   -75.0843 -75.0843 -75.0601 -75.0601 -46.4823 -46.4823 -46.4642 -46.4642
   -46.4642 -46.4642 -46.4567 -46.4566 -46.4412 -46.4412 -46.4412 -46.4411
   -18.5785 -18.4874 -17.8126 -17.6975 -17.6155 -17.5857 -17.5626 -17.5354
   -17.3479 -17.3379 -17.3253 -17.3198  -9.9555  -9.9313  -9.5775  -9.1790
    -9.1200  -9.0539  -8.9422  -8.8858  -8.8143  -8.7793  -8.6341  -8.5913
    -8.2614  -8.1995  -7.8229  -7.7368  -7.6726  -7.6269  -7.6131  -7.5602
    -7.3385  -7.2823  -7.2304  -7.1706  -7.1322  -7.1076  -6.8286  -6.4980
    -6.4272  -6.4038  -6.3516  -6.3139  -6.2000  -6.0761  -5.9869  -5.9195
    -2.6848  -2.6749  -2.6476  -2.6282  -2.5927  -2.5614  -2.5451  -2.5075
    -2.4153  -2.3548  -2.3093  -2.2880  -2.1784  -2.1663  -2.1192  -2.1151
    -2.0841  -2.0672  -2.0510  -2.0483  -0.2067   0.0788   0.1474   0.4470
     0.6009   0.6339   0.7242   0.9333   0.9767   1.1811   1.4833   1.7171
     1.7678   1.7821   2.0204   2.0644

          k =-0.3333 0.1925 0.0000 (109616 PWs)   bands (ev):

   -75.0841 -75.0841 -75.0599 -75.0599 -46.4823 -46.4823 -46.4643 -46.4643
   -46.4642 -46.4642 -46.4566 -46.4566 -46.4413 -46.4413 -46.4412 -46.4412
   -18.4135 -18.3325 -17.8314 -17.7818 -17.7064 -17.6287 -17.6107 -17.5791
   -17.4100 -17.3632 -17.3549 -17.3257  -9.8973  -9.8664  -9.4561  -9.2981
    -9.2072  -9.0936  -8.9989  -8.8104  -8.7329  -8.5288  -8.4633  -8.2947
    -8.1883  -8.0198  -7.8372  -7.7278  -7.6906  -7.6345  -7.5305  -7.3620
    -7.3108  -7.1819  -7.1601  -7.1135  -7.0822  -7.0600  -6.9001  -6.8396
    -6.7260  -6.6645  -6.4738  -6.4015  -6.3732  -6.1198  -6.1052  -6.0452
    -2.6956  -2.6785  -2.6577  -2.6530  -2.6076  -2.5818  -2.5277  -2.5018
    -2.4787  -2.4624  -2.2820  -2.2658  -2.2422  -2.2213  -2.1345  -2.1119
    -2.0809  -2.0588  -2.0226  -1.9864  -0.2620  -0.1951   0.5207   0.6074
     0.7787   0.8429   0.9439   1.0482   1.1841   1.2100   1.3162   1.4047
     1.4731   1.6081   1.6730   1.7796

          k = 0.3333 0.1925 0.0000 (109616 PWs)   bands (ev):

   -75.0841 -75.0841 -75.0599 -75.0599 -46.4823 -46.4823 -46.4643 -46.4643
   -46.4642 -46.4642 -46.4566 -46.4566 -46.4413 -46.4413 -46.4412 -46.4412
   -18.4135 -18.3325 -17.8314 -17.7818 -17.7064 -17.6287 -17.6107 -17.5791
   -17.4100 -17.3631 -17.3549 -17.3257  -9.8973  -9.8664  -9.4561  -9.2981
    -9.2072  -9.0936  -8.9989  -8.8104  -8.7329  -8.5288  -8.4633  -8.2946
    -8.1883  -8.0198  -7.8372  -7.7278  -7.6906  -7.6345  -7.5305  -7.3620
    -7.3108  -7.1819  -7.1601  -7.1136  -7.0822  -7.0600  -6.9001  -6.8396
    -6.7260  -6.6645  -6.4738  -6.4015  -6.3731  -6.1198  -6.1052  -6.0452
    -2.6956  -2.6785  -2.6577  -2.6530  -2.6076  -2.5818  -2.5277  -2.5018
    -2.4787  -2.4624  -2.2820  -2.2658  -2.2422  -2.2213  -2.1345  -2.1119
    -2.0809  -2.0588  -2.0226  -1.9864  -0.2620  -0.1951   0.5207   0.6074
     0.7787   0.8429   0.9439   1.0482   1.1841   1.2100   1.3162   1.4047
     1.4731   1.6081   1.6730   1.7796

          k = 0.5000-0.2887 0.0000 (109602 PWs)   bands (ev):

   -75.0840 -75.0840 -75.0598 -75.0598 -46.4822 -46.4822 -46.4644 -46.4644
   -46.4642 -46.4642 -46.4566 -46.4566 -46.4414 -46.4414 -46.4412 -46.4412
   -18.2371 -18.2010 -17.9964 -17.9662 -17.6538 -17.6117 -17.6015 -17.5615
   -17.4535 -17.4261 -17.3642 -17.3310  -9.8827  -9.8268  -9.3565  -9.2966
    -9.2445  -9.1453  -8.7894  -8.7038  -8.5521  -8.5418  -8.4545  -8.4155
    -8.1275  -8.0042  -7.8443  -7.7426  -7.6721  -7.6520  -7.5399  -7.4376
    -7.4114  -7.3802  -7.3210  -7.0945  -6.9082  -6.8957  -6.8430  -6.7971
    -6.7527  -6.6839  -6.5478  -6.4807  -6.3426  -6.2791  -6.0194  -6.0180
    -2.7806  -2.7745  -2.6391  -2.6380  -2.6257  -2.6185  -2.5665  -2.5523
    -2.4483  -2.4047  -2.3545  -2.3540  -2.2540  -2.2157  -2.0739  -2.0685
    -2.0267  -2.0238  -1.9929  -1.9526  -0.5269  -0.3859   0.2411   0.5342
     0.8633   0.9181   0.9370   1.0072   1.2036   1.3436   1.3744   1.4034
     1.4614   1.5926   1.6861   1.8037

          k =-0.5000-0.2887 0.0000 (109602 PWs)   bands (ev):

   -75.0840 -75.0840 -75.0598 -75.0598 -46.4822 -46.4822 -46.4644 -46.4644
   -46.4642 -46.4642 -46.4566 -46.4566 -46.4414 -46.4414 -46.4412 -46.4412
   -18.2371 -18.2010 -17.9964 -17.9662 -17.6538 -17.6117 -17.6015 -17.5615
   -17.4535 -17.4261 -17.3642 -17.3310  -9.8827  -9.8268  -9.3565  -9.2967
    -9.2445  -9.1453  -8.7894  -8.7038  -8.5521  -8.5418  -8.4545  -8.4155
    -8.1275  -8.0042  -7.8442  -7.7426  -7.6721  -7.6520  -7.5399  -7.4376
    -7.4114  -7.3802  -7.3210  -7.0945  -6.9082  -6.8957  -6.8430  -6.7971
    -6.7527  -6.6839  -6.5478  -6.4807  -6.3426  -6.2791  -6.0194  -6.0180
    -2.7806  -2.7745  -2.6391  -2.6380  -2.6257  -2.6185  -2.5665  -2.5523
    -2.4483  -2.4047  -2.3545  -2.3540  -2.2540  -2.2157  -2.0739  -2.0685
    -2.0267  -2.0238  -1.9929  -1.9526  -0.5269  -0.3859   0.2411   0.5342
     0.8633   0.9181   0.9370   1.0072   1.2036   1.3436   1.3744   1.4034
     1.4614   1.5926   1.6861   1.8037

          k =-0.1667 0.2887 0.0000 (109615 PWs)   bands (ev):

   -75.0841 -75.0841 -75.0600 -75.0599 -46.4823 -46.4823 -46.4643 -46.4643
   -46.4642 -46.4642 -46.4566 -46.4566 -46.4413 -46.4413 -46.4412 -46.4412
   -18.4658 -18.3807 -17.7426 -17.7401 -17.7200 -17.6402 -17.6167 -17.5935
   -17.3839 -17.3670 -17.3329 -17.3219  -9.8832  -9.8593  -9.5179  -9.2332
    -9.1840  -9.1520  -8.9819  -8.9242  -8.7774  -8.6000  -8.4727  -8.3966
    -8.0967  -7.9454  -7.8762  -7.8075  -7.7371  -7.6890  -7.4810  -7.3661
    -7.2832  -7.2424  -7.1690  -7.1354  -7.0408  -6.9953  -6.9698  -6.8405
    -6.5404  -6.4832  -6.4459  -6.4103  -6.3910  -6.1489  -6.0961  -6.0547
    -2.6979  -2.6517  -2.6165  -2.6123  -2.5843  -2.5670  -2.5421  -2.5289
    -2.4925  -2.4757  -2.2563  -2.2472  -2.2081  -2.2001  -2.1724  -2.1531
    -2.0647  -2.0487  -2.0410  -2.0018  -0.1471   0.0012   0.3521   0.4380
     0.6485   0.6834   0.8667   0.9159   1.1859   1.2313   1.4616   1.5429
     1.5786   1.6561   1.7417   1.8155

          k = 0.3333 0.0000 0.0000 (109615 PWs)   bands (ev):

   -75.0841 -75.0841 -75.0600 -75.0599 -46.4823 -46.4823 -46.4643 -46.4643
   -46.4642 -46.4642 -46.4566 -46.4566 -46.4413 -46.4413 -46.4412 -46.4412
   -18.4658 -18.3807 -17.7426 -17.7401 -17.7200 -17.6402 -17.6167 -17.5935
   -17.3839 -17.3670 -17.3329 -17.3219  -9.8832  -9.8593  -9.5179  -9.2332
    -9.1840  -9.1520  -8.9819  -8.9242  -8.7774  -8.6000  -8.4727  -8.3966
    -8.0967  -7.9454  -7.8762  -7.8075  -7.7371  -7.6890  -7.4810  -7.3661
    -7.2832  -7.2424  -7.1690  -7.1354  -7.0408  -6.9953  -6.9698  -6.8405
    -6.5404  -6.4832  -6.4459  -6.4103  -6.3910  -6.1489  -6.0961  -6.0547
    -2.6979  -2.6517  -2.6165  -2.6123  -2.5843  -2.5670  -2.5421  -2.5289
    -2.4925  -2.4757  -2.2563  -2.2472  -2.2081  -2.2001  -2.1724  -2.1531
    -2.0647  -2.0487  -2.0410  -2.0018  -0.1471   0.0012   0.3521   0.4380
     0.6485   0.6834   0.8667   0.9159   1.1859   1.2313   1.4616   1.5429
     1.5786   1.6561   1.7417   1.8155

          k =-0.3333 0.3849 0.0000 (109606 PWs)   bands (ev):

   -75.0840 -75.0840 -75.0598 -75.0598 -46.4822 -46.4822 -46.4644 -46.4644
   -46.4642 -46.4642 -46.4566 -46.4566 -46.4414 -46.4413 -46.4412 -46.4412
   -18.2711 -18.2053 -17.9475 -17.9100 -17.6889 -17.6600 -17.6199 -17.5449
   -17.4552 -17.4194 -17.3514 -17.3316  -9.7797  -9.7295  -9.3765  -9.2924
    -9.2575  -9.0481  -9.0077  -8.7906  -8.7372  -8.4730  -8.4469  -8.3942
    -8.2515  -8.1036  -7.8406  -7.7628  -7.6550  -7.6211  -7.4926  -7.4631
    -7.4106  -7.3576  -7.2228  -7.0362  -6.9635  -6.8387  -6.7864  -6.7400
    -6.6765  -6.6394  -6.5260  -6.4419  -6.3228  -6.2218  -6.1426  -6.0853
    -2.7183  -2.6913  -2.6406  -2.6103  -2.6042  -2.5911  -2.5754  -2.5383
    -2.4960  -2.4470  -2.4106  -2.3390  -2.2917  -2.2583  -2.0741  -2.0655
    -2.0133  -1.9960  -1.9655  -1.9353  -0.3849  -0.2689   0.1927   0.2106
     0.4200   0.7468   0.7866   0.8295   1.0160   1.1034   1.2908   1.4075
     1.4475   1.4702   1.5329   1.6565

          k =-0.1667 0.4811 0.0000 (109606 PWs)   bands (ev):

   -75.0840 -75.0840 -75.0598 -75.0598 -46.4822 -46.4822 -46.4644 -46.4644
   -46.4642 -46.4642 -46.4566 -46.4566 -46.4414 -46.4413 -46.4412 -46.4412
   -18.2713 -18.2050 -17.9499 -17.9073 -17.6925 -17.6563 -17.6198 -17.5465
   -17.4526 -17.4210 -17.3529 -17.3303  -9.7876  -9.7153  -9.4155  -9.2650
    -9.2413  -9.0600  -9.0066  -8.7767  -8.7394  -8.5197  -8.4531  -8.3482
    -8.2570  -8.0998  -7.8365  -7.7744  -7.6663  -7.5991  -7.5103  -7.4483
    -7.3982  -7.3788  -7.2203  -7.0224  -6.9475  -6.8622  -6.8367  -6.7304
    -6.6272  -6.6250  -6.5317  -6.4657  -6.3300  -6.2139  -6.1290  -6.0971
    -2.7169  -2.7012  -2.6258  -2.6125  -2.6060  -2.5814  -2.5716  -2.5611
    -2.4857  -2.4693  -2.3689  -2.3440  -2.3000  -2.2690  -2.0835  -2.0593
    -2.0080  -1.9875  -1.9762  -1.9343  -0.3818  -0.2715   0.1500   0.2595
     0.4409   0.6620   0.7841   0.8919   0.9943   1.1181   1.3109   1.3543
     1.4474   1.4796   1.5935   1.7053

          k = 0.5000 0.0962 0.0000 (109606 PWs)   bands (ev):

   -75.0840 -75.0840 -75.0598 -75.0598 -46.4822 -46.4822 -46.4644 -46.4644
   -46.4642 -46.4642 -46.4566 -46.4566 -46.4414 -46.4413 -46.4412 -46.4412
   -18.2711 -18.2053 -17.9475 -17.9100 -17.6889 -17.6600 -17.6199 -17.5449
   -17.4552 -17.4194 -17.3514 -17.3316  -9.7797  -9.7295  -9.3765  -9.2924
    -9.2575  -9.0481  -9.0077  -8.7906  -8.7372  -8.4730  -8.4469  -8.3942
    -8.2515  -8.1036  -7.8406  -7.7628  -7.6550  -7.6211  -7.4926  -7.4631
    -7.4106  -7.3576  -7.2228  -7.0362  -6.9635  -6.8387  -6.7864  -6.7400
    -6.6765  -6.6394  -6.5260  -6.4419  -6.3228  -6.2218  -6.1426  -6.0853
    -2.7183  -2.6913  -2.6406  -2.6103  -2.6042  -2.5911  -2.5754  -2.5383
    -2.4960  -2.4470  -2.4106  -2.3390  -2.2917  -2.2583  -2.0741  -2.0655
    -2.0133  -1.9960  -1.9655  -1.9353  -0.3849  -0.2689   0.1927   0.2106
     0.4200   0.7468   0.7866   0.8295   1.0160   1.1033   1.2908   1.4075
     1.4475   1.4702   1.5329   1.6565

          k =-0.3333-0.3849 0.0000 (109606 PWs)   bands (ev):

   -75.0840 -75.0840 -75.0598 -75.0598 -46.4822 -46.4822 -46.4644 -46.4644
   -46.4642 -46.4642 -46.4566 -46.4566 -46.4414 -46.4413 -46.4412 -46.4412
   -18.2713 -18.2050 -17.9499 -17.9073 -17.6925 -17.6563 -17.6198 -17.5465
   -17.4526 -17.4210 -17.3529 -17.3303  -9.7876  -9.7153  -9.4155  -9.2650
    -9.2413  -9.0600  -9.0066  -8.7767  -8.7394  -8.5197  -8.4531  -8.3482
    -8.2570  -8.0997  -7.8365  -7.7744  -7.6663  -7.5991  -7.5103  -7.4483
    -7.3982  -7.3788  -7.2203  -7.0224  -6.9475  -6.8622  -6.8367  -6.7304
    -6.6272  -6.6250  -6.5318  -6.4657  -6.3300  -6.2139  -6.1290  -6.0971
    -2.7169  -2.7012  -2.6258  -2.6125  -2.6060  -2.5814  -2.5716  -2.5611
    -2.4857  -2.4693  -2.3689  -2.3440  -2.3000  -2.2690  -2.0835  -2.0593
    -2.0080  -1.9875  -1.9762  -1.9343  -0.3818  -0.2715   0.1500   0.2595
     0.4409   0.6620   0.7841   0.8919   0.9943   1.1181   1.3109   1.3543
     1.4474   1.4796   1.5935   1.7053

          k = 0.5000-0.0962 0.0000 (109606 PWs)   bands (ev):

   -75.0840 -75.0840 -75.0598 -75.0598 -46.4822 -46.4822 -46.4644 -46.4644
   -46.4642 -46.4642 -46.4566 -46.4566 -46.4414 -46.4413 -46.4412 -46.4412
   -18.2713 -18.2050 -17.9499 -17.9073 -17.6925 -17.6563 -17.6198 -17.5465
   -17.4526 -17.4210 -17.3529 -17.3303  -9.7876  -9.7153  -9.4155  -9.2650
    -9.2413  -9.0600  -9.0066  -8.7767  -8.7394  -8.5197  -8.4531  -8.3481
    -8.2570  -8.0997  -7.8365  -7.7744  -7.6663  -7.5991  -7.5103  -7.4483
    -7.3982  -7.3788  -7.2203  -7.0224  -6.9475  -6.8622  -6.8367  -6.7304
    -6.6272  -6.6250  -6.5317  -6.4657  -6.3300  -6.2139  -6.1290  -6.0971
    -2.7169  -2.7012  -2.6258  -2.6125  -2.6060  -2.5814  -2.5716  -2.5611
    -2.4857  -2.4693  -2.3689  -2.3440  -2.3000  -2.2690  -2.0835  -2.0594
    -2.0080  -1.9875  -1.9762  -1.9343  -0.3818  -0.2715   0.1500   0.2595
     0.4409   0.6620   0.7841   0.8919   0.9943   1.1181   1.3109   1.3543
     1.4474   1.4796   1.5935   1.7053

     highest occupied, lowest unoccupied level (ev):    -5.6470   -4.5945

!    total energy              =   -5539.70357385 Ry
     total all-electron energy =     -5539.703574 Ry
     estimated scf accuracy    <          8.4E-12 Ry

     The total energy is the sum of the following terms:
     one-electron contribution =   -9587.47344462 Ry
     hartree contribution      =    4767.59892873 Ry
     xc contribution           =    -165.76071227 Ry
     ewald contribution        =    3989.39166454 Ry
     Hubbard energy            =       0.51271002 Ry
     one-center paw contrib.   =   -4543.97272024 Ry

     total magnetization       =    12.00 Bohr mag/cell
     absolute magnetization    =    16.76 Bohr mag/cell

     convergence has been achieved in  25 iterations

     negative rho (up, down):  2.694E-02 3.567E-02

     Forces acting on atoms (cartesian axes, Ry/au):

     atom    1 type  1   force =    -0.00000151    0.00000034   -0.00084456
     atom    2 type  1   force =     0.00000464    0.00000076    0.00001757
     atom    3 type  2   force =     0.01320355    0.00011989   -0.01988883
     atom    4 type  2   force =    -0.00649715   -0.01149407   -0.01988855
     atom    5 type  2   force =    -0.00670552    0.01137367   -0.01988681
     atom    6 type  2   force =    -0.01318508    0.00007940    0.02209666
     atom    7 type  2   force =     0.00666370    0.01137721    0.02209523
     atom    8 type  2   force =     0.00652181   -0.01145898    0.02209592
     atom    9 type  1   force =    -0.00000438    0.00000394   -0.00001533
     atom   10 type  1   force =     0.00000250   -0.00000406    0.00084973
     atom   11 type  2   force =     0.01318495   -0.00008520   -0.02209724
     atom   12 type  2   force =    -0.00666610   -0.01137614   -0.02209728
     atom   13 type  2   force =    -0.00651895    0.01146147   -0.02209652
     atom   14 type  2   force =    -0.01320351   -0.00012411    0.01988710
     atom   15 type  2   force =     0.00649250    0.01149675    0.01988643
     atom   16 type  2   force =     0.00670857   -0.01137088    0.01988648

     Total force =     0.085983     Total SCF correction =     0.000008


     Computing stress (Cartesian axis) and pressure


     negative rho (up, down):  2.694E-02 3.567E-02
          total   stress  (Ry/bohr**3)                   (kbar)     P=       19.20
   0.00013010  -0.00000000  -0.00000000           19.14       -0.00       -0.00
  -0.00000000   0.00013010  -0.00000000           -0.00       19.14       -0.00
  -0.00000000  -0.00000000   0.00013134           -0.00       -0.00       19.32


     Writing all to output data dir ./lt_fm_qe/lt_fm_qe.save/ :
     XML data file, charge density, pseudopotentials, collected wavefunctions

     init_run     :     42.74s CPU     43.71s WALL (       1 calls)
     electrons    :   1975.54s CPU   2048.04s WALL (       1 calls)
     forces       :     32.96s CPU     33.45s WALL (       1 calls)
     stress       :    205.74s CPU    208.39s WALL (       1 calls)

     Called by init_run:
     wfcinit      :     40.10s CPU     40.93s WALL (       1 calls)
     potinit      :      1.10s CPU      1.16s WALL (       1 calls)
     hinit0       :      0.91s CPU      0.92s WALL (       1 calls)

     Called by electrons:
     c_bands      :   1652.95s CPU   1714.50s WALL (      25 calls)
     sum_band     :    283.71s CPU    292.48s WALL (      25 calls)
     v_of_rho     :      5.74s CPU      5.87s WALL (      26 calls)
     newd         :      8.36s CPU      9.74s WALL (      26 calls)
     PAW_pot      :     22.31s CPU     22.53s WALL (      26 calls)
     mix_rho      :      2.88s CPU      2.96s WALL (      25 calls)

     Called by c_bands:
     init_us_2    :     24.67s CPU     25.09s WALL (    2240 calls)
     init_us_2:cp :     24.65s CPU     25.08s WALL (    2240 calls)
     cegterg      :   1597.36s CPU   1657.77s WALL (    1000 calls)

     Called by *egterg:
     cdiaghg      :    159.56s CPU    160.88s WALL (    4552 calls)
     h_psi        :   1058.12s CPU   1089.10s WALL (    4592 calls)
     s_psi        :     67.74s CPU     68.68s WALL (    4712 calls)
     g_psi        :      9.12s CPU      9.27s WALL (    3552 calls)

     Called by h_psi:
     h_psi:calbec :     75.51s CPU     77.38s WALL (    4592 calls)
     vloc_psi     :    825.10s CPU    840.48s WALL (    4592 calls)
     add_vuspsi   :     62.27s CPU     63.13s WALL (    4592 calls)
     vhpsi        :     79.52s CPU     80.85s WALL (    4592 calls)

     General routines
     calbec       :    200.59s CPU    204.34s WALL (   42664 calls)
     fft          :      4.93s CPU      5.12s WALL (     688 calls)
     ffts         :      0.34s CPU      0.37s WALL (     102 calls)
     fftw         :    755.53s CPU    770.58s WALL (  619312 calls)
     interpolate  :      0.55s CPU      0.61s WALL (      52 calls)

     Parallel routines

     Hubbard U routines
     new_ns       :     15.10s CPU     15.44s WALL (      25 calls)
     vhpsi        :     79.52s CPU     80.85s WALL (    4592 calls)
     force_hub    :     25.39s CPU     25.73s WALL (       1 calls)
                                        0.00s GPU  (       1 calls)
     stres_hub    :     75.80s CPU     76.69s WALL (       1 calls)
                                        0.00s GPU  (       1 calls)

     PWSCF        :  37m42.31s CPU  40m 4.20s WALL


   This run was terminated on:  17:53:40  15Oct2025            

=------------------------------------------------------------------------------=
   JOB DONE.
=------------------------------------------------------------------------------=
