 +---------------------------------------------------------------+
 |                                                               |
 |        ####### #     # ####### ####### ####### ######         |
 |        #     # ##    # #          #    #       #     #        |
 |        #     # # #   # #          #    #       #     #        |
 |        #     # #  #  # #####      #    #####   ######         |
 |        #     # #   # # #          #    #       #              |
 |        #     # #    ## #          #    #       #              |
 |        ####### #     # #######    #    ####### #              |
 |                                                               |
 |        Linear-Scaling Ab Initio Total Energy Program          |
 |                                                               |
 |          Release for academic collaborators of ODG            |
 |                                             Version 7.3.26    |
 | Remote: git@github.com:Miesaz/onetep_mea.git                  |
 | Local branch: master                                          |
 | Commit ID: 474b165149cd54f07116211190b13a046ee328b9           |
 | Date: Mon Dec 16 13:35:19 2024 +0000                          |
 |                                                               |
 +---------------------------------------------------------------+
 |                                                               |
 |  Authors:                                                     |
 |  Jacek Dziedzic, Peter D. Haynes, Nicholas D. M. Hine,        |
 |  Arash A. Mostofi, Mike C. Payne and Chris-Kriton Skylaris    |
 |                                                               |
 |  Contributors:                                                |
 |  J. Aarons, L. Andrinopoulos, P. W. Avraam, R. A. Bell,       |
 |  A. Bhandari, G. A. Bramley, R. J. Charlton, S. J. Clark,     |
 |  R. J. Clements, G. C. Constantinescu, F. Corsetti,           |
 |  N. Corsini, O. Dieguez, S. M. M. Dubois, K. K. B. Duff,      |
 |  J. M. Escartin, M. Escobar Azor, A. Greco,                   |
 |  H. Helal, Q. O. Hill, L. P. Lee, J.-H. Li,                   |
 |  T. Li, E. B. Linscott, G. Moynihan, D. D. O`Regan,           |
 |  O. K. Okan, E. Parkinson, M. J. S. Phipps,                   |
 |  C. J. Pickard, J. C. A. Prentice, M. I. J. Probert,          |
 |  L. E. Ratcliff, M. Robinson, A. Ruiz Serrano,                |
 |  M. dos Santos Dias, J. S. Spencer, E. W. Tait,               |
 |  G. Teobaldi, D. Turban, V. Vitale, K. A. Wilkinson,          |
 |  C. Weber, J. C. Womack, Chengcheng Xiao, N. Yeung,           |
 |  and T. J. Zuehlsdorff.                                       |
 |                                                               |
 |                                   Copyright (c) 2004-2024     |
 |                                                               |
 |  Please cite:                                                 |
 |  "The ONETEP linear-scaling density functional theory program"|
 |   J. Chem. Phys. 152(17) 174111 (2020)                        |
 |                                                               |
 |          in all publications arising from your use of ONETEP. |
 |                                                               |
 +---------------------------------------------------------------+
 |                                                               |
 |   ONETEP is based on developments described in the following  |
 |   publications:                                               |
 |                                                               |
 |  "Nonorthogonal generalized Wannier function pseudopotential  |
 |   plane-wave method".                                         |
 |   C.-K. Skylaris, A. A. Mostofi, P. D. Haynes, O. Dieguez,    |
 |   M. C. Payne.                                                |
 |   Phys. Rev. B 66 035119 (2002).                              |
 |                                                               |
 |  "Preconditioned iterative minimization for linear-scaling    |
 |   electronic structure calculations".                         |
 |   A. A. Mostofi, P. D. Haynes, C.-K. Skylaris, M. C. Payne.   |
 |   J. Chem. Phys. 119(17), pp.8842-8848 (2003).                |
 |                                                               |
 |  "Total-energy calculations on a real space grid with         |
 |   localized functions and a plane-wave basis".                |
 |   A. A. Mostofi, C.-K. Skylaris, P. D. Haynes, M. C. Payne.   |
 |   Comput. Phys. Commun. 147, pp.788-802 (2002).               |
 |                                                               |
 |  "Accurate kinetic energy evaluation in electronic structure  |
 |   calculations with localized functions on real space grids"  |
 |   C.-K. Skylaris, A. A. Mostofi, P. D. Haynes, C. J. Pickard, |
 |   M. C. Payne.                                                |
 |   Comput. Phys. Commun. 140, pp.315-322 (2001).               |
 |                                                               |
 |  "Accurate ionic forces and geometry optimization in linear-  |
 |   scaling density-functional theory with local orbitals"      |
 |   N. D. M. Hine, M. Robinson, P. D. Haynes, C.-K. Skylaris,   |
 |   M. C. Payne, and A. A. Mostofi.                             |
 |   Phys. Rev. B 83 195102 (2011).                              |
 |                                                               |
 +---------------------------------------------------------------+

Job started: 18-12-2025 19:31 (+0000)

Reading parameters from file "Co_cluster_1_sp-ngwfs_F_P0.dat" ...... done

If your calculation crashes here, before "Checking processes and threads..."
is displayed, then your stack size is insufficient.
If so, use "ulimit -s unlimited" at runtime.
You can disable this check with "check_stack_size F".

Checking processes and threads...
   Running with 7 MPI processes.
   There are 7 MPI processes running on the same node as the root process.
   Each MPI process is using: 
               1 threads for simulation cell FFTs.
               1 threads for threaded FFT box operations.
               3 threads for loops over batched FFT box operations.
               3 threads in other parallel regions.
   MPI Interface: S2 (use mpi) (-DMPI, no -DUSE_MPI_F08, no -DUSE_INCLUDE_MPIF).
   MPI_ASYNC_PROTECTS_NONBLOCKING:  No. MPI_SUBARRAYS_SUPPORTED:  No.
   FFTW Interface:  OMP-capable and DEPRECATED. (Use -DUSE_MODERN_FFTW to switch to modern).
   GPU Interface:   None.
   GPU FFT Backend: None.
   GPU DGEMM:       No (dense_threshold:   0.10).
   Number of GPU devices per node (OpenACC/CUDA/total): 0/0/0.
 WARNING in get_rundat: Comms group size is incompatible with number of procs
 WARNING in get_rundat: Overriding to comms_group_size : -1
   Number of comms groups: 1. Comms group size: 7.
... done

Basic input checks...
Resetting ngwf_cg_rotate to TRUE for EDFT calculations

WARNING: The number of FFT boxes in a batch is not a multiple of the number of
OpenMP threads. Consider changing fftbox_batch_size.
... done

Reading geometry and species blocks from file "Co_cluster_1_sp-ngwfs_F_P0.dat" ...... done


--------------------------------------------------------------------------------
---------------------------------- INPUT FILE ----------------------------------
--------------------------------------------------------------------------------

charge : 0 e                                                                    
comms_group_size : 8                                                            
cutoff_energy : 600 eV                                                          
delta_e_conv : F                                                                
do_properties : T                                                               
edft : T                                                                        
edft_maxit : 15                                                                 
edft_spin_fix : 0                                                               
fine_grid_scale : 4                                                             
forces_output_detail : VERBOSE                                                  
maxit_ngwf_cg : 100                                                             
ngwf_threshold_orig : 1e-06                                                     
ngwfs_spin_polarized : F                                                        
output_detail : BRIEF                                                           
paw : T                                                                         
pseudo_path : ..                                                                
read_denskern : F                                                               
read_hamiltonian : F                                                            
read_tightbox_ngwfs : F                                                         
spin : 39                                                                       
spin_polarized : T                                                              
task : SinglePoint                                                              
write_denskern : T                                                              
write_forces : T                                                                
write_hamiltonian : T                                                           
write_tightbox_ngwfs : T                                                        
xc_functional : PBE                                                             
%BLOCK LATTICE_CART                                                             
ang                                                                             
14.23456672       0.00000000       0.00000000                                   
0.00000000      14.23456672       0.00000000                                    
0.00000000       0.00000000      14.23456672                                    
%ENDBLOCK LATTICE_CART                                                          
%BLOCK POSITIONS_ABS                                                            
ang                                                                             
Co1 7.11725437806771 7.11725173218167 7.11725570101073                          
Co2 9.09289631526896 7.11733809390206 5.89725537471156                          
Co2 9.09280672556759 7.11734518487666 8.33735122628968                          
Co2 5.14153471531811 7.11732671659209 5.8971289542765                           
Co2 5.14166633227336 7.11733380756668 8.33744076307332                          
Co2 5.89725442219259 9.09289959616765 7.11733904642104                          
Co2 8.33735207297321 9.09281122357386 7.11734597864247                          
Co2 5.89713043597268 5.14153364108838 7.11732756327562                          
Co2 8.33743949304802 5.14166441665187 7.11733460133249                          
Co2 7.11733846432611 5.89725611555965 9.09289679152844                          
Co2 7.11734550238298 8.33735096170107 9.09281048272577                          
Co2 7.1173275103579 5.89712837218157 5.14153306957699                           
Co2 7.11733460133249 8.33744118641509 5.1416614532595                           
%ENDBLOCK POSITIONS_ABS                                                         
%BLOCK SPECIES                                                                  
Co1 Co 27 -1 10.0                                                               
Co2 Co 27 -1 10.0                                                               
%ENDBLOCK SPECIES                                                               
%BLOCK SPECIES_ATOMIC_SET                                                       
Co1 "SOLVE INIT SPIN=3"                                                         
Co2 "SOLVE INIT SPIN=3"                                                         
%ENDBLOCK SPECIES_ATOMIC_SET                                                    
%BLOCK SPECIES_LDOS_GROUPS                                                      
Co1                                                                             
Co2                                                                             
%ENDBLOCK SPECIES_LDOS_GROUPS                                                   
%BLOCK SPECIES_POT                                                              
Co1 Co.PBE-paw.abinit                                                           
Co2 Co.PBE-paw.abinit                                                           
%ENDBLOCK SPECIES_POT                                                           

--------------------------------------------------------------------------------
-------------------------------- END INPUT FILE --------------------------------
--------------------------------------------------------------------------------



<<<<<<<<<<<<<<<<<<<<<<<<<<<<<<<<< Full system >>>>>>>>>>>>>>>>>>>>>>>>>>>>>>>>>>
<<<<<<<<<<<<<<<<<<<<<<<<<<< PAW Dataset information >>>>>>>>>>>>>>>>>>>>>>>>>>>
File: Co.PBE-paw.abinit; rc = 2.11 bohr; shape type =  2; rshape = 1.60 bohr;
  Atomic number: 27;  ionic charge: 17.000000
    Partial Wave 1: l = 0
    Partial Wave 2: l = 0
    Partial Wave 3: l = 1
    Partial Wave 4: l = 1
    Partial Wave 5: l = 2
    Partial Wave 6: l = 2
  Core charge supplied for Nonlinear Core Corrections
<<<<<<<<<<<<<<<<<<<<<<<<<<<<<<<<<<<<<<< >>>>>>>>>>>>>>>>>>>>>>>>>>>>>>>>>>>>>>>

-------------------------- Atom counting information ---------------------------
Symbol    Natoms    Nngwfs    Nprojs
  Co        13       169       234
.......   ......    ......    ......
Totals:     13       169       234
--------------------------------------------------------------------------------

=============================== PSINC grid sizes ===============================
                      Simulation cell:   49 x  49 x  49
                              FFT-box:   49 x  49 x  49
                                  PPD:    7 x   7 x   1
================================================================================

Atom SCF Calculation for Co : Z (AE atom) =  27 : Z (PS atom) =  17
Config String: 3s2.0 3p6.0 3d7.0 4s2.0 4p0.0 INIT SPIN=3
Orbitals (num,occ):  5     2.00 6.00 7.00 2.00 0.00
Orbitals   (num,l):  5        0    1    2    0    1
Atom SCF converged after  37 iterations to a total energy of   -146.10251041
Adjusting orbital occupancies:
Orbitals (num,spin,occ):  5  1     1.00 3.00 5.00 1.00 0.00
Orbitals   (num,spin,l):  5  1        0    1    2    0    1
Orbitals (num,spin,occ):  5  2     1.00 3.00 3.00 0.00 0.00
Orbitals   (num,spin,l):  5  2        0    1    2    0    1

Atom SCF Calculation for Co : Z (AE atom) =  27 : Z (PS atom) =  17
Config String: 3s2.0 3p6.0 3d7.0 4s2.0 4p0.0 INIT SPIN=3
Orbitals (num,occ):  5     2.00 6.00 7.00 2.00 0.00
Orbitals   (num,l):  5        0    1    2    0    1
Atom SCF converged after  37 iterations to a total energy of   -146.10251041
Adjusting orbital occupancies:
Orbitals (num,spin,occ):  5  1     1.00 3.00 5.00 1.00 0.00
Orbitals   (num,spin,l):  5  1        0    1    2    0    1
Orbitals (num,spin,occ):  5  2     1.00 3.00 3.00 0.00 0.00
Orbitals   (num,spin,l):  5  2        0    1    2    0    1

WARNING: The number of FFT boxes in a batch is not a multiple of the number of
OpenMP threads. Consider changing fftbox_batch_size.
Calculating Ewald energy ...             1546.022822 Hartree

============================= Charge Augmentation ==============================
                           Aug box size:   33 x  33 x  33
================================================================================

================================= Core Density =================================
               Core den box size:   33 x  33 x  33
================================================================================
Density kernel initialisation

################################################################################
###################### NGWF self-consistent optimisation #######################
################################################################################
|ITER|    RMS GRADIENT   |     TOTAL ENERGY    |   step   |     Epredicted      
   0     0.00049336172047  -1901.93718353872896   0.475008  -1902.18454720098225        
   1     0.00027495764970  -1902.22940319021404   0.783995  -1902.35709899728795        
   2     0.00022075981803  -1902.32410597407488   0.603373  -1902.36588185702385        
   3     0.00012372535408  -1902.36021798820457   0.763322  -1902.38088346526820        
   4     0.00009560334661  -1902.37554345937656   0.340192  -1902.38219580234818        
   5     0.00004121104987  -1902.38321937270962   1.242148  -1902.38832736748054        
   6     0.00005398904625  -1902.38521773388402   0.566973  -1902.38628959161929        
   7     0.00005372644960  -1902.38453396498880   0.363376  -1902.38565377815121        
   8     0.00004691487586  -1902.38532161511921   0.924775  -1902.38967634755022        
   9     0.00004974717252  -1902.38856047074751   0.442483  -1902.39028371580571        
  10     0.00002285995796  -1902.39000846464137   0.384584  -1902.39038584765694        
  11     0.00001438345731  -1902.39045075290119   0.644226  -1902.39077194783408        
  12     0.00001281591986  -1902.39068443141173   0.301579  -1902.39079040670663        
  13     0.00000571372868  -1902.39080904529010   0.852167  -1902.39087825991123        
  14     0.00000720718490  -1902.39086054917811   5.153468  -1902.39123852845819        
  15     0.00005096052996  -1902.38603827489715   0.464532  -1902.38861927041739        
  16     0.00003018391634  -1902.38879074983083   0.606687  -1902.39003767267945        
  17     0.00001632999618  -1902.38988534679311   0.388600  -1902.39007600957439        
  18     0.00000507663905  -1902.39007304207030   0.246631  -1902.39008664098060        
  19     0.00000614532680  -1902.39008701713760   0.045914  -1902.39009111297241        

================================================================================
           ---------------- ENERGY COMPONENTS (Eh) ----------------
           | Kinetic                    :      152.87366073584263 |
           | Core Hartree               :    -7002.11926741610478 |
           | CoreHart (non-coul chg cor):        0.00000000000000
           | Hartree                    :     3106.95283227406799 |
           | Exchange-correlation       :      -39.82689045553632 |
           | Ewald                      :     1546.02282206798623 |
           | Dij0                       :      418.69438035932615 |
           | Dijhartree                 :      105.00128417767851 |
           | Exc [AE core]              :     -769.02677999244975 |
           | Exc DC [AE core]           :     -275.66980670709410 |
           | Exc [PS core]              :      -33.72583107648354 |
           | Exc DC [PS core]           :      -44.19895031697930 |
           | Exc [Core]                 :     -545.34952823147160 |
           | Total [Sphere]             :      333.74424385251001 |
           | Total                      :    -1902.35259894123419 |
           |------------------------------------------------------|
           | Entropic contribution      :       -0.03749257150480 |
           | Total free energy          :    -1902.39009151273899 |
           --------------------------------------------------------
           Integrated compensation chrg.:      130.61286393342505
           Integrated density           :      221.00000000021760
           Integrated spin density      :       27.76388663424123
           Integrated |spin density|    :       10.68817271087338
           Fermi level of spin Up       :       -0.09951038202945
           Fermi level of spin Down     :       -0.09951038202945
================================================================================

  20     0.00000095697318  -1902.39009151273899  <-- CG                                 

======================== Writing density and potential =========================
Writing "Co_cluster_1_sp-ngwfs_F_P0_ps_density.cube" ... done
Writing "Co_cluster_1_sp-ngwfs_F_P0_ps_spindensity.cube" ... done
Writing "Co_cluster_1_sp-ngwfs_F_P0_ae_density.cube" ... done
Writing "Co_cluster_1_sp-ngwfs_F_P0_ae_spindensity.cube" ... done
Writing "Co_cluster_1_sp-ngwfs_F_P0_potential.cube" ... done
Writing "Co_cluster_1_sp-ngwfs_F_P0_electrostatic_potential.cube" ... done
================================================================================

    Mulliken Atomic Populations
    ---------------------------
Species  Ion    Total   Charge (e)    Spin (hbar)
=================================================
  Co     1      18.213     -1.213      0.71
  Co     2      16.899      0.101      1.10
  Co     3      16.899      0.101      1.10
  Co     4      16.899      0.101      1.10
  Co     5      16.899      0.101      1.10
  Co     6      16.899      0.101      1.10
  Co     7      16.899      0.101      1.10
  Co     8      16.899      0.101      1.10
  Co     9      16.899      0.101      1.10
  Co    10      16.899      0.101      1.10
  Co    11      16.899      0.101      1.10
  Co    12      16.899      0.101      1.10
  Co    13      16.899      0.101      1.10
=================================================

        Bond         Population      Spin       Length (bohr)
=============================================================
 Co    1 -- Co    3       -0.07      0.04      4.38784
 Co    1 -- Co   11       -0.07      0.04      4.38785
 Co    1 -- Co    7       -0.07      0.04      4.38786
 Co    1 -- Co   10       -0.07      0.04      4.38789
 Co    1 -- Co    2       -0.07      0.04      4.38789
 Co    1 -- Co    6       -0.07      0.04      4.38790
 Co    1 -- Co    9       -0.07      0.04      4.38799
 Co    1 -- Co    5       -0.07      0.04      4.38799
 Co    1 -- Co   13       -0.07      0.04      4.38801
 Co    1 -- Co    8       -0.07      0.04      4.38814
 Co    1 -- Co    4       -0.07      0.04      4.38814
 Co    1 -- Co   12       -0.07      0.04      4.38815
 Co   10 -- Co   11        0.28      0.00      4.61111
 Co    2 -- Co    3        0.28      0.00      4.61111
 Co    6 -- Co    7        0.28      0.00      4.61112
 Co    8 -- Co    9        0.28      0.00      4.61152
 Co    4 -- Co    5        0.28      0.00      4.61152
 Co   12 -- Co   13        0.28      0.00      4.61152
 Co    3 -- Co   11        0.26      0.01      4.61402
 Co    3 -- Co    7        0.26      0.01      4.61403
 Co    7 -- Co   11        0.26      0.01      4.61403
 Co    3 -- Co   10        0.26      0.01      4.61416
 Co    2 -- Co    7        0.26      0.01      4.61417
 Co    6 -- Co   11        0.26      0.01      4.61417
 Co    5 -- Co   11        0.26      0.01      4.61431
 Co    3 -- Co    9        0.26      0.01      4.61431
 Co    7 -- Co   13        0.26      0.01      4.61432
 Co    9 -- Co   10        0.26      0.01      4.61434
 Co    2 -- Co   13        0.26      0.01      4.61435
 Co    5 -- Co    6        0.26      0.01      4.61435
 Co    5 -- Co   10        0.26      0.01      4.61441
 Co    2 -- Co    9        0.26      0.01      4.61441
 Co    6 -- Co   13        0.26      0.01      4.61442
 Co    8 -- Co   10        0.26      0.01      4.61453
 Co    2 -- Co   12        0.26      0.01      4.61453
 Co    4 -- Co    6        0.26      0.01      4.61454
 Co    5 -- Co    8        0.26      0.01      4.61464
 Co    9 -- Co   12        0.26      0.01      4.61464
 Co    4 -- Co   13        0.26      0.01      4.61465
 Co    4 -- Co   12        0.26      0.01      4.61479
 Co    4 -- Co    8        0.26      0.01      4.61479
 Co    8 -- Co   12        0.26      0.01      4.61479
=============================================================


============== Orbital energy and occupancy information for spin 1 =============

      Total number of orbitals:     169
        Occupancy sum (kernel):     124.381943317
   Occupancy sum (eigenvalues):     124.381943317
                 HOMO-LUMO gap:       0.019274808 Eh
                 Mid-gap level:      -0.091812719 Eh

                        Orbital | Energy (Eh) | Occupancy
                            1    -3.650276404   1.0000000
                        .......   ...........   .........
                          117    -0.146280683   0.9999992
                          118    -0.146280516   0.9999992
                          119    -0.136048917   0.9999913
                          120    -0.136048866   0.9999913
                          121    -0.136048198   0.9999910
                          122    -0.101528654   0.6786496
                          123    -0.101528548   0.6786426
                          124    -0.101450579   0.6733807
                          125    -0.101450207   0.6733585
                          126    -0.101450123   0.6733525
                        ....... -- gap at 0K -- .........
                          127    -0.082175315   0.0045894
                          128    -0.008977895   0.0000005
                          129    -0.008977828   0.0000005
                          130    -0.008977455   0.0000005
                          131    -0.008838697   0.0000005
                          132    -0.007790262   0.0000003
                          133    -0.007788479   0.0000004
                          134    -0.007788397   0.0000004
                          135    -0.006103264   0.0000003
                          136    -0.006103156   0.0000003
                        .......   ...........   .........
                          169     0.312320714   0.0000000

================================================================================

============== Orbital energy and occupancy information for spin 2 =============

      Total number of orbitals:     169
        Occupancy sum (kernel):      96.618056683
   Occupancy sum (eigenvalues):      96.618056683
                 HOMO-LUMO gap:       0.000000072 Eh
                 Mid-gap level:      -0.096862459 Eh

                        Orbital | Energy (Eh) | Occupancy
                            1    -3.577816240   1.0000000
                        .......   ...........   .........
                           87    -0.116428135   0.9956835
                           88    -0.116424790   0.9956768
                           89    -0.116424688   0.9956767
                           90    -0.116409156   0.9956579
                           91    -0.116409022   0.9956577
                           92    -0.103786578   0.8103337
                           93    -0.103786551   0.8103329
                           94    -0.103786374   0.8103439
                           95    -0.096863379   0.3223679
                           96    -0.096862495   0.3224372
                        ....... -- gap at 0K -- .........
                           97    -0.096862423   0.3224336
                           98    -0.096818757   0.3194989
                           99    -0.096244665   0.2816035
                          100    -0.096082188   0.2710825
                          101    -0.096082179   0.2710804
                          102    -0.096082032   0.2711024
                          103    -0.095788724   0.2510418
                          104    -0.095788686   0.2510393
                          105    -0.095787950   0.2510377
                          106    -0.084800710   0.0105255
                        .......   ...........   .........
                          169     0.339050848   0.0000000

================================================================================

===================== Writing canonical molecular orbitals =====================
    Spin 1
| Orbital  Energy (eV)  Norm     |
| HOMO-5   -3.70205985  1.000000 | Writing "Co_cluster_1_sp-ngwfs_F_P0_HOMO-5_UP.cube" ... done
| HOMO-4   -2.76273526  1.000000 | Writing "Co_cluster_1_sp-ngwfs_F_P0_HOMO-4_UP.cube" ... done
| HOMO-3   -2.76273237  1.000000 | Writing "Co_cluster_1_sp-ngwfs_F_P0_HOMO-3_UP.cube" ... done
| HOMO-2   -2.76061072  1.000000 | Writing "Co_cluster_1_sp-ngwfs_F_P0_HOMO-2_UP.cube" ... done
| HOMO-1   -2.76060060  1.000000 | Writing "Co_cluster_1_sp-ngwfs_F_P0_HOMO-1_UP.cube" ... done
| HOMO     -2.76059832  1.000000 | Writing "Co_cluster_1_sp-ngwfs_F_P0_HOMO_UP.cube" ... done
| LUMO     -2.23610411  1.000000 | Writing "Co_cluster_1_sp-ngwfs_F_P0_LUMO_UP.cube" ... done
| LUMO+1   -0.24430095  1.000000 | Writing "Co_cluster_1_sp-ngwfs_F_P0_LUMO+1_UP.cube" ... done
| LUMO+2   -0.24429914  1.000000 | Writing "Co_cluster_1_sp-ngwfs_F_P0_LUMO+2_UP.cube" ... done
| LUMO+3   -0.24428898  1.000000 | Writing "Co_cluster_1_sp-ngwfs_F_P0_LUMO+3_UP.cube" ... done
| LUMO+4   -0.24051319  1.000000 | Writing "Co_cluster_1_sp-ngwfs_F_P0_LUMO+4_UP.cube" ... done
| LUMO+5   -0.21198382  1.000000 | Writing "Co_cluster_1_sp-ngwfs_F_P0_LUMO+5_UP.cube" ... done
================================================================================

===================== Writing canonical molecular orbitals =====================
    Spin 2
| Orbital  Energy (eV)  Norm     |
| HOMO-5   -3.16765066  1.000000 | Writing "Co_cluster_1_sp-ngwfs_F_P0_HOMO-5_DN.cube" ... done
| HOMO-4   -2.82417650  1.000000 | Writing "Co_cluster_1_sp-ngwfs_F_P0_HOMO-4_DN.cube" ... done
| HOMO-3   -2.82417575  1.000000 | Writing "Co_cluster_1_sp-ngwfs_F_P0_HOMO-3_DN.cube" ... done
| HOMO-2   -2.82417095  1.000000 | Writing "Co_cluster_1_sp-ngwfs_F_P0_HOMO-2_DN.cube" ... done
| HOMO-1   -2.63578667  1.000000 | Writing "Co_cluster_1_sp-ngwfs_F_P0_HOMO-1_DN.cube" ... done
| HOMO     -2.63576261  1.000000 | Writing "Co_cluster_1_sp-ngwfs_F_P0_HOMO_DN.cube" ... done
| LUMO     -2.63576065  1.000000 | Writing "Co_cluster_1_sp-ngwfs_F_P0_LUMO_DN.cube" ... done
| LUMO+1   -2.63457243  1.000000 | Writing "Co_cluster_1_sp-ngwfs_F_P0_LUMO+1_DN.cube" ... done
| LUMO+2   -2.61895060  1.000000 | Writing "Co_cluster_1_sp-ngwfs_F_P0_LUMO+2_DN.cube" ... done
| LUMO+3   -2.61452936  1.000000 | Writing "Co_cluster_1_sp-ngwfs_F_P0_LUMO+3_DN.cube" ... done
| LUMO+4   -2.61452912  1.000000 | Writing "Co_cluster_1_sp-ngwfs_F_P0_LUMO+4_DN.cube" ... done
| LUMO+5   -2.61452512  1.000000 | Writing "Co_cluster_1_sp-ngwfs_F_P0_LUMO+5_DN.cube" ... done
================================================================================

================== Local Density of States (LDOS) calculation ==================
Writing "Co_cluster_1_sp-ngwfs_F_P0_UP_LDOS.txt" ...  done
================================================================================

================== Local Density of States (LDOS) calculation ==================
Writing "Co_cluster_1_sp-ngwfs_F_P0_DN_LDOS.txt" ...  done
================================================================================
 
=============== Density of States (DOS) calculation for UP spin ================
Writing "Co_cluster_1_sp-ngwfs_F_P0_UP_DOS.txt" ...  done
================================================================================
 
============== Density of States (DOS) calculation for DOWN spin ===============
Writing "Co_cluster_1_sp-ngwfs_F_P0_DN_DOS.txt" ...  done
================================================================================
 
Writing bands to file "Co_cluster_1_sp-ngwfs_F_P0.val_bands" ... done

================================= Core Density =================================
               Core den box size:   33 x  33 x  33
================================================================================
 
********************* Unconstrained **********************
********************** Ewald forces **********************
*                                                        *
* Element  Atom         Cartesian components (Eh/a)      *
* ------------------------------------------------------ *
*                       x            y            z      *
*                                                        *
*    Co      1     -0.00688871  -0.00675583  -0.00695042 *
*    Co      2     61.99669329  -0.00053593 -38.46726875 *
*    Co      3     61.99939696  -0.00056266  38.46788006 *
*    Co      4    -61.99270003  -0.00050957 -38.46438296 *
*    Co      5    -61.99577037  -0.00053836  38.46531902 *
*    Co      6    -38.46721651  61.99663065  -0.00058858 *
*    Co      7     38.46781448  61.99928680  -0.00061045 *
*    Co      8    -38.46443547 -61.99276476  -0.00055608 *
*    Co      9     38.46537737 -61.99577455  -0.00057726 *
*    Co     10     -0.00056971 -38.46730837  61.99677944 *
*    Co     11     -0.00059575  38.46790598  61.99931767 *
*    Co     12     -0.00053941 -38.46436612 -61.99273037 *
*    Co     13     -0.00056613  38.46529272 -61.99563132 *
*                                                        *
**********************************************************
TOTAL:             -0.00000000   0.00000000   0.00000000
 
********************* Unconstrained **********************
***************** Local potential forces *****************
*                                                        *
* Element  Atom         Cartesian components (Eh/a)      *
* ------------------------------------------------------ *
*                       x            y            z      *
*                                                        *
*    Co      1      0.00736672   0.00722935   0.00743030 *
*    Co      2    -62.13028663   0.00082927  38.55044342 *
*    Co      3    -62.13318468   0.00085837 -38.55057208 *
*    Co      4     62.12656307   0.00080008  38.54735973 *
*    Co      5     62.12982848   0.00083121 -38.54781716 *
*    Co      6     38.55038660 -62.13022669   0.00088988 *
*    Co      7    -38.55050841 -62.13307764   0.00091388 *
*    Co      8     38.54740942  62.12662419   0.00085386 *
*    Co      9    -38.54787835  62.12982896   0.00087717 *
*    Co     10      0.00086775  38.55047623 -62.13037043 *
*    Co     11      0.00089588 -38.55060481 -62.13310150 *
*    Co     12      0.00083442  38.54733552  62.12659652 *
*    Co     13      0.00086322 -38.54779769  62.12969102 *
*                                                        *
**********************************************************
TOTAL:              0.00315749   0.00310636   0.00319462
 
********************* Unconstrained **********************
************** Compensation density forces ***************
*                                                        *
* Element  Atom         Cartesian components (Eh/a)      *
* ------------------------------------------------------ *
*                       x            y            z      *
*                                                        *
*    Co      1     -0.00017002  -0.00016983  -0.00016939 *
*    Co      2      0.00235631  -0.00011152  -0.00088296 *
*    Co      3      0.00238910  -0.00011282   0.00066158 *
*    Co      4     -0.00253127  -0.00010976  -0.00084152 *
*    Co      5     -0.00256537  -0.00011105   0.00062312 *
*    Co      6     -0.00088191   0.00235828  -0.00011461 *
*    Co      7      0.00066322   0.00239202  -0.00011583 *
*    Co      8     -0.00084006  -0.00252887  -0.00011254 *
*    Co      9      0.00062407  -0.00256377  -0.00011373 *
*    Co     10     -0.00011357  -0.00087927   0.00235448 *
*    Co     11     -0.00011466   0.00066416   0.00238842 *
*    Co     12     -0.00011162  -0.00083832  -0.00253241 *
*    Co     13     -0.00011270   0.00062649  -0.00256787 *
*                                                        *
**********************************************************
TOTAL:             -0.00140847  -0.00138425  -0.00142327
 
********************* Unconstrained **********************
*************** Non-local potential forces ***************
*                                                        *
* Element  Atom         Cartesian components (Eh/a)      *
* ------------------------------------------------------ *
*                       x            y            z      *
*                                                        *
*    Co      1     -0.00015545  -0.00015121  -0.00015851 *
*    Co      2      0.12951979  -0.00007326  -0.08197523 *
*    Co      3      0.12958697  -0.00007256   0.08187497 *
*    Co      4     -0.12955371  -0.00007447  -0.08190834 *
*    Co      5     -0.12962466  -0.00007378   0.08180858 *
*    Co      6     -0.08197360   0.12952016  -0.00007574 *
*    Co      7      0.08187482   0.12958635  -0.00007506 *
*    Co      8     -0.08190833  -0.12955375  -0.00007709 *
*    Co      9      0.08181028  -0.12962376  -0.00007645 *
*    Co     10     -0.00007458  -0.08197415   0.12952012 *
*    Co     11     -0.00007402   0.08187742   0.12958480 *
*    Co     12     -0.00007591  -0.08190635  -0.12955484 *
*    Co     13     -0.00007539   0.08181014  -0.12962329 *
*                                                        *
**********************************************************
TOTAL:             -0.00072379  -0.00070922  -0.00073608
 
********************* Unconstrained **********************
************ NGWF non self-consistent forces *************
*                                                        *
* Element  Atom         Cartesian components (Eh/a)      *
* ------------------------------------------------------ *
*                       x            y            z      *
*                                                        *
*    Co      1     -0.00003051  -0.00003131  -0.00002937 *
*    Co      2      0.00129181  -0.00002606  -0.00022743 *
*    Co      3      0.00133857  -0.00002763   0.00020149 *
*    Co      4     -0.00126225  -0.00002403  -0.00017679 *
*    Co      5     -0.00130949  -0.00002558   0.00015404 *
*    Co      6     -0.00022701   0.00129159  -0.00002634 *
*    Co      7      0.00020172   0.00133892  -0.00002777 *
*    Co      8     -0.00017648  -0.00126218  -0.00002385 *
*    Co      9      0.00015397  -0.00130980  -0.00002525 *
*    Co     10     -0.00002622  -0.00022712   0.00129164 *
*    Co     11     -0.00002751   0.00020122   0.00133872 *
*    Co     12     -0.00002396  -0.00017657  -0.00126256 *
*    Co     13     -0.00002522   0.00015414  -0.00131009 *
*                                                        *
**********************************************************
TOTAL:             -0.00012258  -0.00012442  -0.00012355
 
********************* Unconstrained **********************
********************** NLCC forces ***********************
*                                                        *
* Element  Atom         Cartesian components (Eh/a)      *
* ------------------------------------------------------ *
*                       x            y            z      *
*                                                        *
*    Co      1      0.00000000   0.00000000   0.00000000 *
*    Co      2     -0.00000000   0.00000000   0.00000000 *
*    Co      3     -0.00000000   0.00000000  -0.00000000 *
*    Co      4      0.00000000   0.00000000   0.00000000 *
*    Co      5      0.00000000   0.00000000  -0.00000000 *
*    Co      6      0.00000000  -0.00000000   0.00000000 *
*    Co      7     -0.00000000  -0.00000000   0.00000000 *
*    Co      8      0.00000000   0.00000000   0.00000000 *
*    Co      9     -0.00000000   0.00000000   0.00000000 *
*    Co     10      0.00000000   0.00000000  -0.00000000 *
*    Co     11      0.00000000  -0.00000000  -0.00000000 *
*    Co     12      0.00000000   0.00000000   0.00000000 *
*    Co     13      0.00000000  -0.00000000   0.00000000 *
*                                                        *
**********************************************************
TOTAL:             -0.00000000  -0.00000000  -0.00000000
 
********************* Unconstrained **********************
****** Correction to ensure the total force is zero ******
*                                                        *
* Element  Atom         Cartesian components (Eh/a)      *
* ------------------------------------------------------ *
*                       x            y            z      *
*                                                        *
*    Co      1     -0.00006943  -0.00006834  -0.00007013 *
*    Co      2     -0.00006943  -0.00006834  -0.00007013 *
*    Co      3     -0.00006943  -0.00006834  -0.00007013 *
*    Co      4     -0.00006943  -0.00006834  -0.00007013 *
*    Co      5     -0.00006943  -0.00006834  -0.00007013 *
*    Co      6     -0.00006943  -0.00006834  -0.00007013 *
*    Co      7     -0.00006943  -0.00006834  -0.00007013 *
*    Co      8     -0.00006943  -0.00006834  -0.00007013 *
*    Co      9     -0.00006943  -0.00006834  -0.00007013 *
*    Co     10     -0.00006943  -0.00006834  -0.00007013 *
*    Co     11     -0.00006943  -0.00006834  -0.00007013 *
*    Co     12     -0.00006943  -0.00006834  -0.00007013 *
*    Co     13     -0.00006943  -0.00006834  -0.00007013 *
*                                                        *
**********************************************************
TOTAL:             -0.00090265  -0.00088846  -0.00091172

********************* Unconstrained **********************
************************* Forces *************************
*                                                        *
* Element  Atom         Cartesian components (Eh/a)      *
* ------------------------------------------------------ *
*                       x            y            z      *
*                                                        *
*    Co      1      0.00005261   0.00005282   0.00005247 *
*    Co      2     -0.00049486   0.00001416   0.00001892 *
*    Co      3     -0.00054251   0.00001435  -0.00002411 *
*    Co      4      0.00044638   0.00001390  -0.00002001 *
*    Co      5      0.00048915   0.00001409   0.00001748 *
*    Co      6      0.00001813  -0.00049435   0.00001447 *
*    Co      7     -0.00002360  -0.00054189   0.00001464 *
*    Co      8     -0.00002036   0.00044629   0.00001417 *
*    Co      9      0.00001790   0.00048873   0.00001434 *
*    Co     10      0.00001424   0.00001898  -0.00049488 *
*    Co     11      0.00001451  -0.00002437  -0.00054202 *
*    Co     12      0.00001407  -0.00002018   0.00044622 *
*    Co     13      0.00001434   0.00001746   0.00048831 *
*                                                        *
**********************************************************
* TOTAL:            0.00000000  -0.00000000   0.00000000 *
**********************************************************
 
 
***********************************************************
********** Summary of Forces (values in Eh/a) *************
*                                                         *
* ---------------------- Minimum ------------------------ *
* Atom:         1, |F|min =    0.00009117                 *
* Components:     Fx|min       Fy|min       Fz|min        *
*               0.00005261   0.00005282   0.00005247      *
*                                                         *
* ---------------------- Maximum ------------------------ *
* Atom:         3, |F|max =    0.00054323                 *
* Components:     Fx|max       Fy|max       Fz|max        *
*              -0.00054251   0.00001435  -0.00002411      *
*                                                         *
* ---------------- Root Mean Square Force --------------- *
*                  |F|rms =    0.00047602                 *
* Components:     Fx|rms       Fy|rms       Fz|rms        *
*               0.00027497   0.00027475   0.00027477      *
***********************************************************
 

------------------------------ TIMING INFORMATION ------------------------------
AVERAGE TIME:    8110.634s on      7 proc(s)                                    
TOTAL TIME:      8110.634s on      7 proc(s)                                    
==================== AVERAGE TIMINGS FROM ALL PROCS (CUMULATIVE) =====================
|| TAG                                         #calls     cpu time   %total  Gflops ||
|| hash_table_free                            :    41        0.00s   0.000%  ------ ||
|| ewald_calculate_forces_realspace           :     1        0.00s   0.000%  ------ ||
|| onetep.F90 final imbalance                 :     1        0.00s   0.000%  ------ ||
|| onetep.F90 main loop imbalance             :     1        0.00s   0.000%  ------ ||
|| ewald_calculate_forces_recipspace          :     1        0.00s   0.000%  ------ ||
|| ewald_calculate_energy                     :     1        0.00s   0.000%  ------ ||
|| ewald_calculate_forces                     :     1        0.00s   0.000%  ------ ||
|| sparse_set_to_garbage                      :   363        0.00s   0.000%  ------ ||
|| sw_bessel_init_cpu                         :     1        0.06s   0.001%  ------ || (1 procs only)
|| density_fftbox_interp_mult_imbal           : 47268        0.01s   0.000%  ------ ||
|| sparse_init                                :     1        0.01s   0.000%  ------ ||
|| paw_tcore_density                          :     1        0.01s   0.000%  ------ ||
|| pseudo_make_structure_factor               :     1        0.03s   0.000%  ------ ||
|| linalg_dgemv                               :    64        0.03s   0.000%  ------ ||
|| paw_tcore_hartree_on_grid                  :     1        0.05s   0.001%  ------ ||
|| sparse_blacstospam3_real_fast_imbal        :  3552        0.09s   0.001%  ------ ||
|| basis_extract_function_from_box            :  2028        0.12s   0.001%  ------ ||
|| augmentation_density_forces                :     1        0.12s   0.001%  ------ ||
|| sw_init                                    :  1817        0.14s   0.002%  ------ ||
|| integrals_grad_spam3                       :     1        0.16s   0.002%  ------ ||
|| nonsc_forces_ngwfs_calc                    :     1        0.16s   0.002%  ------ ||
|| paw_tcore_hartree_calc_forces              :     1        0.19s   0.002%  ------ ||
|| paw_sphere_density_on_grid                 :     1        0.26s   0.003%  ------ ||
|| sparse_embed_array_hotelling_invert        :    41        0.31s   0.004%  ------ ||
|| sparse_spam3toblacs_real_fast_imbal        :  3576        0.42s   0.005%  ------ ||
|| sparse_spam3toblacs_real_fast_B2           : 25032        0.55s   0.007%  ------ ||
|| paw_dij_hartree                            :  1215        0.72s   0.009%  ------ ||
|| ngwfs_initialise_from_radial               :     1        0.78s   0.010%  ------ ||
|| sparse_spam3toblacs_real_fast_B1           : 25032        0.79s   0.010%  ------ ||
|| paw_nlcc_calculate_forces                  :     1        0.83s   0.010%  ------ ||
|| paw_dataset_init                           :     1        1.65s   0.020%  ------ ||
|| projectors_func_grad_ovlp_box_spam3        :     3        1.67s   0.021%  ------ ||
|| density_init_guess_real                    :     2        1.91s   0.024%  ------ ||
|| aug_nl_calculate_forces                    :     1        2.17s   0.027%  ------ ||
|| sparse_spam3toblacs_real_fast              :  3576        2.94s   0.036%  ------ ||
|| fourier_apply_box_pair                     :  2538        3.08s   0.038%  57.169 ||
|| eigenstates_calculate                      :     1        3.35s   0.041%  ------ ||
|| sparse_trace                               : 22588        3.56s   0.044%  ------ ||
|| hamiltonian_energy_components              :     1        4.04s   0.050%  ------ ||
|| sparse_blacstospam3_real_fast              :  3552        4.25s   0.052%  ------ ||
|| paw_species_calc_proj_prec_mat             :    21        4.27s   0.053%  ------ ||
|| energy_and_force_init_cell                 :     1        6.92s   0.085%  ------ ||
|| projectors_init_fftbox_recip               :   233        8.28s   0.102%  ------ ||
|| restart_hamiltonian_write                  :    21        8.72s   0.107%  ------ ||
|| function_ops_brappd_ketppd_spam3           :    81        8.80s   0.109%  ------ ||
|| integrals_kinetic_spam3                    :    41        9.19s   0.113%  ------ ||
|| forces_calculate                           :     1        9.23s   0.114%  ------ ||
|| ngwf_gradient_coeffs                       :    21        9.80s   0.121%  ------ ||
|| cell_grid_extract_box_real                 : 19784       10.03s   0.124%  ------ ||
|| dense_eigensolve                           :  1726       16.04s   0.198%  ------ ||
|| basis_copy_function_to_box                 : 59922       16.95s   0.209%  ------ ||
|| edft_diag_ngwf_ham                         :  1724       18.89s   0.233%  ------ ||
|| projectors_func_ovlp_box_spam3             :    41       21.42s   0.264%  ------ ||
|| sparse_product                             : 19786       24.61s   0.303%  ------ ||
|| fourier_filter_cell                        :   620       27.67s   0.341%  10.762 ||
|| edft_apply_smearing_operator               :   862       39.16s   0.483%  ------ ||
|| density_fftbox_deposit_to_cell             : 47268       43.10s   0.531%  ------ ||
|| restart_kernel_write                       :    22       46.54s   0.574%  ------ ||
|| cell_grid_deposit_box_real                 : 51542       46.69s   0.576%  ------ ||
|| properties_calculate                       :     1       59.38s   0.732%  ------ ||
|| hartree_on_grid_single                     :   908       64.87s   0.800%  ------ ||
|| augmentation_screen_dij_spam3              :   907       89.96s   1.109%  ------ ||
|| projectors_grad_precond_batch              :    84       96.31s   1.187%  ------ ||
|| basis_dot_function_with_box                : 2.692M      98.89s   1.219%  ------ ||
|| fourier_interpolate_cell                   :  1818       99.74s   1.230%   8.754 ||
|| projectors_gradient_batch                  :    84      102.13s   1.259%  ------ ||
|| aug_density_on_grid_spam3                  :   909      227.69s   2.807%  ------ ||
|| fourier_apply_cell_backward                :  8173      231.86s   2.859%  15.261 ||
|| integrals_locpot_mat_els_batch             :  1156      234.30s   2.889%  ------ ||
|| ngwf_gradient_build_batch                  :    84      243.93s   3.008%  ------ ||
|| fourier_apply_cell_forward                 :  8173      293.26s   3.616%  12.066 ||
|| potential_apply_to_ngwf_batch              :  1156      311.39s   3.839%  ------ ||
|| basis_add_function_to_box                  : 8.103M     374.93s   4.623%  ------ ||
|| ngwf_gradient_batch                        :    84      408.19s   5.033%  ------ ||
|| ngwf_gradient_lnv                          :    21      432.94s   5.338%  ------ ||
|| fourier_apply_box                          : 143.9k     499.44s   6.158%  88.430 ||
|| aug_nonlocal_mat_spam3_embed_array         :  1193      530.55s   6.541%  ------ ||
|| paw_dij_xc                                 :  1215      532.49s   6.565%  ------ ||
|| integrals_locpot_dbl_grid                  :   578      547.25s   6.747%  ------ ||
|| density_batch_row_sums                     :  3636      639.48s   7.884%  ------ ||
|| xc_energy_potential                        :   908      718.22s   8.855%  ------ ||
|| density_fftbox_interpolate_multiply        : 47268      803.58s   9.908%  ------ ||
|| density_batch_interp_deposit               :  3636      953.60s  11.757%  ------ ||
|| density_on_dbl_grid                        :  1818     1713.73s  21.129%  ------ ||
|| hamiltonian_lhxc_calculate                 :   905     3131.22s  38.606%  ------ ||
|| restart_ngwfs_tightbox_output              :    20     3206.02s  39.529%  ------ ||
|| edft_calculate                             :    21     4252.90s  52.436%  ------ ||
|| ngwf_cg_optimise                           :     1     8026.16s  98.958%  ------ ||
|| energy_and_forces                          :     1     8103.17s  99.908%  ------ ||
|| total_time                                 :     1     8110.63s 100.000%  ------ ||
======================================================================================
Overhead of generating timer report: 
- 0 ms averaging over threads,
- 0 ms ensuring consistency across MPI ranks,
- 1 ms printing in order.

Job completed: 18-12-2025 21:46 (+0000)

