 +---------------------------------------------------------------+
 |                                                               |
 |        ####### #     # ####### ####### ####### ######         |
 |        #     # ##    # #          #    #       #     #        |
 |        #     # # #   # #          #    #       #     #        |
 |        #     # #  #  # #####      #    #####   ######         |
 |        #     # #   # # #          #    #       #              |
 |        #     # #    ## #          #    #       #              |
 |        ####### #     # #######    #    ####### #              |
 |                                                               |
 |        Linear-Scaling Ab Initio Total Energy Program          |
 |                                                               |
 |          Release for academic collaborators of ODG            |
 |                                             Version 7.3.26    |
 | Remote: git@github.com:Miesaz/onetep_mea.git                  |
 | Local branch: master                                          |
 | Commit ID: 474b165149cd54f07116211190b13a046ee328b9           |
 | Date: Mon Dec 16 13:35:19 2024 +0000                          |
 |                                                               |
 +---------------------------------------------------------------+
 |                                                               |
 |  Authors:                                                     |
 |  Jacek Dziedzic, Peter D. Haynes, Nicholas D. M. Hine,        |
 |  Arash A. Mostofi, Mike C. Payne and Chris-Kriton Skylaris    |
 |                                                               |
 |  Contributors:                                                |
 |  J. Aarons, L. Andrinopoulos, P. W. Avraam, R. A. Bell,       |
 |  A. Bhandari, G. A. Bramley, R. J. Charlton, S. J. Clark,     |
 |  R. J. Clements, G. C. Constantinescu, F. Corsetti,           |
 |  N. Corsini, O. Dieguez, S. M. M. Dubois, K. K. B. Duff,      |
 |  J. M. Escartin, M. Escobar Azor, A. Greco,                   |
 |  H. Helal, Q. O. Hill, L. P. Lee, J.-H. Li,                   |
 |  T. Li, E. B. Linscott, G. Moynihan, D. D. O`Regan,           |
 |  O. K. Okan, E. Parkinson, M. J. S. Phipps,                   |
 |  C. J. Pickard, J. C. A. Prentice, M. I. J. Probert,          |
 |  L. E. Ratcliff, M. Robinson, A. Ruiz Serrano,                |
 |  M. dos Santos Dias, J. S. Spencer, E. W. Tait,               |
 |  G. Teobaldi, D. Turban, V. Vitale, K. A. Wilkinson,          |
 |  C. Weber, J. C. Womack, Chengcheng Xiao, N. Yeung,           |
 |  and T. J. Zuehlsdorff.                                       |
 |                                                               |
 |                                   Copyright (c) 2004-2024     |
 |                                                               |
 |  Please cite:                                                 |
 |  "The ONETEP linear-scaling density functional theory program"|
 |   J. Chem. Phys. 152(17) 174111 (2020)                        |
 |                                                               |
 |          in all publications arising from your use of ONETEP. |
 |                                                               |
 +---------------------------------------------------------------+
 |                                                               |
 |   ONETEP is based on developments described in the following  |
 |   publications:                                               |
 |                                                               |
 |  "Nonorthogonal generalized Wannier function pseudopotential  |
 |   plane-wave method".                                         |
 |   C.-K. Skylaris, A. A. Mostofi, P. D. Haynes, O. Dieguez,    |
 |   M. C. Payne.                                                |
 |   Phys. Rev. B 66 035119 (2002).                              |
 |                                                               |
 |  "Preconditioned iterative minimization for linear-scaling    |
 |   electronic structure calculations".                         |
 |   A. A. Mostofi, P. D. Haynes, C.-K. Skylaris, M. C. Payne.   |
 |   J. Chem. Phys. 119(17), pp.8842-8848 (2003).                |
 |                                                               |
 |  "Total-energy calculations on a real space grid with         |
 |   localized functions and a plane-wave basis".                |
 |   A. A. Mostofi, C.-K. Skylaris, P. D. Haynes, M. C. Payne.   |
 |   Comput. Phys. Commun. 147, pp.788-802 (2002).               |
 |                                                               |
 |  "Accurate kinetic energy evaluation in electronic structure  |
 |   calculations with localized functions on real space grids"  |
 |   C.-K. Skylaris, A. A. Mostofi, P. D. Haynes, C. J. Pickard, |
 |   M. C. Payne.                                                |
 |   Comput. Phys. Commun. 140, pp.315-322 (2001).               |
 |                                                               |
 |  "Accurate ionic forces and geometry optimization in linear-  |
 |   scaling density-functional theory with local orbitals"      |
 |   N. D. M. Hine, M. Robinson, P. D. Haynes, C.-K. Skylaris,   |
 |   M. C. Payne, and A. A. Mostofi.                             |
 |   Phys. Rev. B 83 195102 (2011).                              |
 |                                                               |
 +---------------------------------------------------------------+

Job started: 27-03-2025 10:52 (+0000)

Reading parameters from file "Co_cluster_1_sp-ngwfs_T_2.dat" ...... done

If your calculation crashes here, before "Checking processes and threads..."
is displayed, then your stack size is insufficient.
If so, use "ulimit -s unlimited" at runtime.
You can disable this check with "check_stack_size F".

Checking processes and threads...
   Running with 7 MPI processes.
   There are 7 MPI processes running on the same node as the root process.
   Each MPI process is using: 
               1 threads for simulation cell FFTs.
               1 threads for threaded FFT box operations.
               3 threads for loops over batched FFT box operations.
               3 threads in other parallel regions.
   MPI Interface: S2 (use mpi) (-DMPI, no -DUSE_MPI_F08, no -DUSE_INCLUDE_MPIF).
   MPI_ASYNC_PROTECTS_NONBLOCKING:  No. MPI_SUBARRAYS_SUPPORTED:  No.
   FFTW Interface:  OMP-capable and DEPRECATED. (Use -DUSE_MODERN_FFTW to switch to modern).
   GPU Interface:   None.
   GPU FFT Backend: None.
   GPU DGEMM:       No (dense_threshold:   0.10).
   Number of GPU devices per node (OpenACC/CUDA/total): 0/0/0.
   Number of comms groups: 1. Comms group size: 7.
... done

Basic input checks...
Resetting ngwf_cg_rotate to TRUE for EDFT calculations

WARNING: The number of FFT boxes in a batch is not a multiple of the number of
OpenMP threads. Consider changing fftbox_batch_size.
... done

Reading geometry and species blocks from file "Co_cluster_1_sp-ngwfs_T_2.dat" ...... done


--------------------------------------------------------------------------------
---------------------------------- INPUT FILE ----------------------------------
--------------------------------------------------------------------------------

charge : 0 e                                                                    
cutoff_energy : 600 eV                                                          
delta_e_conv : F                                                                
do_properties : T                                                               
edft : T                                                                        
edft_maxit : 15                                                                 
edft_spin_fix : 0                                                               
fine_grid_scale : 4                                                             
forces_output_detail : VERBOSE                                                  
maxit_ngwf_cg : 50                                                              
ngwf_threshold_orig : 1e-06                                                     
ngwfs_spin_polarized : T                                                        
output_detail : BRIEF                                                           
paw : T                                                                         
pseudo_path : ..                                                                
read_denskern : T                                                               
read_hamiltonian : T                                                            
read_tightbox_ngwfs : T                                                         
spin : 39                                                                       
spin_polarized : T                                                              
task : SinglePoint                                                              
write_denskern : T                                                              
write_forces : T                                                                
write_hamiltonian : T                                                           
write_tightbox_ngwfs : T                                                        
xc_functional : PBE                                                             
%BLOCK LATTICE_CART                                                             
ang                                                                             
14.23456672       0.00000000       0.00000000                                   
0.00000000      14.23456672       0.00000000                                    
0.00000000       0.00000000      14.23456672                                    
%ENDBLOCK LATTICE_CART                                                          
%BLOCK POSITIONS_ABS                                                            
ang                                                                             
Co1 7.11725437806771 7.11725173218167 7.11725570101073                          
Co2 9.09289631526896 7.11733809390206 5.89725537471156                          
Co2 9.09280672556759 7.11734518487666 8.33735122628968                          
Co2 5.14153471531811 7.11732671659209 5.8971289542765                           
Co2 5.14166633227336 7.11733380756668 8.33744076307332                          
Co2 5.89725442219259 9.09289959616765 7.11733904642104                          
Co2 8.33735207297321 9.09281122357386 7.11734597864247                          
Co2 5.89713043597268 5.14153364108838 7.11732756327562                          
Co2 8.33743949304802 5.14166441665187 7.11733460133249                          
Co2 7.11733846432611 5.89725611555965 9.09289679152844                          
Co2 7.11734550238298 8.33735096170107 9.09281048272577                          
Co2 7.1173275103579 5.89712837218157 5.14153306957699                           
Co2 7.11733460133249 8.33744118641509 5.1416614532595                           
%ENDBLOCK POSITIONS_ABS                                                         
%BLOCK SPECIES                                                                  
Co1 Co 27 10 10.0                                                               
Co2 Co 27 10 10.0                                                               
%ENDBLOCK SPECIES                                                               
%BLOCK SPECIES_ATOMIC_SET                                                       
Co1 "SOLVE conf=4pX INIT SPIN=3"                                                
Co2 "SOLVE conf=4pX INIT SPIN=3"                                                
%ENDBLOCK SPECIES_ATOMIC_SET                                                    
%BLOCK SPECIES_LDOS_GROUPS                                                      
Co1                                                                             
Co2                                                                             
%ENDBLOCK SPECIES_LDOS_GROUPS                                                   
%BLOCK SPECIES_POT                                                              
Co1 Co.PBE-paw.abinit                                                           
Co2 Co.PBE-paw.abinit                                                           
%ENDBLOCK SPECIES_POT                                                           

--------------------------------------------------------------------------------
-------------------------------- END INPUT FILE --------------------------------
--------------------------------------------------------------------------------



<<<<<<<<<<<<<<<<<<<<<<<<<<<<<<<<< Full system >>>>>>>>>>>>>>>>>>>>>>>>>>>>>>>>>>
<<<<<<<<<<<<<<<<<<<<<<<<<<< PAW Dataset information >>>>>>>>>>>>>>>>>>>>>>>>>>>
File: Co.PBE-paw.abinit; rc = 2.11 bohr; shape type =  2; rshape = 1.60 bohr;
  Atomic number: 27;  ionic charge: 17.000000
    Partial Wave 1: l = 0
    Partial Wave 2: l = 0
    Partial Wave 3: l = 1
    Partial Wave 4: l = 1
    Partial Wave 5: l = 2
    Partial Wave 6: l = 2
  Core charge supplied for Nonlinear Core Corrections
<<<<<<<<<<<<<<<<<<<<<<<<<<<<<<<<<<<<<<< >>>>>>>>>>>>>>>>>>>>>>>>>>>>>>>>>>>>>>>

-------------------------- Atom counting information ---------------------------
Symbol    Natoms    Nngwfs    Nprojs
  Co        13       130       234
.......   ......    ......    ......
Totals:     13       130       234
--------------------------------------------------------------------------------

=============================== PSINC grid sizes ===============================
                      Simulation cell:   49 x  49 x  49
                              FFT-box:   49 x  49 x  49
                                  PPD:    7 x   7 x   1
================================================================================

Atom SCF Calculation for Co : Z (AE atom) =  27 : Z (PS atom) =  17
Config String: 4pX INIT SPIN=3
Orbitals (num,occ):  4     2.00 6.00 7.00 2.00
Orbitals   (num,l):  4        0    1    2    0
Atom SCF converged after  37 iterations to a total energy of   -146.10251041
Adjusting orbital occupancies:
Orbitals (num,spin,occ):  4  1     1.00 3.00 5.00 1.00
Orbitals   (num,spin,l):  4  1        0    1    2    0
Orbitals (num,spin,occ):  4  2     1.00 3.00 3.00 0.00
Orbitals   (num,spin,l):  4  2        0    1    2    0

Atom SCF Calculation for Co : Z (AE atom) =  27 : Z (PS atom) =  17
Config String: 4pX INIT SPIN=3
Orbitals (num,occ):  4     2.00 6.00 7.00 2.00
Orbitals   (num,l):  4        0    1    2    0
Atom SCF converged after  37 iterations to a total energy of   -146.10251041
Adjusting orbital occupancies:
Orbitals (num,spin,occ):  4  1     1.00 3.00 5.00 1.00
Orbitals   (num,spin,l):  4  1        0    1    2    0
Orbitals (num,spin,occ):  4  2     1.00 3.00 3.00 0.00
Orbitals   (num,spin,l):  4  2        0    1    2    0

WARNING: The number of FFT boxes in a batch is not a multiple of the number of
OpenMP threads. Consider changing fftbox_batch_size.
Calculating Ewald energy ...             1546.022822 Hartree

============================= Charge Augmentation ==============================
                           Aug box size:   33 x  33 x  33
================================================================================

Reading NGWFs from file "Co_cluster_1_sp-ngwfs_T_2.tightbox_ngwfs" ...  done

================================= Core Density =================================
               Core den box size:   33 x  33 x  33
================================================================================

Reading density kernel from file "Co_cluster_1_sp-ngwfs_T_2.dkn" ... done

################################################################################
###################### NGWF self-consistent optimisation #######################
################################################################################
|ITER|    RMS GRADIENT   |     TOTAL ENERGY    |   step   |     Epredicted      

Reading Hamiltonian from file "Co_cluster_1_sp-ngwfs_T_2.ham" ... done
   0     0.00000351951222  -1902.39093415808748   0.132870  -1902.39093686673255        
   1     0.00000239437698  -1902.39108101597026   0.153416  -1902.39108246345995        
   2     0.00000282567697  -1902.39113392932427   0.024309  -1902.39113431826877        
   3     0.00000163562322  -1902.39115153676039   0.014521  -1902.39115163868564        
   4     0.00000125385257  -1902.39115394358600   0.031275  -1902.39115402450466        

================================================================================
           ---------------- ENERGY COMPONENTS (Eh) ----------------
           | Kinetic                    :      152.64516315828939 |
           | Core Hartree               :    -7002.08563634159418 |
           | CoreHart (non-coul chg cor):        0.00000000000000
           | Hartree                    :     3107.17809722825723 |
           | Exchange-correlation       :      -39.86215874627315 |
           | Ewald                      :     1546.02282206798623 |
           | Dij0                       :      418.58302706976065 |
           | Dijhartree                 :      105.17965437713588 |
           | Exc [AE core]              :     -769.05174414674286 |
           | Exc DC [AE core]           :     -275.70378389066877 |
           | Exc [PS core]              :      -33.67785413427943 |
           | Exc DC [PS core]           :      -44.13222495348723 |
           | Exc [Core]                 :     -545.34952823147160 |
           | Total [Sphere]             :      333.73831966590467 |
           | Total                      :    -1902.36339296742972 |
           |------------------------------------------------------|
           | Entropic contribution      :       -0.02776211700757 |
           | Total free energy          :    -1902.39115508443729 |
           --------------------------------------------------------
           Integrated compensation chrg.:      130.57864677423646
           Integrated density           :      221.00000000005321
           Integrated spin density      :       29.59348958332004
           Integrated |spin density|    :       11.52988902470916
           Fermi level of spin Up       :       -0.09401716904291
           Fermi level of spin Down     :       -0.09401716904291
================================================================================

   5     0.00000080221297  -1902.39115508443729  <-- CG                                 

======================== Writing density and potential =========================
Writing "Co_cluster_1_sp-ngwfs_T_2_ps_density.cube" ... done
Writing "Co_cluster_1_sp-ngwfs_T_2_ps_spindensity.cube" ... done
Writing "Co_cluster_1_sp-ngwfs_T_2_ae_density.cube" ... done
Writing "Co_cluster_1_sp-ngwfs_T_2_ae_spindensity.cube" ... done
Writing "Co_cluster_1_sp-ngwfs_T_2_potential.cube" ... done
Writing "Co_cluster_1_sp-ngwfs_T_2_electrostatic_potential.cube" ... done
================================================================================

    Mulliken Atomic Populations
    ---------------------------
Species  Ion    Total   Charge (e)    Spin (hbar)
=================================================
  Co     1      16.863      0.137      0.95
  Co     2      17.012     -0.012      1.15
  Co     3      17.013     -0.013      1.15
  Co     4      17.010     -0.010      1.15
  Co     5      17.011     -0.011      1.15
  Co     6      17.012     -0.012      1.15
  Co     7      17.013     -0.013      1.15
  Co     8      17.010     -0.010      1.15
  Co     9      17.011     -0.011      1.15
  Co    10      17.012     -0.012      1.15
  Co    11      17.013     -0.013      1.15
  Co    12      17.010     -0.010      1.15
  Co    13      17.011     -0.011      1.15
=================================================

        Bond         Population      Spin       Length (bohr)
=============================================================
 Co    1 -- Co    3        0.02     -0.02      4.38784
 Co    1 -- Co   11        0.02     -0.02      4.38785
 Co    1 -- Co    7        0.02     -0.02      4.38786
 Co    1 -- Co   10        0.02     -0.02      4.38789
 Co    1 -- Co    2        0.02     -0.02      4.38789
 Co    1 -- Co    6        0.02     -0.02      4.38790
 Co    1 -- Co    9        0.02     -0.02      4.38799
 Co    1 -- Co    5        0.02     -0.02      4.38799
 Co    1 -- Co   13        0.02     -0.02      4.38801
 Co    1 -- Co    8        0.02     -0.02      4.38814
 Co    1 -- Co    4        0.02     -0.02      4.38814
 Co    1 -- Co   12        0.02     -0.02      4.38815
 Co   10 -- Co   11        0.00     -0.08      4.61111
 Co    2 -- Co    3        0.00     -0.08      4.61111
 Co    6 -- Co    7        0.00     -0.08      4.61112
 Co    8 -- Co    9        0.00     -0.08      4.61152
 Co    4 -- Co    5        0.00     -0.08      4.61152
 Co   12 -- Co   13        0.00     -0.08      4.61152
 Co    3 -- Co   11       -0.00     -0.08      4.61402
 Co    3 -- Co    7       -0.00     -0.08      4.61403
 Co    7 -- Co   11       -0.00     -0.08      4.61403
 Co    3 -- Co   10       -0.00     -0.08      4.61416
 Co    2 -- Co    7       -0.00     -0.08      4.61417
 Co    6 -- Co   11       -0.00     -0.08      4.61417
 Co    5 -- Co   11       -0.00     -0.08      4.61431
 Co    3 -- Co    9       -0.00     -0.08      4.61431
 Co    7 -- Co   13       -0.00     -0.08      4.61432
 Co    9 -- Co   10       -0.00     -0.08      4.61434
 Co    2 -- Co   13       -0.00     -0.08      4.61435
 Co    5 -- Co    6       -0.00     -0.08      4.61435
 Co    5 -- Co   10       -0.00     -0.08      4.61441
 Co    2 -- Co    9       -0.00     -0.08      4.61441
 Co    6 -- Co   13       -0.00     -0.08      4.61442
 Co    8 -- Co   10       -0.00     -0.08      4.61453
 Co    2 -- Co   12       -0.00     -0.08      4.61453
 Co    4 -- Co    6       -0.00     -0.08      4.61454
 Co    5 -- Co    8       -0.00     -0.08      4.61464
 Co    9 -- Co   12       -0.00     -0.08      4.61464
 Co    4 -- Co   13       -0.00     -0.08      4.61465
 Co    4 -- Co   12       -0.00     -0.08      4.61479
 Co    4 -- Co    8       -0.00     -0.08      4.61479
 Co    8 -- Co   12       -0.00     -0.08      4.61479
=============================================================


============== Orbital energy and occupancy information for spin 1 =============

      Total number of orbitals:     130
        Occupancy sum (kernel):     125.296744792
   Occupancy sum (eigenvalues):     125.296744792
                 HOMO-LUMO gap:       0.031575677 Eh
                 Mid-gap level:      -0.083406901 Eh

                        Orbital | Energy (Eh) | Occupancy
                            1    -3.654905743   1.0000000
                        .......   ...........   .........
                          117    -0.147006119   0.9999995
                          118    -0.147005944   0.9999995
                          119    -0.137358990   0.9999992
                          120    -0.137358946   0.9999992
                          121    -0.137357458   0.9999992
                          122    -0.099218330   0.8598484
                          123    -0.099218219   0.8598442
                          124    -0.099195072   0.8589318
                          125    -0.099194820   0.8589203
                          126    -0.099194740   0.8589174
                        ....... -- gap at 0K -- .........
                          127    -0.067619063   0.0002929
                          128     0.005080071   0.0000020
                          129     0.005080176   0.0000020
                          130     0.005081551   0.0000016

================================================================================

============== Orbital energy and occupancy information for spin 2 =============

      Total number of orbitals:     130
        Occupancy sum (kernel):      95.703255208
   Occupancy sum (eigenvalues):      95.703255208
                 HOMO-LUMO gap:       0.000000064 Eh
                 Mid-gap level:      -0.090701106 Eh

                        Orbital | Energy (Eh) | Occupancy
                            1    -3.567104796   1.0000000
                        .......   ...........   .........
                           86    -0.115315530   0.9989132
                           87    -0.111895850   0.9968788
                           88    -0.111891697   0.9968732
                           89    -0.111891584   0.9968731
                           90    -0.111856535   0.9968389
                           91    -0.111856401   0.9968387
                           92    -0.099663229   0.8715376
                           93    -0.099663086   0.8715303
                           94    -0.099663069   0.8715296
                           95    -0.090701138   0.2825687
                        ....... -- gap at 0K -- .........
                           96    -0.090701074   0.2825674
                           97    -0.090700881   0.2825892
                           98    -0.090698213   0.2826020
                           99    -0.088077695   0.1438976
                          100    -0.088077668   0.1438967
                          101    -0.088076869   0.1439042
                          102    -0.087632568   0.1298032
                          103    -0.087406513   0.1219386
                          104    -0.087406097   0.1219447
                          105    -0.087406052   0.1219423
                        .......   ...........   .........
                          130     0.047663060   0.0000007

================================================================================

===================== Writing canonical molecular orbitals =====================
    Spin 1
| Orbital  Energy (eV)  Norm     |
| HOMO-5   -3.73768661  1.000000 | Writing "Co_cluster_1_sp-ngwfs_T_2_HOMO-5_UP.cube" ... done
| HOMO-4   -2.69986815  1.000000 | Writing "Co_cluster_1_sp-ngwfs_T_2_HOMO-4_UP.cube" ... done
| HOMO-3   -2.69986513  1.000000 | Writing "Co_cluster_1_sp-ngwfs_T_2_HOMO-3_UP.cube" ... done
| HOMO-2   -2.69923525  1.000000 | Writing "Co_cluster_1_sp-ngwfs_T_2_HOMO-2_UP.cube" ... done
| HOMO-1   -2.69922840  1.000000 | Writing "Co_cluster_1_sp-ngwfs_T_2_HOMO-1_UP.cube" ... done
| HOMO     -2.69922622  1.000000 | Writing "Co_cluster_1_sp-ngwfs_T_2_HOMO_UP.cube" ... done
| LUMO     -1.84000832  1.000000 | Writing "Co_cluster_1_sp-ngwfs_T_2_LUMO_UP.cube" ... done
| LUMO+1    0.13823575  1.000000 | Writing "Co_cluster_1_sp-ngwfs_T_2_LUMO+1_UP.cube" ... done
| LUMO+2    0.13823863  1.000000 | Writing "Co_cluster_1_sp-ngwfs_T_2_LUMO+2_UP.cube" ... done
| LUMO+3    0.13827605  1.000000 | Writing "Co_cluster_1_sp-ngwfs_T_2_LUMO+3_UP.cube" ... done
================================================================================

===================== Writing canonical molecular orbitals =====================
    Spin 2
| Orbital  Energy (eV)  Norm     |
| HOMO-5   -3.04377120  1.000000 | Writing "Co_cluster_1_sp-ngwfs_T_2_HOMO-5_DN.cube" ... done
| HOMO-4   -3.04376756  1.000000 | Writing "Co_cluster_1_sp-ngwfs_T_2_HOMO-4_DN.cube" ... done
| HOMO-3   -2.71197446  1.000000 | Writing "Co_cluster_1_sp-ngwfs_T_2_HOMO-3_DN.cube" ... done
| HOMO-2   -2.71197055  1.000000 | Writing "Co_cluster_1_sp-ngwfs_T_2_HOMO-2_DN.cube" ... done
| HOMO-1   -2.71197009  1.000000 | Writing "Co_cluster_1_sp-ngwfs_T_2_HOMO-1_DN.cube" ... done
| HOMO     -2.46810355  1.000000 | Writing "Co_cluster_1_sp-ngwfs_T_2_HOMO_DN.cube" ... done
| LUMO     -2.46810181  1.000000 | Writing "Co_cluster_1_sp-ngwfs_T_2_LUMO_DN.cube" ... done
| LUMO+1   -2.46809655  1.000000 | Writing "Co_cluster_1_sp-ngwfs_T_2_LUMO+1_DN.cube" ... done
| LUMO+2   -2.46802395  1.000000 | Writing "Co_cluster_1_sp-ngwfs_T_2_LUMO+2_DN.cube" ... done
| LUMO+3   -2.39671603  1.000000 | Writing "Co_cluster_1_sp-ngwfs_T_2_LUMO+3_DN.cube" ... done
| LUMO+4   -2.39671529  1.000000 | Writing "Co_cluster_1_sp-ngwfs_T_2_LUMO+4_DN.cube" ... done
| LUMO+5   -2.39669357  1.000000 | Writing "Co_cluster_1_sp-ngwfs_T_2_LUMO+5_DN.cube" ... done
================================================================================

================== Local Density of States (LDOS) calculation ==================
Writing "Co_cluster_1_sp-ngwfs_T_2_UP_LDOS.txt" ...  done
================================================================================

================== Local Density of States (LDOS) calculation ==================
Writing "Co_cluster_1_sp-ngwfs_T_2_DN_LDOS.txt" ...  done
================================================================================
 
=============== Density of States (DOS) calculation for UP spin ================
Writing "Co_cluster_1_sp-ngwfs_T_2_UP_DOS.txt" ...  done
================================================================================
 
============== Density of States (DOS) calculation for DOWN spin ===============
Writing "Co_cluster_1_sp-ngwfs_T_2_DN_DOS.txt" ...  done
================================================================================
 
Writing bands to file "Co_cluster_1_sp-ngwfs_T_2.val_bands" ... done

================================= Core Density =================================
               Core den box size:   33 x  33 x  33
================================================================================
 
********************* Unconstrained **********************
********************** Ewald forces **********************
*                                                        *
* Element  Atom         Cartesian components (Eh/a)      *
* ------------------------------------------------------ *
*                       x            y            z      *
*                                                        *
*    Co      1     -0.00688871  -0.00675583  -0.00695042 *
*    Co      2     61.99669329  -0.00053593 -38.46726875 *
*    Co      3     61.99939696  -0.00056266  38.46788006 *
*    Co      4    -61.99270003  -0.00050957 -38.46438296 *
*    Co      5    -61.99577037  -0.00053836  38.46531902 *
*    Co      6    -38.46721651  61.99663065  -0.00058858 *
*    Co      7     38.46781448  61.99928680  -0.00061045 *
*    Co      8    -38.46443547 -61.99276476  -0.00055608 *
*    Co      9     38.46537737 -61.99577455  -0.00057726 *
*    Co     10     -0.00056971 -38.46730837  61.99677944 *
*    Co     11     -0.00059575  38.46790598  61.99931767 *
*    Co     12     -0.00053941 -38.46436612 -61.99273037 *
*    Co     13     -0.00056613  38.46529272 -61.99563132 *
*                                                        *
**********************************************************
TOTAL:             -0.00000000   0.00000000   0.00000000
 
********************* Unconstrained **********************
***************** Local potential forces *****************
*                                                        *
* Element  Atom         Cartesian components (Eh/a)      *
* ------------------------------------------------------ *
*                       x            y            z      *
*                                                        *
*    Co      1      0.00723256   0.00709629   0.00729554 *
*    Co      2    -62.10543889   0.00070583  38.53445725 *
*    Co      3    -62.10805971   0.00073245 -38.53467018 *
*    Co      4     62.10194687   0.00067954  38.53164399 *
*    Co      5     62.10492308   0.00070825 -38.53217473 *
*    Co      6     38.53440426 -62.10538004   0.00076237 *
*    Co      7    -38.53460687 -62.10795441   0.00078410 *
*    Co      8     38.53169386  62.10200622   0.00072992 *
*    Co      9    -38.53223330  62.10492291   0.00075101 *
*    Co     10      0.00074220  38.53449179 -62.10552090 *
*    Co     11      0.00076824 -38.53470069 -62.10797959 *
*    Co     12      0.00071210  38.53162297  62.10197721 *
*    Co     13      0.00073886 -38.53215399  62.10478728 *
*                                                        *
**********************************************************
TOTAL:              0.00282326   0.00277712   0.00284328
 
********************* Unconstrained **********************
************** Compensation density forces ***************
*                                                        *
* Element  Atom         Cartesian components (Eh/a)      *
* ------------------------------------------------------ *
*                       x            y            z      *
*                                                        *
*    Co      1     -0.00021641  -0.00021486  -0.00021692 *
*    Co      2     -0.01781502  -0.00012310   0.01155535 *
*    Co      3     -0.01780210  -0.00012334  -0.01181325 *
*    Co      4      0.01755647  -0.00012241   0.01157654 *
*    Co      5      0.01755303  -0.00012269  -0.01183950 *
*    Co      6      0.01155590  -0.01781208  -0.00012621 *
*    Co      7     -0.01181177  -0.01779892  -0.00012648 *
*    Co      8      0.01157751   0.01755895  -0.00012557 *
*    Co      9     -0.01183839   0.01755514  -0.00012586 *
*    Co     10     -0.00012532   0.01155886  -0.01781632 *
*    Co     11     -0.00012555  -0.01180997  -0.01780259 *
*    Co     12     -0.00012461   0.01157980   0.01755541 *
*    Co     13     -0.00012487  -0.01183597   0.01755098 *
*                                                        *
**********************************************************
TOTAL:             -0.00174115  -0.00171058  -0.00175444
 
********************* Unconstrained **********************
*************** Non-local potential forces ***************
*                                                        *
* Element  Atom         Cartesian components (Eh/a)      *
* ------------------------------------------------------ *
*                       x            y            z      *
*                                                        *
*    Co      1     -0.00048228  -0.00047358  -0.00048610 *
*    Co      2      0.12821519  -0.00022947  -0.08093840 *
*    Co      3      0.12822382  -0.00022975   0.08048671 *
*    Co      4     -0.12863698  -0.00022927  -0.08091840 *
*    Co      5     -0.12865075  -0.00022956   0.08047092 *
*    Co      6     -0.08093658   0.12821824  -0.00023477 *
*    Co      7      0.08048784   0.12822665  -0.00023501 *
*    Co      8     -0.08091723  -0.12863373  -0.00023450 *
*    Co      9      0.08047275  -0.12864720  -0.00023475 *
*    Co     10     -0.00023311  -0.08093384   0.12821388 *
*    Co     11     -0.00023340   0.08049195   0.12822172 *
*    Co     12     -0.00023293  -0.08091345  -0.12863837 *
*    Co     13     -0.00023323   0.08047591  -0.12865128 *
*                                                        *
**********************************************************
TOTAL:             -0.00315690  -0.00310711  -0.00317837
 
********************* Unconstrained **********************
************ NGWF non self-consistent forces *************
*                                                        *
* Element  Atom         Cartesian components (Eh/a)      *
* ------------------------------------------------------ *
*                       x            y            z      *
*                                                        *
*    Co      1      0.00045259   0.00044530   0.00045573 *
*    Co      2      0.00093707   0.00026832   0.00047415 *
*    Co      3      0.00076753   0.00026897  -0.00003354 *
*    Co      4     -0.00069065   0.00026724   0.00029341 *
*    Co      5     -0.00052097   0.00026790   0.00014492 *
*    Co      6      0.00047117   0.00093450   0.00027457 *
*    Co      7     -0.00003356   0.00076617   0.00027524 *
*    Co      8      0.00029344  -0.00069184   0.00027348 *
*    Co      9      0.00014195  -0.00052342   0.00027415 *
*    Co     10      0.00027270   0.00046987   0.00093580 *
*    Co     11      0.00027335  -0.00003917   0.00077032 *
*    Co     12      0.00027159   0.00028784  -0.00068776 *
*    Co     13      0.00027224   0.00014062  -0.00052216 *
*                                                        *
**********************************************************
TOTAL:              0.00290844   0.00286231   0.00292832
 
********************* Unconstrained **********************
********************** NLCC forces ***********************
*                                                        *
* Element  Atom         Cartesian components (Eh/a)      *
* ------------------------------------------------------ *
*                       x            y            z      *
*                                                        *
*    Co      1     -0.00000000  -0.00000000  -0.00000000 *
*    Co      2     -0.00000000  -0.00000000   0.00000000 *
*    Co      3     -0.00000000  -0.00000000  -0.00000000 *
*    Co      4      0.00000000  -0.00000000   0.00000000 *
*    Co      5      0.00000000  -0.00000000  -0.00000000 *
*    Co      6      0.00000000  -0.00000000  -0.00000000 *
*    Co      7     -0.00000000  -0.00000000  -0.00000000 *
*    Co      8      0.00000000   0.00000000  -0.00000000 *
*    Co      9     -0.00000000   0.00000000  -0.00000000 *
*    Co     10     -0.00000000   0.00000000  -0.00000000 *
*    Co     11     -0.00000000  -0.00000000  -0.00000000 *
*    Co     12     -0.00000000   0.00000000   0.00000000 *
*    Co     13     -0.00000000  -0.00000000   0.00000000 *
*                                                        *
**********************************************************
TOTAL:             -0.00000000  -0.00000000  -0.00000000
 
********************* Unconstrained **********************
****** Correction to ensure the total force is zero ******
*                                                        *
* Element  Atom         Cartesian components (Eh/a)      *
* ------------------------------------------------------ *
*                       x            y            z      *
*                                                        *
*    Co      1     -0.00006413  -0.00006321  -0.00006452 *
*    Co      2     -0.00006413  -0.00006321  -0.00006452 *
*    Co      3     -0.00006413  -0.00006321  -0.00006452 *
*    Co      4     -0.00006413  -0.00006321  -0.00006452 *
*    Co      5     -0.00006413  -0.00006321  -0.00006452 *
*    Co      6     -0.00006413  -0.00006321  -0.00006452 *
*    Co      7     -0.00006413  -0.00006321  -0.00006452 *
*    Co      8     -0.00006413  -0.00006321  -0.00006452 *
*    Co      9     -0.00006413  -0.00006321  -0.00006452 *
*    Co     10     -0.00006413  -0.00006321  -0.00006452 *
*    Co     11     -0.00006413  -0.00006321  -0.00006452 *
*    Co     12     -0.00006413  -0.00006321  -0.00006452 *
*    Co     13     -0.00006413  -0.00006321  -0.00006452 *
*                                                        *
**********************************************************
TOTAL:             -0.00083366  -0.00082174  -0.00083879

********************* Unconstrained **********************
************************* Forces *************************
*                                                        *
* Element  Atom         Cartesian components (Eh/a)      *
* ------------------------------------------------------ *
*                       x            y            z      *
*                                                        *
*    Co      1      0.00003361   0.00003412   0.00003331 *
*    Co      2      0.00252751   0.00002244  -0.00178492 *
*    Co      3      0.00246237   0.00002246   0.00178527 *
*    Co      4     -0.00258844   0.00002231  -0.00185194 *
*    Co      5     -0.00253011   0.00002233   0.00185611 *
*    Co      6     -0.00178589   0.00252805   0.00002285 *
*    Co      7      0.00178600   0.00246307   0.00002287 *
*    Co      8     -0.00185203  -0.00258836   0.00002274 *
*    Co      9      0.00185625  -0.00253033   0.00002276 *
*    Co     10      0.00002262  -0.00178489   0.00252738 *
*    Co     11      0.00002276   0.00178489   0.00246300 *
*    Co     12      0.00002261  -0.00185216  -0.00258840 *
*    Co     13      0.00002274   0.00185607  -0.00253104 *
*                                                        *
**********************************************************
* TOTAL:            0.00000000   0.00000000  -0.00000000 *
**********************************************************
 
 
***********************************************************
********** Summary of Forces (values in Eh/a) *************
*                                                         *
* ---------------------- Minimum ------------------------ *
* Atom:         1, |F|min =    0.00005834                 *
* Components:     Fx|min       Fy|min       Fz|min        *
*               0.00003361   0.00003412   0.00003331      *
*                                                         *
* ---------------------- Maximum ------------------------ *
* Atom:        12, |F|max =    0.00318289                 *
* Components:     Fx|max       Fy|max       Fz|max        *
*               0.00002261  -0.00185216  -0.00258840      *
*                                                         *
* ---------------- Root Mean Square Force --------------- *
*                  |F|rms =    0.00299272                 *
* Components:     Fx|rms       Fy|rms       Fz|rms        *
*               0.00172785   0.00172783   0.00172785      *
***********************************************************
 

------------------------------ TIMING INFORMATION ------------------------------
AVERAGE TIME:    1046.017s on      7 proc(s)                                    
TOTAL TIME:      1046.017s on      7 proc(s)                                    
==================== AVERAGE TIMINGS FROM ALL PROCS (CUMULATIVE) =====================
|| TAG                                         #calls     cpu time   %total  Gflops ||
|| hash_table_free                            :    13        0.00s   0.000%  ------ ||
|| ewald_calculate_forces_realspace           :     1        0.00s   0.000%  ------ ||
|| onetep.F90 main loop imbalance             :     1        0.00s   0.000%  ------ ||
|| onetep.F90 final imbalance                 :     1        0.00s   0.000%  ------ ||
|| ewald_calculate_forces_recipspace          :     1        0.00s   0.000%  ------ ||
|| restart_hamiltonian_read                   :     1        0.00s   0.000%  ------ ||
|| ewald_calculate_energy                     :     1        0.00s   0.000%  ------ ||
|| sparse_set_to_garbage                      :   150        0.00s   0.000%  ------ ||
|| ewald_calculate_forces                     :     1        0.00s   0.000%  ------ ||
|| density_fftbox_interp_mult_imbal           :  8000        0.00s   0.000%  ------ ||
|| restart_kernel_read                        :     1        0.00s   0.000%  ------ ||
|| sparse_init                                :     1        0.01s   0.001%  ------ ||
|| sw_bessel_init_cpu                         :     1        0.06s   0.005%  ------ || (1 procs only)
|| paw_tcore_density                          :     1        0.01s   0.001%  ------ ||
|| sparse_blacstospam3_real_fast_imbal        :   770        0.02s   0.001%  ------ ||
|| basis_extract_function_from_box            :   482        0.03s   0.003%  ------ ||
|| linalg_dgemv                               :    54        0.03s   0.003%  ------ ||
|| pseudo_make_structure_factor               :     1        0.03s   0.003%  ------ ||
|| restart_hamiltonian_write                  :     6        0.05s   0.004%  ------ ||
|| sparse_spam3toblacs_real_fast_imbal        :   768        0.05s   0.005%  ------ ||
|| paw_tcore_hartree_on_grid                  :     1        0.05s   0.005%  ------ ||
|| restart_kernel_write                       :     6        0.06s   0.006%  ------ ||
|| sparse_spam3toblacs_real_fast_B2           :  5376        0.07s   0.007%  ------ ||
|| augmentation_density_forces                :     1        0.12s   0.011%  ------ ||
|| sparse_embed_array_hotelling_invert        :    13        0.12s   0.012%  ------ ||
|| sw_init                                    :   398        0.14s   0.013%  ------ ||
|| sparse_spam3toblacs_real_fast_B1           :  5376        0.15s   0.015%  ------ ||
|| paw_dij_hartree                            :   268        0.16s   0.015%  ------ ||
|| paw_tcore_hartree_calc_forces              :     1        0.19s   0.018%  ------ ||
|| integrals_grad_spam3                       :     2        0.24s   0.023%  ------ ||
|| nonsc_forces_ngwfs_calc                    :     1        0.24s   0.023%  ------ ||
|| paw_sphere_density_on_grid                 :     1        0.25s   0.024%  ------ ||
|| sparse_spam3toblacs_real_fast              :   768        0.43s   0.041%  ------ ||
|| sparse_blacstospam3_real_fast              :   770        0.54s   0.051%  ------ ||
|| sparse_trace                               :  4930        0.76s   0.073%  ------ ||
|| paw_nlcc_calculate_forces                  :     1        0.82s   0.079%  ------ ||
|| fourier_apply_box_pair                     :   705        0.82s   0.079%  59.523 ||
|| restart_ngwfs_tightbox_input               :     1        0.97s   0.093%  ------ ||
|| paw_species_calc_proj_prec_mat             :     6        1.21s   0.116%  ------ ||
|| paw_dataset_init                           :     1        1.60s   0.153%  ------ ||
|| cell_grid_extract_box_real                 :  3702        2.03s   0.194%  ------ ||
|| dense_eigensolve                           :   364        2.73s   0.261%  ------ ||
|| projectors_func_grad_ovlp_box_spam3        :     6        2.74s   0.262%  ------ ||
|| ngwf_gradient_coeffs                       :     6        2.77s   0.264%  ------ ||
|| basis_copy_function_to_box                 : 10994        3.00s   0.287%  ------ ||
|| projectors_init_fftbox_recip               :    86        3.06s   0.292%  ------ ||
|| edft_diag_ngwf_ham                         :   362        3.13s   0.299%  ------ ||
|| function_ops_brappd_ketppd_spam3           :    50        3.13s   0.300%  ------ ||
|| aug_nl_calculate_forces                    :     1        3.23s   0.309%  ------ ||
|| hamiltonian_energy_components              :     1        3.51s   0.336%  ------ ||
|| eigenstates_calculate                      :     1        3.89s   0.372%  ------ ||
|| integrals_kinetic_spam3                    :    26        4.00s   0.382%  ------ ||
|| sparse_product                             :  4658        4.76s   0.455%  ------ ||
|| fourier_filter_cell                        :   144        6.45s   0.617%  10.714 ||
|| energy_and_force_init_cell                 :     1        6.54s   0.625%  ------ ||
|| edft_apply_smearing_operator               :   181        6.58s   0.629%  ------ ||
|| density_fftbox_deposit_to_cell             :  8000        7.32s   0.700%  ------ ||
|| cell_grid_deposit_box_real                 :  9246        8.80s   0.841%  ------ ||
|| forces_calculate                           :     1        9.27s   0.886%  ------ ||
|| projectors_func_ovlp_box_spam3             :    26       11.05s   1.057%  ------ ||
|| hartree_on_grid_single                     :   198       14.30s   1.367%  ------ ||
|| basis_dot_function_with_box                : 490.0k      18.53s   1.771%  ------ ||
|| augmentation_screen_dij_spam3              :   197       19.49s   1.863%  ------ ||
|| projectors_grad_precond_batch              :    24       22.05s   2.108%  ------ ||
|| fourier_interpolate_cell                   :   400       22.11s   2.114%   8.687 ||
|| projectors_gradient_batch                  :    24       23.48s   2.245%  ------ ||
|| integrals_locpot_mat_els_batch             :   264       36.22s   3.463%  ------ ||
|| restart_ngwfs_tightbox_output              :     5       43.74s   4.181%  ------ ||
|| fourier_apply_cell_backward                :  1783       50.74s   4.851%  15.213 ||
|| aug_density_on_grid_spam3                  :   200       50.92s   4.868%  ------ ||
|| basis_add_function_to_box                  : 1.082M      52.24s   4.994%  ------ ||
|| ngwf_gradient_build_batch                  :    24       55.92s   5.346%  ------ ||
|| potential_apply_to_ngwf_batch              :   264       56.61s   5.412%  ------ ||
|| fourier_apply_cell_forward                 :  1783       64.20s   6.137%  12.024 ||
|| properties_calculate                       :     1       69.12s   6.608%  ------ ||
|| fourier_apply_box                          : 26843       84.93s   8.120%  90.763 ||
|| ngwf_gradient_batch                        :    24       86.81s   8.299%  ------ ||
|| integrals_locpot_dbl_grid                  :   132       93.07s   8.897%  ------ ||
|| density_batch_row_sums                     :   800       93.46s   8.934%  ------ ||
|| ngwf_gradient_lnv                          :     6       94.32s   9.017%  ------ ||
|| aug_nonlocal_mat_spam3_embed_array         :   261      116.25s  11.114%  ------ ||
|| paw_dij_xc                                 :   268      117.71s  11.253%  ------ ||
|| density_fftbox_interpolate_multiply        :  8000      134.30s  12.840%  ------ ||
|| xc_energy_potential                        :   198      158.18s  15.122%  ------ ||
|| density_batch_interp_deposit               :   800      166.88s  15.954%  ------ ||
|| density_on_dbl_grid                        :   400      289.62s  27.688%  ------ ||
|| hamiltonian_lhxc_calculate                 :   196      579.82s  55.431%  ------ ||
|| edft_calculate                             :     6      772.35s  73.838%  ------ ||
|| ngwf_cg_optimise                           :     1      957.00s  91.490%  ------ ||
|| energy_and_forces                          :     1     1038.84s  99.314%  ------ ||
|| total_time                                 :     1     1046.02s 100.000%  ------ ||
======================================================================================
Overhead of generating timer report: 
- 0 ms averaging over threads,
- 0 ms ensuring consistency across MPI ranks,
- 1 ms printing in order.

Job completed: 27-03-2025 11:10 (+0000)

