 +---------------------------------------------------------------+
 |                                                               |
 |        ####### #     # ####### ####### ####### ######         |
 |        #     # ##    # #          #    #       #     #        |
 |        #     # # #   # #          #    #       #     #        |
 |        #     # #  #  # #####      #    #####   ######         |
 |        #     # #   # # #          #    #       #              |
 |        #     # #    ## #          #    #       #              |
 |        ####### #     # #######    #    ####### #              |
 |                                                               |
 |        Linear-Scaling Ab Initio Total Energy Program          |
 |                                                               |
 |          Release for academic collaborators of ODG            |
 |                                             Version 7.3.26    |
 | Remote: git@github.com:Miesaz/onetep_mea.git                  |
 | Local branch: master                                          |
 | Commit ID: 474b165149cd54f07116211190b13a046ee328b9           |
 | Date: Mon Dec 16 13:35:19 2024 +0000                          |
 |                                                               |
 +---------------------------------------------------------------+
 |                                                               |
 |  Authors:                                                     |
 |  Jacek Dziedzic, Peter D. Haynes, Nicholas D. M. Hine,        |
 |  Arash A. Mostofi, Mike C. Payne and Chris-Kriton Skylaris    |
 |                                                               |
 |  Contributors:                                                |
 |  J. Aarons, L. Andrinopoulos, P. W. Avraam, R. A. Bell,       |
 |  A. Bhandari, G. A. Bramley, R. J. Charlton, S. J. Clark,     |
 |  R. J. Clements, G. C. Constantinescu, F. Corsetti,           |
 |  N. Corsini, O. Dieguez, S. M. M. Dubois, K. K. B. Duff,      |
 |  J. M. Escartin, M. Escobar Azor, A. Greco,                   |
 |  H. Helal, Q. O. Hill, L. P. Lee, J.-H. Li,                   |
 |  T. Li, E. B. Linscott, G. Moynihan, D. D. O`Regan,           |
 |  O. K. Okan, E. Parkinson, M. J. S. Phipps,                   |
 |  C. J. Pickard, J. C. A. Prentice, M. I. J. Probert,          |
 |  L. E. Ratcliff, M. Robinson, A. Ruiz Serrano,                |
 |  M. dos Santos Dias, J. S. Spencer, E. W. Tait,               |
 |  G. Teobaldi, D. Turban, V. Vitale, K. A. Wilkinson,          |
 |  C. Weber, J. C. Womack, Chengcheng Xiao, N. Yeung,           |
 |  and T. J. Zuehlsdorff.                                       |
 |                                                               |
 |                                   Copyright (c) 2004-2024     |
 |                                                               |
 |  Please cite:                                                 |
 |  "The ONETEP linear-scaling density functional theory program"|
 |   J. Chem. Phys. 152(17) 174111 (2020)                        |
 |                                                               |
 |          in all publications arising from your use of ONETEP. |
 |                                                               |
 +---------------------------------------------------------------+
 |                                                               |
 |   ONETEP is based on developments described in the following  |
 |   publications:                                               |
 |                                                               |
 |  "Nonorthogonal generalized Wannier function pseudopotential  |
 |   plane-wave method".                                         |
 |   C.-K. Skylaris, A. A. Mostofi, P. D. Haynes, O. Dieguez,    |
 |   M. C. Payne.                                                |
 |   Phys. Rev. B 66 035119 (2002).                              |
 |                                                               |
 |  "Preconditioned iterative minimization for linear-scaling    |
 |   electronic structure calculations".                         |
 |   A. A. Mostofi, P. D. Haynes, C.-K. Skylaris, M. C. Payne.   |
 |   J. Chem. Phys. 119(17), pp.8842-8848 (2003).                |
 |                                                               |
 |  "Total-energy calculations on a real space grid with         |
 |   localized functions and a plane-wave basis".                |
 |   A. A. Mostofi, C.-K. Skylaris, P. D. Haynes, M. C. Payne.   |
 |   Comput. Phys. Commun. 147, pp.788-802 (2002).               |
 |                                                               |
 |  "Accurate kinetic energy evaluation in electronic structure  |
 |   calculations with localized functions on real space grids"  |
 |   C.-K. Skylaris, A. A. Mostofi, P. D. Haynes, C. J. Pickard, |
 |   M. C. Payne.                                                |
 |   Comput. Phys. Commun. 140, pp.315-322 (2001).               |
 |                                                               |
 |  "Accurate ionic forces and geometry optimization in linear-  |
 |   scaling density-functional theory with local orbitals"      |
 |   N. D. M. Hine, M. Robinson, P. D. Haynes, C.-K. Skylaris,   |
 |   M. C. Payne, and A. A. Mostofi.                             |
 |   Phys. Rev. B 83 195102 (2011).                              |
 |                                                               |
 +---------------------------------------------------------------+

Job started: 26-03-2025 17:51 (+0000)

Reading parameters from file "Co_cluster_1_sp-ngwfs_T_2.dat" ...... done

If your calculation crashes here, before "Checking processes and threads..."
is displayed, then your stack size is insufficient.
If so, use "ulimit -s unlimited" at runtime.
You can disable this check with "check_stack_size F".

Checking processes and threads...
   Running with 7 MPI processes.
   There are 7 MPI processes running on the same node as the root process.
   Each MPI process is using: 
               1 threads for simulation cell FFTs.
               1 threads for threaded FFT box operations.
               3 threads for loops over batched FFT box operations.
               3 threads in other parallel regions.
   MPI Interface: S2 (use mpi) (-DMPI, no -DUSE_MPI_F08, no -DUSE_INCLUDE_MPIF).
   MPI_ASYNC_PROTECTS_NONBLOCKING:  No. MPI_SUBARRAYS_SUPPORTED:  No.
   FFTW Interface:  OMP-capable and DEPRECATED. (Use -DUSE_MODERN_FFTW to switch to modern).
   GPU Interface:   None.
   GPU FFT Backend: None.
   GPU DGEMM:       No (dense_threshold:   0.10).
   Number of GPU devices per node (OpenACC/CUDA/total): 0/0/0.
 WARNING in get_rundat: Comms group size is incompatible with number of procs
 WARNING in get_rundat: Overriding to comms_group_size : -1
   Number of comms groups: 1. Comms group size: 7.
... done

Basic input checks...
Resetting ngwf_cg_rotate to TRUE for EDFT calculations

WARNING: The number of FFT boxes in a batch is not a multiple of the number of
OpenMP threads. Consider changing fftbox_batch_size.
... done

Reading geometry and species blocks from file "Co_cluster_1_sp-ngwfs_T_2.dat" ...... done


--------------------------------------------------------------------------------
---------------------------------- INPUT FILE ----------------------------------
--------------------------------------------------------------------------------

charge : 0 e                                                                    
comms_group_size : 8                                                            
cutoff_energy : 600 eV                                                          
delta_e_conv : F                                                                
do_properties : T                                                               
edft : T                                                                        
edft_maxit : 15                                                                 
edft_spin_fix : 0                                                               
fine_grid_scale : 4                                                             
forces_output_detail : VERBOSE                                                  
maxit_ngwf_cg : 30                                                              
ngwf_threshold_orig : 1e-06                                                     
ngwfs_spin_polarized : T                                                        
output_detail : BRIEF                                                           
paw : T                                                                         
pseudo_path : ..                                                                
read_denskern : F                                                               
read_hamiltonian : F                                                            
read_tightbox_ngwfs : F                                                         
spin : 39                                                                       
spin_polarized : T                                                              
task : SinglePoint                                                              
write_denskern : T                                                              
write_forces : T                                                                
write_hamiltonian : T                                                           
write_tightbox_ngwfs : T                                                        
xc_functional : PBE                                                             
%BLOCK LATTICE_CART                                                             
ang                                                                             
14.23456672       0.00000000       0.00000000                                   
0.00000000      14.23456672       0.00000000                                    
0.00000000       0.00000000      14.23456672                                    
%ENDBLOCK LATTICE_CART                                                          
%BLOCK POSITIONS_ABS                                                            
ang                                                                             
Co1 7.11725437806771 7.11725173218167 7.11725570101073                          
Co2 9.09289631526896 7.11733809390206 5.89725537471156                          
Co2 9.09280672556759 7.11734518487666 8.33735122628968                          
Co2 5.14153471531811 7.11732671659209 5.8971289542765                           
Co2 5.14166633227336 7.11733380756668 8.33744076307332                          
Co2 5.89725442219259 9.09289959616765 7.11733904642104                          
Co2 8.33735207297321 9.09281122357386 7.11734597864247                          
Co2 5.89713043597268 5.14153364108838 7.11732756327562                          
Co2 8.33743949304802 5.14166441665187 7.11733460133249                          
Co2 7.11733846432611 5.89725611555965 9.09289679152844                          
Co2 7.11734550238298 8.33735096170107 9.09281048272577                          
Co2 7.1173275103579 5.89712837218157 5.14153306957699                           
Co2 7.11733460133249 8.33744118641509 5.1416614532595                           
%ENDBLOCK POSITIONS_ABS                                                         
%BLOCK SPECIES                                                                  
Co1 Co 27 10 10.0                                                               
Co2 Co 27 10 10.0                                                               
%ENDBLOCK SPECIES                                                               
%BLOCK SPECIES_ATOMIC_SET                                                       
Co1 "SOLVE conf=4pX INIT SPIN=3"                                                
Co2 "SOLVE conf=4pX INIT SPIN=3"                                                
%ENDBLOCK SPECIES_ATOMIC_SET                                                    
%BLOCK SPECIES_LDOS_GROUPS                                                      
Co1                                                                             
Co2                                                                             
%ENDBLOCK SPECIES_LDOS_GROUPS                                                   
%BLOCK SPECIES_POT                                                              
Co1 Co.PBE-paw.abinit                                                           
Co2 Co.PBE-paw.abinit                                                           
%ENDBLOCK SPECIES_POT                                                           

--------------------------------------------------------------------------------
-------------------------------- END INPUT FILE --------------------------------
--------------------------------------------------------------------------------



<<<<<<<<<<<<<<<<<<<<<<<<<<<<<<<<< Full system >>>>>>>>>>>>>>>>>>>>>>>>>>>>>>>>>>
<<<<<<<<<<<<<<<<<<<<<<<<<<< PAW Dataset information >>>>>>>>>>>>>>>>>>>>>>>>>>>
File: Co.PBE-paw.abinit; rc = 2.11 bohr; shape type =  2; rshape = 1.60 bohr;
  Atomic number: 27;  ionic charge: 17.000000
    Partial Wave 1: l = 0
    Partial Wave 2: l = 0
    Partial Wave 3: l = 1
    Partial Wave 4: l = 1
    Partial Wave 5: l = 2
    Partial Wave 6: l = 2
  Core charge supplied for Nonlinear Core Corrections
<<<<<<<<<<<<<<<<<<<<<<<<<<<<<<<<<<<<<<< >>>>>>>>>>>>>>>>>>>>>>>>>>>>>>>>>>>>>>>

-------------------------- Atom counting information ---------------------------
Symbol    Natoms    Nngwfs    Nprojs
  Co        13       130       234
.......   ......    ......    ......
Totals:     13       130       234
--------------------------------------------------------------------------------

=============================== PSINC grid sizes ===============================
                      Simulation cell:   49 x  49 x  49
                              FFT-box:   49 x  49 x  49
                                  PPD:    7 x   7 x   1
================================================================================

Atom SCF Calculation for Co : Z (AE atom) =  27 : Z (PS atom) =  17
Config String: 4pX INIT SPIN=3
Orbitals (num,occ):  4     2.00 6.00 7.00 2.00
Orbitals   (num,l):  4        0    1    2    0
Atom SCF converged after  37 iterations to a total energy of   -146.10251041
Adjusting orbital occupancies:
Orbitals (num,spin,occ):  4  1     1.00 3.00 5.00 1.00
Orbitals   (num,spin,l):  4  1        0    1    2    0
Orbitals (num,spin,occ):  4  2     1.00 3.00 3.00 0.00
Orbitals   (num,spin,l):  4  2        0    1    2    0

Atom SCF Calculation for Co : Z (AE atom) =  27 : Z (PS atom) =  17
Config String: 4pX INIT SPIN=3
Orbitals (num,occ):  4     2.00 6.00 7.00 2.00
Orbitals   (num,l):  4        0    1    2    0
Atom SCF converged after  37 iterations to a total energy of   -146.10251041
Adjusting orbital occupancies:
Orbitals (num,spin,occ):  4  1     1.00 3.00 5.00 1.00
Orbitals   (num,spin,l):  4  1        0    1    2    0
Orbitals (num,spin,occ):  4  2     1.00 3.00 3.00 0.00
Orbitals   (num,spin,l):  4  2        0    1    2    0

WARNING: The number of FFT boxes in a batch is not a multiple of the number of
OpenMP threads. Consider changing fftbox_batch_size.
Calculating Ewald energy ...             1546.022822 Hartree

============================= Charge Augmentation ==============================
                           Aug box size:   33 x  33 x  33
================================================================================

================================= Core Density =================================
               Core den box size:   33 x  33 x  33
================================================================================
Density kernel initialisation

################################################################################
###################### NGWF self-consistent optimisation #######################
################################################################################
|ITER|    RMS GRADIENT   |     TOTAL ENERGY    |   step   |     Epredicted      
***** EDFT WARNING:
* The Fermi-Dirac distribution is truncated
  and the occupancies might be unphysical,
  leading to wrong results.
* Ensure you have a sufficient number of NGWFs to hold all your electrons -- examine the output from the atomsolver (look for 'Atom SCF Calculation' in the output).
* It is recommended to increase edft_extra_bands.
* If the problem persists, try setting edft_extra_bands = -1
  to use all possible molecular orbitals.
* If still it does not work, try adding more NGWFs per atom.
   0     0.00107206874824  -1900.84236974742112   0.403296  -1901.60520358234453        
   1     0.00057023691353  -1901.62611376150562   1.182013  -1902.26121132610660        
   2     0.00073259626796  -1901.84984125495930   1.217085  -1902.19875721224594        
   3     0.00099693153744  -1901.07347345337075   0.596589  -1902.04928606404587        
   4     0.00069158648088  -1901.94253244209267   0.462615  -1902.27165253157818        
   5     0.00028116712011  -1902.24921100237975   0.676478  -1902.33143617465862        
   6     0.00017702832507  -1902.32682013687008   0.975708  -1902.37368183048147        
   7     0.00018194047547  -1902.34854120836803   0.309337  -1902.36539318272867        
   8     0.00007064778475  -1902.36828401775756   0.976351  -1902.37746030814242        
   9     0.00008580264084  -1902.37324294265841   0.926648  -1902.37846276359255        
  10     0.00011551427236  -1902.36969960782062  -0.027486  -1902.87962619592486        
  11     0.00011631063288  -1902.36944970468130   0.713475  -1902.38533439365733        
  12     0.00006620255359  -1902.38201035300085   0.346604  -1902.38397917086081        
  13     0.00003162295893  -1902.38422104437200   0.724646  -1902.38552063739803        
  14     0.00003451091202  -1902.38529515473101   0.749349  -1902.38651415838058        
  15     0.00004120535553  -1902.38587050948763   0.632940  -1902.38763911484716        
  16     0.00002284102461  -1902.38750694580153   0.472250  -1902.38787952864482        
  17     0.00001637721809  -1902.38791716657988   6.214089  -1902.39094317495596        
  18     0.00009585840676  -1902.38215468892599   0.463122  -1902.38915821487240        
  19     0.00003484379700  -1902.38936161835863   0.381754  -1902.39013784189979        
  20     0.00001143464159  -1902.39021363232246   0.508535  -1902.39032924619346        
  21     0.00000802966706  -1902.39028591685633   0.530856  -1902.39034224593843        
  22     0.00001378477706  -1902.39033390460372   0.181583  -1902.39039068986176        
  23     0.00000551111582  -1902.39039884817066   0.290636  -1902.39041337561548        
  24     0.00000883528284  -1902.39040720690400   0.189636  -1902.39043156945309        
  25     0.00000559354215  -1902.39043224899183   0.583357  -1902.39046228683333        
  26     0.00001178871837  -1902.39043236379598   0.366996  -1902.39051630109361        
  27     0.00000421638027  -1902.39050982443405   0.344451  -1902.39051990229245        
  28     0.00000842668634  -1902.39050871377367   0.278572  -1902.39054126832730        
  29     0.00000464189159  -1902.39053896773248   1.448314  -1902.39059032635942        

================================================================================
           ---------------- ENERGY COMPONENTS (Eh) ----------------
           | Kinetic                    :      152.66680700015547 |
           | Core Hartree               :    -7002.10792577376560 |
           | CoreHart (non-coul chg cor):        0.00000000000000
           | Hartree                    :     3107.31015690469849 |
           | Exchange-correlation       :      -39.87304076301363 |
           | Ewald                      :     1546.02282206798623 |
           | Dij0                       :      418.46616796195019 |
           | Dijhartree                 :      105.13681112395311 |
           | Exc [AE core]              :     -769.00913520645270 |
           | Exc DC [AE core]           :     -275.64982410685820 |
           | Exc [PS core]              :      -33.67604629935711 |
           | Exc DC [PS core]           :      -44.12989289877618 |
           | Exc [Core]                 :     -545.34952823147160 |
           | Total [Sphere]             :      333.61941841027925 |
           | Total                      :    -1902.36176215366004 |
           |------------------------------------------------------|
           | Entropic contribution      :       -0.02862512607180 |
           | Total free energy          :    -1902.39038727973184 |
           --------------------------------------------------------
           Integrated compensation chrg.:      130.55527368341731
           Integrated density           :      221.00000000010141
           Integrated spin density      :       29.40531277331421
           Integrated |spin density|    :       11.41632062614941
           Fermi level of spin Up       :       -0.09332278019251
           Fermi level of spin Down     :       -0.09332278019251
================================================================================

WARNING: maximum number of NGWF CG iterations (  30) exceeded!
  29     0.00000464189159  -1902.39038727973184  <-- CG                                 

======================== Writing density and potential =========================
Writing "Co_cluster_1_sp-ngwfs_T_2_ps_density.cube" ... done
Writing "Co_cluster_1_sp-ngwfs_T_2_ps_spindensity.cube" ... done
Writing "Co_cluster_1_sp-ngwfs_T_2_ae_density.cube" ... done
Writing "Co_cluster_1_sp-ngwfs_T_2_ae_spindensity.cube" ... done
Writing "Co_cluster_1_sp-ngwfs_T_2_potential.cube" ... done
Writing "Co_cluster_1_sp-ngwfs_T_2_electrostatic_potential.cube" ... done
================================================================================

    Mulliken Atomic Populations
    ---------------------------
Species  Ion    Total   Charge (e)    Spin (hbar)
=================================================
  Co     1      16.855      0.145      0.95
  Co     2      17.012     -0.012      1.15
  Co     3      17.012     -0.012      1.15
  Co     4      17.013     -0.013      1.15
  Co     5      17.012     -0.012      1.15
  Co     6      17.012     -0.012      1.15
  Co     7      17.012     -0.012      1.15
  Co     8      17.013     -0.013      1.15
  Co     9      17.012     -0.012      1.15
  Co    10      17.012     -0.012      1.15
  Co    11      17.012     -0.012      1.15
  Co    12      17.013     -0.013      1.15
  Co    13      17.012     -0.012      1.15
=================================================

        Bond         Population      Spin       Length (bohr)
=============================================================
 Co    1 -- Co    3        0.02     -0.02      4.38784
 Co    1 -- Co   11        0.02     -0.02      4.38785
 Co    1 -- Co    7        0.02     -0.02      4.38786
 Co    1 -- Co   10        0.02     -0.02      4.38789
 Co    1 -- Co    2        0.02     -0.02      4.38789
 Co    1 -- Co    6        0.02     -0.02      4.38790
 Co    1 -- Co    9        0.02     -0.02      4.38799
 Co    1 -- Co    5        0.02     -0.02      4.38799
 Co    1 -- Co   13        0.02     -0.02      4.38801
 Co    1 -- Co    8        0.02     -0.02      4.38814
 Co    1 -- Co    4        0.02     -0.02      4.38814
 Co    1 -- Co   12        0.02     -0.02      4.38815
 Co   10 -- Co   11        0.00     -0.08      4.61111
 Co    2 -- Co    3        0.00     -0.08      4.61111
 Co    6 -- Co    7        0.00     -0.08      4.61112
 Co    8 -- Co    9        0.00     -0.08      4.61152
 Co    4 -- Co    5        0.00     -0.08      4.61152
 Co   12 -- Co   13        0.00     -0.08      4.61152
 Co    3 -- Co   11       -0.00     -0.07      4.61402
 Co    3 -- Co    7       -0.00     -0.07      4.61403
 Co    7 -- Co   11       -0.00     -0.07      4.61403
 Co    3 -- Co   10       -0.00     -0.07      4.61416
 Co    2 -- Co    7       -0.00     -0.07      4.61417
 Co    6 -- Co   11       -0.00     -0.07      4.61417
 Co    5 -- Co   11       -0.00     -0.07      4.61431
 Co    3 -- Co    9       -0.00     -0.07      4.61431
 Co    7 -- Co   13       -0.00     -0.07      4.61432
 Co    9 -- Co   10       -0.00     -0.07      4.61434
 Co    2 -- Co   13       -0.00     -0.07      4.61435
 Co    5 -- Co    6       -0.00     -0.07      4.61435
 Co    5 -- Co   10       -0.00     -0.07      4.61441
 Co    2 -- Co    9       -0.00     -0.07      4.61441
 Co    6 -- Co   13       -0.00     -0.07      4.61442
 Co    8 -- Co   10       -0.00     -0.07      4.61453
 Co    2 -- Co   12       -0.00     -0.07      4.61453
 Co    4 -- Co    6       -0.00     -0.07      4.61454
 Co    5 -- Co    8       -0.00     -0.07      4.61464
 Co    9 -- Co   12       -0.00     -0.07      4.61464
 Co    4 -- Co   13       -0.00     -0.07      4.61465
 Co    4 -- Co   12       -0.00     -0.07      4.61479
 Co    4 -- Co    8       -0.00     -0.07      4.61479
 Co    8 -- Co   12       -0.00     -0.07      4.61479
=============================================================


============== Orbital energy and occupancy information for spin 1 =============

      Total number of orbitals:     130
        Occupancy sum (kernel):     125.202656387
   Occupancy sum (eigenvalues):     125.202656387
                 HOMO-LUMO gap:       0.031836202 Eh
                 Mid-gap level:      -0.082619483 Eh

                        Orbital | Energy (Eh) | Occupancy
                            1    -3.654834305   1.0000000
                        .......   ...........   .........
                          117    -0.146533075   0.9999998
                          118    -0.146532918   0.9999998
                          119    -0.136946776   0.9999990
                          120    -0.136946744   0.9999990
                          121    -0.136946263   0.9999990
                          122    -0.098555744   0.8408483
                          123    -0.098555634   0.8408436
                          124    -0.098537947   0.8402529
                          125    -0.098537667   0.8402357
                          126    -0.098537584   0.8402324
                        ....... -- gap at 0K -- .........
                          127    -0.066701382   0.0002485
                          128     0.005888709   0.0000006
                          129     0.005888821   0.0000006
                          130     0.005890349   0.0000002

================================================================================

============== Orbital energy and occupancy information for spin 2 =============

      Total number of orbitals:     130
        Occupancy sum (kernel):      95.797343613
   Occupancy sum (eigenvalues):      95.797343613
                 HOMO-LUMO gap:       0.000000091 Eh
                 Mid-gap level:      -0.090445755 Eh

                        Orbital | Energy (Eh) | Occupancy
                            1    -3.567650286   1.0000000
                        .......   ...........   .........
                           87    -0.111593647   0.9968740
                           88    -0.111589950   0.9968705
                           89    -0.111589845   0.9968704
                           90    -0.111549892   0.9968536
                           91    -0.111549752   0.9968535
                           92    -0.099292781   0.8738530
                           93    -0.099292734   0.8738426
                           94    -0.099292717   0.8738422
                           95    -0.090445843   0.2897047
                           96    -0.090445801   0.2896790
                        ....... -- gap at 0K -- .........
                           97    -0.090445710   0.2896756
                           98    -0.090421058   0.3007619
                           99    -0.087886285   0.1536147
                          100    -0.087886257   0.1536136
                          101    -0.087885734   0.1536203
                          102    -0.087385894   0.1346667
                          103    -0.087162793   0.1263063
                          104    -0.087162586   0.1263059
                          105    -0.087162535   0.1263033
                          106    -0.078248681   0.0085691
                        .......   ...........   .........
                          130     0.047789262   0.0000008

================================================================================

===================== Writing canonical molecular orbitals =====================
    Spin 1
| Orbital  Energy (eV)  Norm     |
| HOMO-5   -3.72649743  1.000000 | Writing "Co_cluster_1_sp-ngwfs_T_2_HOMO-5_UP.cube" ... done
| HOMO-4   -2.68183826  1.000000 | Writing "Co_cluster_1_sp-ngwfs_T_2_HOMO-4_UP.cube" ... done
| HOMO-3   -2.68183527  1.000000 | Writing "Co_cluster_1_sp-ngwfs_T_2_HOMO-3_UP.cube" ... done
| HOMO-2   -2.68135396  1.000000 | Writing "Co_cluster_1_sp-ngwfs_T_2_HOMO-2_UP.cube" ... done
| HOMO-1   -2.68134637  1.000000 | Writing "Co_cluster_1_sp-ngwfs_T_2_HOMO-1_UP.cube" ... done
| HOMO     -2.68134409  1.000000 | Writing "Co_cluster_1_sp-ngwfs_T_2_HOMO_UP.cube" ... done
| LUMO     -1.81503696  1.000000 | Writing "Co_cluster_1_sp-ngwfs_T_2_LUMO_UP.cube" ... done
| LUMO+1    0.16023993  1.000000 | Writing "Co_cluster_1_sp-ngwfs_T_2_LUMO+1_UP.cube" ... done
| LUMO+2    0.16024296  1.000000 | Writing "Co_cluster_1_sp-ngwfs_T_2_LUMO+2_UP.cube" ... done
| LUMO+3    0.16028456  1.000000 | Writing "Co_cluster_1_sp-ngwfs_T_2_LUMO+3_UP.cube" ... done
================================================================================

===================== Writing canonical molecular orbitals =====================
    Spin 2
| Orbital  Energy (eV)  Norm     |
| HOMO-5   -3.03542320  1.000000 | Writing "Co_cluster_1_sp-ngwfs_T_2_HOMO-5_DN.cube" ... done
| HOMO-4   -2.70189407  1.000000 | Writing "Co_cluster_1_sp-ngwfs_T_2_HOMO-4_DN.cube" ... done
| HOMO-3   -2.70189278  1.000000 | Writing "Co_cluster_1_sp-ngwfs_T_2_HOMO-3_DN.cube" ... done
| HOMO-2   -2.70189231  1.000000 | Writing "Co_cluster_1_sp-ngwfs_T_2_HOMO-2_DN.cube" ... done
| HOMO-1   -2.46115662  1.000000 | Writing "Co_cluster_1_sp-ngwfs_T_2_HOMO-1_DN.cube" ... done
| HOMO     -2.46115547  1.000000 | Writing "Co_cluster_1_sp-ngwfs_T_2_HOMO_DN.cube" ... done
| LUMO     -2.46115300  1.000000 | Writing "Co_cluster_1_sp-ngwfs_T_2_LUMO_DN.cube" ... done
| LUMO+1   -2.46048218  1.000000 | Writing "Co_cluster_1_sp-ngwfs_T_2_LUMO+1_DN.cube" ... done
| LUMO+2   -2.39150749  1.000000 | Writing "Co_cluster_1_sp-ngwfs_T_2_LUMO+2_DN.cube" ... done
| LUMO+3   -2.39150674  1.000000 | Writing "Co_cluster_1_sp-ngwfs_T_2_LUMO+3_DN.cube" ... done
| LUMO+4   -2.39149250  1.000000 | Writing "Co_cluster_1_sp-ngwfs_T_2_LUMO+4_DN.cube" ... done
| LUMO+5   -2.37789118  1.000000 | Writing "Co_cluster_1_sp-ngwfs_T_2_LUMO+5_DN.cube" ... done
================================================================================

================== Local Density of States (LDOS) calculation ==================
Writing "Co_cluster_1_sp-ngwfs_T_2_UP_LDOS.txt" ...  done
================================================================================

================== Local Density of States (LDOS) calculation ==================
Writing "Co_cluster_1_sp-ngwfs_T_2_DN_LDOS.txt" ...  done
================================================================================
 
=============== Density of States (DOS) calculation for UP spin ================
Writing "Co_cluster_1_sp-ngwfs_T_2_UP_DOS.txt" ...  done
================================================================================
 
============== Density of States (DOS) calculation for DOWN spin ===============
Writing "Co_cluster_1_sp-ngwfs_T_2_DN_DOS.txt" ...  done
================================================================================
 
Writing bands to file "Co_cluster_1_sp-ngwfs_T_2.val_bands" ... done

================================= Core Density =================================
               Core den box size:   33 x  33 x  33
================================================================================
 
********************* Unconstrained **********************
********************** Ewald forces **********************
*                                                        *
* Element  Atom         Cartesian components (Eh/a)      *
* ------------------------------------------------------ *
*                       x            y            z      *
*                                                        *
*    Co      1     -0.00688871  -0.00675583  -0.00695042 *
*    Co      2     61.99669329  -0.00053593 -38.46726875 *
*    Co      3     61.99939696  -0.00056266  38.46788006 *
*    Co      4    -61.99270003  -0.00050957 -38.46438296 *
*    Co      5    -61.99577037  -0.00053836  38.46531902 *
*    Co      6    -38.46721651  61.99663065  -0.00058858 *
*    Co      7     38.46781448  61.99928680  -0.00061045 *
*    Co      8    -38.46443547 -61.99276476  -0.00055608 *
*    Co      9     38.46537737 -61.99577455  -0.00057726 *
*    Co     10     -0.00056971 -38.46730837  61.99677944 *
*    Co     11     -0.00059575  38.46790598  61.99931767 *
*    Co     12     -0.00053941 -38.46436612 -61.99273037 *
*    Co     13     -0.00056613  38.46529272 -61.99563132 *
*                                                        *
**********************************************************
TOTAL:             -0.00000000   0.00000000   0.00000000
 
********************* Unconstrained **********************
***************** Local potential forces *****************
*                                                        *
* Element  Atom         Cartesian components (Eh/a)      *
* ------------------------------------------------------ *
*                       x            y            z      *
*                                                        *
*    Co      1      0.00580175   0.00568723   0.00585562 *
*    Co      2    -62.11547718   0.00005585  38.53949608 *
*    Co      3    -62.11755565   0.00007981 -38.54070528 *
*    Co      4     62.11149719   0.00003396  38.53722608 *
*    Co      5     62.11392462   0.00005998 -38.53874476 *
*    Co      6     38.53945027 -62.11541239   0.00009792 *
*    Co      7    -38.54064235 -62.11744735   0.00011696 *
*    Co      8     38.53727555  62.11155952   0.00006988 *
*    Co      9    -38.53879618  62.11393034   0.00008825 *
*    Co     10      0.00008199  38.53954052 -62.11555619 *
*    Co     11      0.00010538 -38.54072293 -62.11748266 *
*    Co     12      0.00005634  38.53721789  62.11152041 *
*    Co     13      0.00008043 -38.53871416  62.11379185 *
*                                                        *
**********************************************************
TOTAL:             -0.00419784  -0.00413174  -0.00422585
 
********************* Unconstrained **********************
************** Compensation density forces ***************
*                                                        *
* Element  Atom         Cartesian components (Eh/a)      *
* ------------------------------------------------------ *
*                       x            y            z      *
*                                                        *
*    Co      1      0.00065485   0.00064299   0.00066000 *
*    Co      2     -0.01092954   0.00030823   0.00808588 *
*    Co      3     -0.01138404   0.00030981  -0.00775576 *
*    Co      4      0.01078800   0.00030595   0.00760900 *
*    Co      5      0.01125940   0.00030749  -0.00729143 *
*    Co      6      0.00808073  -0.01092938   0.00031493 *
*    Co      7     -0.00775272  -0.01138093   0.00031650 *
*    Co      8      0.00761164   0.01079063   0.00031260 *
*    Co      9     -0.00729598   0.01125876   0.00031415 *
*    Co     10      0.00031292   0.00808419  -0.01093512 *
*    Co     11      0.00031451  -0.00776077  -0.01137909 *
*    Co     12      0.00031063   0.00760405   0.01079249 *
*    Co     13      0.00031218  -0.00729308   0.01125306 *
*                                                        *
**********************************************************
TOTAL:              0.00228259   0.00224796   0.00229721
 
********************* Unconstrained **********************
*************** Non-local potential forces ***************
*                                                        *
* Element  Atom         Cartesian components (Eh/a)      *
* ------------------------------------------------------ *
*                       x            y            z      *
*                                                        *
*    Co      1      0.00005520   0.00005442   0.00005562 *
*    Co      2      0.12913520   0.00003041  -0.08095095 *
*    Co      3      0.12918557   0.00002982   0.08106626 *
*    Co      4     -0.12891714   0.00003108  -0.08084246 *
*    Co      5     -0.12897883   0.00003051   0.08096637 *
*    Co      6     -0.08095080   0.12913310   0.00003191 *
*    Co      7      0.08106474   0.12918309   0.00003135 *
*    Co      8     -0.08084402  -0.12891930   0.00003267 *
*    Co      9      0.08096646  -0.12898039   0.00003212 *
*    Co     10      0.00003145  -0.08095378   0.12913666 *
*    Co     11      0.00003086   0.08106457   0.12918533 *
*    Co     12      0.00003213  -0.08084450  -0.12891666 *
*    Co     13      0.00003155   0.08096395  -0.12897653 *
*                                                        *
**********************************************************
TOTAL:              0.00084235   0.00082299   0.00085169
 
********************* Unconstrained **********************
************ NGWF non self-consistent forces *************
*                                                        *
* Element  Atom         Cartesian components (Eh/a)      *
* ------------------------------------------------------ *
*                       x            y            z      *
*                                                        *
*    Co      1      0.00022235   0.00022018   0.00022304 *
*    Co      2      0.00173289   0.00008155  -0.00037365 *
*    Co      3      0.00159852   0.00008327   0.00044925 *
*    Co      4     -0.00180518   0.00007875  -0.00053237 *
*    Co      5     -0.00166754   0.00008048   0.00060152 *
*    Co      6     -0.00037446   0.00173323   0.00008225 *
*    Co      7      0.00045018   0.00159942   0.00008400 *
*    Co      8     -0.00053139  -0.00180415   0.00007942 *
*    Co      9      0.00060073  -0.00166705   0.00008118 *
*    Co     10      0.00008219  -0.00037338   0.00173164 *
*    Co     11      0.00008388   0.00044888   0.00159916 *
*    Co     12      0.00007930  -0.00053264  -0.00180448 *
*    Co     13      0.00008101   0.00060174  -0.00166874 *
*                                                        *
**********************************************************
TOTAL:              0.00055247   0.00055030   0.00055222
 
********************* Unconstrained **********************
********************** NLCC forces ***********************
*                                                        *
* Element  Atom         Cartesian components (Eh/a)      *
* ------------------------------------------------------ *
*                       x            y            z      *
*                                                        *
*    Co      1      0.00000000   0.00000000   0.00000000 *
*    Co      2     -0.00000000   0.00000000   0.00000000 *
*    Co      3     -0.00000000   0.00000000  -0.00000000 *
*    Co      4      0.00000000   0.00000000   0.00000000 *
*    Co      5      0.00000000   0.00000000  -0.00000000 *
*    Co      6      0.00000000  -0.00000000   0.00000000 *
*    Co      7     -0.00000000  -0.00000000   0.00000000 *
*    Co      8      0.00000000   0.00000000   0.00000000 *
*    Co      9     -0.00000000   0.00000000   0.00000000 *
*    Co     10      0.00000000   0.00000000  -0.00000000 *
*    Co     11      0.00000000  -0.00000000  -0.00000000 *
*    Co     12      0.00000000   0.00000000   0.00000000 *
*    Co     13      0.00000000  -0.00000000   0.00000000 *
*                                                        *
**********************************************************
TOTAL:             -0.00000000  -0.00000000  -0.00000000
 
********************* Unconstrained **********************
****** Correction to ensure the total force is zero ******
*                                                        *
* Element  Atom         Cartesian components (Eh/a)      *
* ------------------------------------------------------ *
*                       x            y            z      *
*                                                        *
*    Co      1      0.00004003   0.00003927   0.00004036 *
*    Co      2      0.00004003   0.00003927   0.00004036 *
*    Co      3      0.00004003   0.00003927   0.00004036 *
*    Co      4      0.00004003   0.00003927   0.00004036 *
*    Co      5      0.00004003   0.00003927   0.00004036 *
*    Co      6      0.00004003   0.00003927   0.00004036 *
*    Co      7      0.00004003   0.00003927   0.00004036 *
*    Co      8      0.00004003   0.00003927   0.00004036 *
*    Co      9      0.00004003   0.00003927   0.00004036 *
*    Co     10      0.00004003   0.00003927   0.00004036 *
*    Co     11      0.00004003   0.00003927   0.00004036 *
*    Co     12      0.00004003   0.00003927   0.00004036 *
*    Co     13      0.00004003   0.00003927   0.00004036 *
*                                                        *
**********************************************************
TOTAL:              0.00052042   0.00051050   0.00052474

********************* Unconstrained **********************
************************* Forces *************************
*                                                        *
* Element  Atom         Cartesian components (Eh/a)      *
* ------------------------------------------------------ *
*                       x            y            z      *
*                                                        *
*    Co      1     -0.00011452  -0.00011173  -0.00011578 *
*    Co      2      0.00119469  -0.00002061  -0.00097102 *
*    Co      3      0.00128138  -0.00002068   0.00097490 *
*    Co      4     -0.00109712  -0.00002056  -0.00088235 *
*    Co      5     -0.00119269  -0.00002064   0.00089108 *
*    Co      6     -0.00097074   0.00119447  -0.00002121 *
*    Co      7      0.00097437   0.00128029  -0.00002127 *
*    Co      8     -0.00088367  -0.00109879  -0.00002115 *
*    Co      9      0.00089243  -0.00119362  -0.00002121 *
*    Co     10     -0.00002113  -0.00097154   0.00119680 *
*    Co     11     -0.00002109   0.00097500   0.00128078 *
*    Co     12     -0.00002097  -0.00088204  -0.00109825 *
*    Co     13     -0.00002093   0.00089044  -0.00119132 *
*                                                        *
**********************************************************
* TOTAL:            0.00000000   0.00000000   0.00000000 *
**********************************************************
 
 
***********************************************************
********** Summary of Forces (values in Eh/a) *************
*                                                         *
* ---------------------- Minimum ------------------------ *
* Atom:         1, |F|min =    0.00019749                 *
* Components:     Fx|min       Fy|min       Fz|min        *
*              -0.00011452  -0.00011173  -0.00011578      *
*                                                         *
* ---------------------- Maximum ------------------------ *
* Atom:         3, |F|max =    0.00161021                 *
* Components:     Fx|max       Fy|max       Fz|max        *
*               0.00128138  -0.00002068   0.00097490      *
*                                                         *
* ---------------- Root Mean Square Force --------------- *
*                  |F|rms =    0.00145539                 *
* Components:     Fx|rms       Fy|rms       Fz|rms        *
*               0.00084030   0.00084022   0.00084029      *
***********************************************************
 

------------------------------ TIMING INFORMATION ------------------------------
AVERAGE TIME:    6370.126s on      7 proc(s)                                    
TOTAL TIME:      6370.126s on      7 proc(s)                                    
==================== AVERAGE TIMINGS FROM ALL PROCS (CUMULATIVE) =====================
|| TAG                                         #calls     cpu time   %total  Gflops ||
|| hash_table_free                            :    65        0.00s   0.000%  ------ ||
|| ewald_calculate_forces_realspace           :     1        0.00s   0.000%  ------ ||
|| onetep.F90 main loop imbalance             :     1        0.00s   0.000%  ------ ||
|| onetep.F90 final imbalance                 :     1        0.00s   0.000%  ------ ||
|| ewald_calculate_forces_recipspace          :     1        0.00s   0.000%  ------ ||
|| ewald_calculate_energy                     :     1        0.00s   0.000%  ------ ||
|| ewald_calculate_forces                     :     1        0.00s   0.000%  ------ ||
|| sparse_init                                :     1        0.01s   0.000%  ------ ||
|| sparse_set_to_garbage                      :   774        0.01s   0.000%  ------ ||
|| sw_bessel_init_cpu                         :     1        0.06s   0.001%  ------ || (1 procs only)
|| paw_tcore_density                          :     1        0.01s   0.000%  ------ ||
|| density_fftbox_interp_mult_imbal           : 54080        0.01s   0.000%  ------ ||
|| pseudo_make_structure_factor               :     1        0.03s   0.000%  ------ ||
|| linalg_dgemv                               :    54        0.04s   0.001%  ------ ||
|| paw_tcore_hartree_on_grid                  :     1        0.05s   0.001%  ------ ||
|| sparse_blacstospam3_real_fast_imbal        :  5274        0.11s   0.002%  ------ ||
|| augmentation_density_forces                :     1        0.12s   0.002%  ------ ||
|| basis_extract_function_from_box            :  2302        0.13s   0.002%  ------ ||
|| sw_init                                    :  2703        0.14s   0.002%  ------ ||
|| paw_tcore_hartree_calc_forces              :     1        0.19s   0.003%  ------ ||
|| paw_sphere_density_on_grid                 :     1        0.25s   0.004%  ------ ||
|| restart_hamiltonian_write                  :    31        0.33s   0.005%  ------ ||
|| sparse_spam3toblacs_real_fast_imbal        :  5324        0.35s   0.005%  ------ ||
|| restart_kernel_write                       :    32        0.35s   0.006%  ------ ||
|| integrals_grad_spam3                       :     2        0.48s   0.008%  ------ ||
|| nonsc_forces_ngwfs_calc                    :     1        0.48s   0.008%  ------ ||
|| sparse_spam3toblacs_real_fast_B2           : 37268        0.49s   0.008%  ------ ||
|| sparse_embed_array_hotelling_invert        :    65        0.60s   0.009%  ------ ||
|| paw_nlcc_calculate_forces                  :     1        0.82s   0.013%  ------ ||
|| paw_dij_hartree                            :  1790        1.06s   0.017%  ------ ||
|| sparse_spam3toblacs_real_fast_B1           : 37268        1.11s   0.017%  ------ ||
|| ngwfs_initialise_from_radial               :     2        1.22s   0.019%  ------ ||
|| paw_dataset_init                           :     1        1.60s   0.025%  ------ ||
|| density_init_guess_real                    :     2        1.92s   0.030%  ------ ||
|| projectors_func_grad_ovlp_box_spam3        :     6        2.72s   0.043%  ------ ||
|| sparse_spam3toblacs_real_fast              :  5324        3.03s   0.048%  ------ ||
|| eigenstates_calculate                      :     1        3.14s   0.049%  ------ ||
|| aug_nl_calculate_forces                    :     1        3.22s   0.050%  ------ ||
|| hamiltonian_energy_components              :     1        3.52s   0.055%  ------ ||
|| sparse_blacstospam3_real_fast              :  5274        3.71s   0.058%  ------ ||
|| fourier_apply_box_pair                     :  3528        4.07s   0.064%  60.150 ||
|| sparse_trace                               : 33314        5.33s   0.084%  ------ ||
|| paw_species_calc_proj_prec_mat             :    31        6.30s   0.099%  ------ ||
|| energy_and_force_init_cell                 :     1        6.53s   0.102%  ------ ||
|| forces_calculate                           :     1        9.24s   0.145%  ------ ||
|| cell_grid_extract_box_real                 : 23114       12.27s   0.193%  ------ ||
|| ngwf_gradient_coeffs                       :    31       14.48s   0.227%  ------ ||
|| projectors_init_fftbox_recip               :   415       14.82s   0.233%  ------ ||
|| function_ops_brappd_ketppd_spam3           :   258       16.07s   0.252%  ------ ||
|| dense_eigensolve                           :  2564       19.09s   0.300%  ------ ||
|| integrals_kinetic_spam3                    :   130       19.77s   0.310%  ------ ||
|| basis_copy_function_to_box                 : 69457       19.81s   0.311%  ------ ||
|| edft_diag_ngwf_ham                         :  2562       22.05s   0.346%  ------ ||
|| sparse_product                             : 29978       31.83s   0.500%  ------ ||
|| fourier_filter_cell                        :   884       38.90s   0.611%  10.914 ||
|| edft_apply_smearing_operator               :  1281       46.53s   0.730%  ------ ||
|| density_fftbox_deposit_to_cell             : 54080       49.34s   0.775%  ------ ||
|| projectors_func_ovlp_box_spam3             :   130       55.26s   0.867%  ------ ||
|| properties_calculate                       :     1       56.65s   0.889%  ------ ||
|| cell_grid_deposit_box_real                 : 59942       58.18s   0.913%  ------ ||
|| hartree_on_grid_single                     :  1351       97.97s   1.538%  ------ ||
|| basis_dot_function_with_box                : 2.734M     102.96s   1.616%  ------ ||
|| projectors_grad_precond_batch              :   124      113.96s   1.789%  ------ ||
|| projectors_gradient_batch                  :   124      121.25s   1.903%  ------ ||
|| augmentation_screen_dij_spam3              :  1350      134.28s   2.108%  ------ ||
|| fourier_interpolate_cell                   :  2704      148.43s   2.330%   8.749 ||
|| integrals_locpot_mat_els_batch             :  1644      224.96s   3.531%  ------ ||
|| restart_ngwfs_tightbox_output              :    30      259.29s   4.070%  ------ ||
|| ngwf_gradient_build_batch                  :   124      288.80s   4.534%  ------ ||
|| basis_add_function_to_box                  : 7.127M     340.70s   5.348%  ------ ||
|| aug_density_on_grid_spam3                  :  1352      343.80s   5.397%  ------ ||
|| fourier_apply_cell_backward                : 12160      348.82s   5.476%  15.092 ||
|| potential_apply_to_ngwf_batch              :  1644      351.75s   5.522%  ------ ||
|| fourier_apply_cell_forward                 : 12160      438.09s   6.877%  12.017 ||
|| ngwf_gradient_batch                        :   124      448.08s   7.034%  ------ ||
|| ngwf_gradient_lnv                          :    31      487.38s   7.651%  ------ ||
|| fourier_apply_box                          : 172.2k     562.84s   8.836%  89.356 ||
|| integrals_locpot_dbl_grid                  :   822      578.50s   9.081%  ------ ||
|| density_batch_row_sums                     :  5408      633.47s   9.944%  ------ ||
|| aug_nonlocal_mat_spam3_embed_array         :  1758      782.41s  12.282%  ------ ||
|| paw_dij_xc                                 :  1790      785.39s  12.329%  ------ ||
|| density_fftbox_interpolate_multiply        : 54080      902.69s  14.171%  ------ ||
|| xc_energy_potential                        :  1351     1078.00s  16.923%  ------ ||
|| density_batch_interp_deposit               :  5408     1122.43s  17.620%  ------ ||
|| density_on_dbl_grid                        :  2704     1956.05s  30.707%  ------ ||
|| hamiltonian_lhxc_calculate                 :  1348     3984.92s  62.556%  ------ ||
|| edft_calculate                             :    31     5321.48s  83.538%  ------ ||
|| ngwf_cg_optimise                           :     1     6288.53s  98.719%  ------ ||
|| energy_and_forces                          :     1     6363.14s  99.890%  ------ ||
|| total_time                                 :     1     6370.13s 100.000%  ------ ||
======================================================================================
Overhead of generating timer report: 
- 0 ms averaging over threads,
- 0 ms ensuring consistency across MPI ranks,
- 1 ms printing in order.

Job completed: 26-03-2025 19:37 (+0000)

