==================================================================================
It's Fri 28 Mar 2025 10:56:59 PM GMT.
*** Starting onetep_launcher (node nid006051, PIDs 91826 91827 91828 91829 91830 91831 91832 91833 91834 91835 91836 91837 91838)...
    - ONETEP arguments: Co_cluster2_sp_T_4PX.dat
    - Current directory: /mnt/lustre/a2fs-work3/work/e89/e89/phsmea/Co_clusters_archer/Co_cluster2/sp/4PX
    - Launcher executable directory: /mnt/lustre/a2fs-work3/work/e89/e89/phsmea/Co_clusters_archer
    - (-e) ONETEP executable specified through command-line: /work/e89/e89/phsmea/onetep.archer2_2024_cray
      ... trying /work/e89/e89/phsmea/onetep.archer2_2024_cray
          -> looks OK
*** Setting up environment...
    - (-s) Process stack size: unlimited
    - (-t) OMP_NUM_THREADS: 8
    - (-o) OMP_STACKSIZE: 64M
    - (-c) Maximum core file size: 2048000
    - (-d) decfort_dump_flag: n
    - (-m) I_MPI_OFA_TRANSLATION_CACHE: 0
    - (-m) I_MPI_DAPL_TRANSLATION_CACHE: 0
    - (-m) I_MPI_DAPL_UD_TRANSLATION_CACHE: 0
*** Starting ONETEP...
    - /work/e89/e89/phsmea/onetep.archer2_2024_cray Co_cluster2_sp_T_4PX.dat
=================================================================================
_________________________________________________________________________________
 +---------------------------------------------------------------+
 |                                                               |
 |        ####### #     # ####### ####### ####### ######         |
 |        #     # ##    # #          #    #       #     #        |
 |        #     # # #   # #          #    #       #     #        |
 |        #     # #  #  # #####      #    #####   ######         |
 |        #     # #   # # #          #    #       #              |
 |        #     # #    ## #          #    #       #              |
 |        ####### #     # #######    #    ####### #              |
 |                                                               |
 |        Linear-Scaling Ab Initio Total Energy Program          |
 |                                                               |
 |          Release for academic collaborators of ODG            |
 |                                             Version 7.3.0     |
 | Remote: git@github.com:Miesaz/onetep_mea.git                  |
 | Local branch: master                                          |
 | Commit ID: 4af45e89288c8df5499704252eec3e032ee3d0c8           |
 | Date: Tue Aug 6 11:28:44 2024 +0100                           |
 | Working tree clean                                            |
 |                                                               |
 +---------------------------------------------------------------+
 |                                                               |
 |  Authors:                                                     |
 |  Jacek Dziedzic, Peter D. Haynes, Nicholas D. M. Hine,        |
 |  Arash A. Mostofi, Mike C. Payne and Chris-Kriton Skylaris    |
 |                                                               |
 |  Contributors:                                                |
 |  J. Aarons, L. Andrinopoulos, P. W. Avraam, R. A. Bell,       |
 |  A. Bhandari, G. A. Bramley, R. J. Charlton, S. J. Clark,     |
 |  R. J. Clements, G. C. Constantinescu, F. Corsetti,           |
 |  N. Corsini, O. Dieguez, S. M. M. Dubois, K. K. B. Duff,      |
 |  J. M. Escartin, M. Escobar Azor, A. Greco,                   |
 |  H. Helal, Q. O. Hill, L. P. Lee, J.-H. Li,                   |
 |  T. Li, E. B. Linscott, G. Moynihan, D. D. O`Regan,           |
 |  O. K. Okan, E. Parkinson, M. J. S. Phipps,                   |
 |  C. J. Pickard, J. C. A. Prentice, M. I. J. Probert,          |
 |  L. E. Ratcliff, M. Robinson, A. Ruiz Serrano,                |
 |  M. dos Santos Dias, J. S. Spencer, E. W. Tait,               |
 |  G. Teobaldi, D. Turban, V. Vitale, K. A. Wilkinson,          |
 |  C. Weber, J. C. Womack, Chengcheng Xiao, N. Yeung,           |
 |  and T. J. Zuehlsdorff.                                       |
 |                                                               |
 |                                   Copyright (c) 2004-2024     |
 |                                                               |
 |  Please cite:                                                 |
 |  "The ONETEP linear-scaling density functional theory program"|
 |   J. Chem. Phys. 152(17) 174111 (2020)                        |
 |                                                               |
 |          in all publications arising from your use of ONETEP. |
 |                                                               |
 +---------------------------------------------------------------+
 |                                                               |
 |   ONETEP is based on developments described in the following  |
 |   publications:                                               |
 |                                                               |
 |  "Nonorthogonal generalized Wannier function pseudopotential  |
 |   plane-wave method".                                         |
 |   C.-K. Skylaris, A. A. Mostofi, P. D. Haynes, O. Dieguez,    |
 |   M. C. Payne.                                                |
 |   Phys. Rev. B 66 035119 (2002).                              |
 |                                                               |
 |  "Preconditioned iterative minimization for linear-scaling    |
 |   electronic structure calculations".                         |
 |   A. A. Mostofi, P. D. Haynes, C.-K. Skylaris, M. C. Payne.   |
 |   J. Chem. Phys. 119(17), pp.8842-8848 (2003).                |
 |                                                               |
 |  "Total-energy calculations on a real space grid with         |
 |   localized functions and a plane-wave basis".                |
 |   A. A. Mostofi, C.-K. Skylaris, P. D. Haynes, M. C. Payne.   |
 |   Comput. Phys. Commun. 147, pp.788-802 (2002).               |
 |                                                               |
 |  "Accurate kinetic energy evaluation in electronic structure  |
 |   calculations with localized functions on real space grids"  |
 |   C.-K. Skylaris, A. A. Mostofi, P. D. Haynes, C. J. Pickard, |
 |   M. C. Payne.                                                |
 |   Comput. Phys. Commun. 140, pp.315-322 (2001).               |
 |                                                               |
 |  "Accurate ionic forces and geometry optimization in linear-  |
 |   scaling density-functional theory with local orbitals"      |
 |   N. D. M. Hine, M. Robinson, P. D. Haynes, C.-K. Skylaris,   |
 |   M. C. Payne, and A. A. Mostofi.                             |
 |   Phys. Rev. B 83 195102 (2011).                              |
 |                                                               |
 +---------------------------------------------------------------+

Job started: 28-03-2025 22:57 (+0000)
 
Reading parameters from file "Co_cluster2_sp_T_4PX.dat" ...... done

If your calculation crashes here, before "Checking processes and threads..."
is displayed, then your stack size is insufficient.
If so, use "ulimit -s unlimited" at runtime.
You can disable this check with "check_stack_size F".

Checking processes and threads...
   Running with 55 MPI processes.
   There are 14 MPI processes running on the same node as the root process.
   Each MPI process is using: 
               1 threads for simulation cell FFTs.
               1 threads for threaded FFT box operations.
               8 threads for loops over batched FFT box operations.
               8 threads in other parallel regions.
   MPI Interface: S1 (use mpi_f08) (-DMPI -DUSE_MPI_F08).
   MPI_ASYNC_PROTECTS_NONBLOCKING: Yes. MPI_SUBARRAYS_SUPPORTED: Yes.
   FFTW Interface: OMP-capable and MODERN. (-DUSE_MODERN_FFTW specified).
   GPU Interface: None.
   GPU FFT Backend: None.
... done

Basic input checks...WARNING in get_rundat: Comms group size is incompatible with number of procs
 WARNING in get_rundat: Overriding to comms_group_size : -1

Resetting ngwf_cg_rotate to TRUE for EDFT calculations
... done

Reading geometry and species blocks from file "Co_cluster2_sp_T_4PX.dat" ...... done


--------------------------------------------------------------------------------
---------------------------------- INPUT FILE ----------------------------------
--------------------------------------------------------------------------------

charge : 0                                                                      
comms_group_size : 8                                                            
cutoff_energy : 600 eV                                                          
delta_e_conv : F                                                                
do_properties : T                                                               
edft : T                                                                        
edft_maxit : 15                                                                 
edft_spin_fix : 0                                                               
fine_grid_scale : 4                                                             
forces_output_detail : VERBOSE                                                  
maxit_ngwf_cg : 100                                                             
ngwf_threshold_orig : 1e-06                                                     
ngwfs_spin_polarized : T                                                        
output_detail : BRIEF                                                           
paw : T                                                                         
pseudo_path : ../../..                                                          
read_denskern : F                                                               
read_hamiltonian : F                                                            
read_tightbox_ngwfs : F                                                         
run_time : 86000                                                                
spin : 165                                                                      
task : SINGLEPOINT                                                              
write_denskern : T                                                              
write_forces : T                                                                
write_hamiltonian : T                                                           
write_tightbox_ngwfs : T                                                        
xc_functional : PBE                                                             
%BLOCK LATTICE_CART                                                             
ang                                                                             
18.46913345       0.00000000       0.00000000                                   
0.00000000      18.46913345       0.00000000                                    
0.00000000       0.00000000      18.46913345                                    
%ENDBLOCK LATTICE_CART                                                          
%BLOCK POSITIONS_ABS                                                            
ang                                                                             
Co1       9.23449       9.23449       9.23449                                   
Co2      11.25276       9.23483       7.98445                                   
Co2      11.25198       9.23485      10.48463                                   
Co2       7.21558       9.23490       7.98357                                   
Co2       7.21634       9.23496      10.48560                                   
Co2       7.98445      11.25276       9.23483                                   
Co2      10.48463      11.25198       9.23485                                   
Co2       7.98357       7.21558       9.23490                                   
Co2      10.48560       7.21634       9.23496                                   
Co2       9.23483       7.98445      11.25276                                   
Co2       9.23485      10.48463      11.25198                                   
Co2       9.23490       7.98357       7.21558                                   
Co2       9.23496      10.48560       7.21634                                   
Co3      13.23345       9.23458       6.75726                                   
Co3      13.25201       9.23484       9.23491                                   
Co3      13.23321       9.23458      11.71134                                   
Co3       5.23488       9.23459       6.75713                                   
Co3       5.21651       9.23485       9.23493                                   
Co3       5.23513       9.23458      11.71147                                   
Co3       6.75725      13.23345       9.23458                                   
Co3       9.23491      13.25201       9.23484                                   
Co3      11.71134      13.23320       9.23458                                   
Co3       6.75713       5.23489       9.23459                                   
Co3       9.23493       5.21651       9.23485                                   
Co3      11.71147       5.23514       9.23458                                   
Co3       9.23458       6.75726      13.23345                                   
Co3       9.23484       9.23491      13.25201                                   
Co3       9.23458      11.71134      13.23320                                   
Co3       9.23458       6.75713       5.23489                                   
Co3       9.23485       9.23493       5.21651                                   
Co3       9.23458      11.71147       5.23514                                   
Co3      11.24532       7.99146      12.48612                                   
Co3      11.24505      10.47815      12.48597                                   
Co3      11.24579       7.99131       5.98266                                   
Co3      11.24552      10.47830       5.98281                                   
Co3       7.22417       7.99121      12.48657                                   
Co3       7.22445      10.47840      12.48643                                   
Co3       7.22371       7.99112       5.98228                                   
Co3       7.22403      10.47856       5.98239                                   
Co3      12.48613      11.24532       7.99146                                   
Co3      12.48597      11.24505      10.47815                                   
Co3       5.98266      11.24579       7.99131                                   
Co3       5.98281      11.24552      10.47830                                   
Co3      12.48657       7.22417       7.99121                                   
Co3      12.48643       7.22445      10.47840                                   
Co3       5.98228       7.22371       7.99112                                   
Co3       5.98239       7.22403      10.47856                                   
Co3       7.99146      12.48612      11.24532                                   
Co3      10.47815      12.48597      11.24504                                   
Co3       7.99131       5.98266      11.24579                                   
Co3      10.47830       5.98281      11.24552                                   
Co3       7.99121      12.48657       7.22417                                   
Co3      10.47840      12.48643       7.22445                                   
Co3       7.99112       5.98228       7.22371                                   
Co3      10.47856       5.98239       7.22403                                   
%ENDBLOCK POSITIONS_ABS                                                         
%BLOCK SPECIES                                                                  
Co1 Co 27 10 10.0                                                               
Co2 Co 27 10 10.0                                                               
Co3 Co 27 10 10.0                                                               
%ENDBLOCK SPECIES                                                               
%BLOCK SPECIES_ATOMIC_SET                                                       
Co1 "SOLVE conf=4pX INIT SPIN=3"                                                
Co2 "SOLVE conf=4pX INIT SPIN=3"                                                
Co3 "SOLVE conf=4pX INIT SPIN=3"                                                
%ENDBLOCK SPECIES_ATOMIC_SET                                                    
%BLOCK SPECIES_LDOS_GROUPS                                                      
Co1                                                                             
Co2                                                                             
Co3                                                                             
%ENDBLOCK SPECIES_LDOS_GROUPS                                                   
%BLOCK SPECIES_POT                                                              
Co1 Co.PBE-paw.abinit                                                           
Co2 Co.PBE-paw.abinit                                                           
Co3 Co.PBE-paw.abinit                                                           
%ENDBLOCK SPECIES_POT                                                           

--------------------------------------------------------------------------------
-------------------------------- END INPUT FILE --------------------------------
--------------------------------------------------------------------------------


 
 ESDF WARNING(1): "charge" (esdf_physical) has no units. Assume "e".
<<<<<<<<<<<<<<<<<<<<<<<<<<<<<<<<< Full system >>>>>>>>>>>>>>>>>>>>>>>>>>>>>>>>>>
<<<<<<<<<<<<<<<<<<<<<<<<<<< PAW Dataset information >>>>>>>>>>>>>>>>>>>>>>>>>>>
File: Co.PBE-paw.abinit; rc = 2.11 bohr; shape type =  2; rshape = 1.60 bohr;
  Atomic number: 27;  ionic charge: 17.000000
    Partial Wave 1: l = 0
    Partial Wave 2: l = 0
    Partial Wave 3: l = 1
    Partial Wave 4: l = 1
    Partial Wave 5: l = 2
    Partial Wave 6: l = 2
  Core charge supplied for Nonlinear Core Corrections
<<<<<<<<<<<<<<<<<<<<<<<<<<<<<<<<<<<<<<< >>>>>>>>>>>>>>>>>>>>>>>>>>>>>>>>>>>>>>>

-------------------------- Atom counting information ---------------------------
Symbol    Natoms    Nngwfs    Nprojs
  Co        55       550       990
.......   ......    ......    ......
Totals:     55       550       990
--------------------------------------------------------------------------------

=============================== PSINC grid sizes ===============================
                      Simulation cell:   63 x  63 x  63
                              FFT-box:   63 x  63 x  63
                                  PPD:    7 x   7 x   1
================================================================================

Atom SCF Calculation for Co : Z (AE atom) =  27 : Z (PS atom) =  17
Config String: 4pX INIT SPIN=3
Orbitals (num,occ):  4     2.00 6.00 7.00 2.00
Orbitals   (num,l):  4        0    1    2    0
Atom SCF converged after  37 iterations to a total energy of   -146.10251041
Adjusting orbital occupancies:
Orbitals (num,spin,occ):  4  1     1.00 3.00 5.00 1.00
Orbitals   (num,spin,l):  4  1        0    1    2    0
Orbitals (num,spin,occ):  4  2     1.00 3.00 3.00 0.00
Orbitals   (num,spin,l):  4  2        0    1    2    0

Atom SCF Calculation for Co : Z (AE atom) =  27 : Z (PS atom) =  17
Config String: 4pX INIT SPIN=3
Orbitals (num,occ):  4     2.00 6.00 7.00 2.00
Orbitals   (num,l):  4        0    1    2    0
Atom SCF converged after  37 iterations to a total energy of   -146.10251041
Adjusting orbital occupancies:
Orbitals (num,spin,occ):  4  1     1.00 3.00 5.00 1.00
Orbitals   (num,spin,l):  4  1        0    1    2    0
Orbitals (num,spin,occ):  4  2     1.00 3.00 3.00 0.00
Orbitals   (num,spin,l):  4  2        0    1    2    0

Atom SCF Calculation for Co : Z (AE atom) =  27 : Z (PS atom) =  17
Config String: 4pX INIT SPIN=3
Orbitals (num,occ):  4     2.00 6.00 7.00 2.00
Orbitals   (num,l):  4        0    1    2    0
Atom SCF converged after  37 iterations to a total energy of   -146.10251041
Adjusting orbital occupancies:
Orbitals (num,spin,occ):  4  1     1.00 3.00 5.00 1.00
Orbitals   (num,spin,l):  4  1        0    1    2    0
Orbitals (num,spin,occ):  4  2     1.00 3.00 3.00 0.00
Orbitals   (num,spin,l):  4  2        0    1    2    0
Calculating Ewald energy ...            17007.249971 Hartree

============================= Charge Augmentation ==============================
                           Aug box size:   33 x  33 x  33
================================================================================

================================= Core Density =================================
               Core den box size:   33 x  33 x  33
================================================================================
Density kernel initialisation

################################################################################
###################### NGWF self-consistent optimisation #######################
################################################################################
|ITER|    RMS GRADIENT   |     TOTAL ENERGY    |   step   |     Epredicted      
   0     0.00113090986791  -8042.58195033875654   0.408494  -8046.12150412519532        
   1     0.00063723352265  -8046.51739684330187   1.045835  -8049.32955950303221        
   2     0.00073950955157  -8047.91416430409572   0.915414  -8049.41848539634066        
   3     0.00077871841951  -8047.11962968887747   0.839704  -8048.03408326437329        
   4     0.00072777995036  -8046.39055515694872   0.779727  -8049.18856821382451        
   5     0.00060348804790  -8048.68909394448474   0.642018  -8049.98564159875059        
   6     0.00041688300212  -8049.56255511231029   0.447409  -8049.94714376318370        
   7     0.00018066525054  -8049.94448419406763   0.680610  -8050.09010642475187        
   8     0.00016058733892  -8050.06414239115475   0.284525  -8050.11385305423755        
   9     0.00005634252683  -8050.12055700187102   1.096627  -8050.14727852069518        
  10     0.00005167295431  -8050.12792909358632   0.048122  -8050.12803845453800        
  11     0.00004221315349  -8050.12851217240859   0.073308  -8050.12936499583611        
  12     0.00000230649461  -8050.12946269813165   0.000399  -8050.12946271252076        

================================================================================
           ---------------- ENERGY COMPONENTS (Eh) ----------------
           | Kinetic                    :      647.54224462773595 |
           | Core Hartree               :   -50592.42423441704160 |
           | CoreHart (non-coul chg cor):        0.00000000000000
           | Hartree                    :    23648.87687802262740 |
           | Exchange-correlation       :     -170.58634399139714 |
           | Ewald                      :    17007.24997123851790 |
           | Dij0                       :     1767.93449359364104 |
           | Dijhartree                 :      444.33786838282401 |
           | Exc [AE core]              :    -3252.98518391965263 |
           | Exc DC [AE core]           :    -1165.53966106613370 |
           | Exc [PS core]              :     -142.72875440791881 |
           | Exc DC [PS core]           :     -187.07048680342373 |
           | Exc [Core]                 :    -2307.24800405622500 |
           | Total [Sphere]             :     1409.26393652095658 |
           | Total                      :    -8050.07754799859867 |
           |------------------------------------------------------|
           | Entropic contribution      :       -0.05191838973496 |
           | Total free energy          :    -8050.12946638833364 |
           --------------------------------------------------------
           Integrated compensation chrg.:      551.93003754916026
           Integrated density           :      934.99999999970214
           Integrated spin density      :      103.47515277694902
           Integrated |spin density|    :       32.02693895499540
           Fermi level of spin Up       :       -0.05691032540691
           Fermi level of spin Down     :       -0.05691032540691
================================================================================

  13     0.00000044960514  -8050.12946638833364  <-- CG                                 

======================== Writing density and potential =========================
Writing "Co_cluster2_sp_T_4PX_ps_density.cube" ... done
Writing "Co_cluster2_sp_T_4PX_ps_spindensity.cube" ... done
Writing "Co_cluster2_sp_T_4PX_ae_density.cube" ... done
Writing "Co_cluster2_sp_T_4PX_ae_spindensity.cube" ... done
Writing "Co_cluster2_sp_T_4PX_potential.cube" ... done
Writing "Co_cluster2_sp_T_4PX_electrostatic_potential.cube" ... done
================================================================================

    Mulliken Atomic Populations
    ---------------------------
Species  Ion    Total   Charge (e)    Spin (hbar)
=================================================
  Co     1      17.115     -0.115      0.72
  Co     2      16.991      0.009      0.89
  Co     3      16.991      0.009      0.89
  Co     4      16.991      0.009      0.89
  Co     5      16.991      0.009      0.89
  Co     6      16.991      0.009      0.89
  Co     7      16.991      0.009      0.89
  Co     8      16.991      0.009      0.89
  Co     9      16.991      0.009      0.89
  Co    10      16.991      0.009      0.89
  Co    11      16.991      0.009      0.89
  Co    12      16.991      0.009      0.89
  Co    13      16.991      0.009      0.89
  Co    14      17.115     -0.115      1.00
  Co    15      16.951      0.049      0.94
  Co    16      17.116     -0.116      1.00
  Co    17      17.115     -0.115      1.00
  Co    18      16.950      0.050      0.95
  Co    19      17.116     -0.116      1.00
  Co    20      17.115     -0.115      1.00
  Co    21      16.951      0.049      0.94
  Co    22      17.116     -0.116      1.00
  Co    23      17.115     -0.115      1.00
  Co    24      16.950      0.050      0.95
  Co    25      17.116     -0.116      1.00
  Co    26      17.115     -0.115      1.00
  Co    27      16.951      0.049      0.94
  Co    28      17.116     -0.116      1.00
  Co    29      17.115     -0.115      1.00
  Co    30      16.950      0.050      0.95
  Co    31      17.116     -0.116      1.00
  Co    32      16.955      0.045      0.95
  Co    33      16.955      0.045      0.95
  Co    34      16.954      0.046      0.95
  Co    35      16.954      0.046      0.95
  Co    36      16.954      0.046      0.95
  Co    37      16.955      0.045      0.95
  Co    38      16.953      0.047      0.95
  Co    39      16.954      0.046      0.95
  Co    40      16.955      0.045      0.95
  Co    41      16.955      0.045      0.95
  Co    42      16.954      0.046      0.95
  Co    43      16.954      0.046      0.95
  Co    44      16.954      0.046      0.95
  Co    45      16.955      0.045      0.95
  Co    46      16.953      0.047      0.95
  Co    47      16.954      0.046      0.95
  Co    48      16.955      0.045      0.95
  Co    49      16.955      0.045      0.95
  Co    50      16.954      0.046      0.95
  Co    51      16.954      0.046      0.95
  Co    52      16.954      0.046      0.95
  Co    53      16.955      0.045      0.95
  Co    54      16.953      0.047      0.95
  Co    55      16.954      0.046      0.95
=================================================

        Bond         Population      Spin       Length (bohr)
=============================================================
 Co    8 -- Co   23       -0.04     -0.06      4.40241
 Co   12 -- Co   29       -0.04     -0.06      4.40241
 Co    4 -- Co   17       -0.04     -0.06      4.40242
 Co    9 -- Co   25       -0.04     -0.06      4.40266
 Co   13 -- Co   31       -0.04     -0.06      4.40266
 Co    5 -- Co   19       -0.04     -0.06      4.40268
 Co    2 -- Co   14       -0.04     -0.06      4.40315
 Co   10 -- Co   26       -0.04     -0.06      4.40315
 Co    6 -- Co   20       -0.04     -0.06      4.40316
 Co    7 -- Co   22       -0.04     -0.06      4.40353
 Co   11 -- Co   28       -0.04     -0.06      4.40353
 Co    3 -- Co   16       -0.04     -0.06      4.40354
 Co    5 -- Co   37        0.02     -0.02      4.45171
 Co   13 -- Co   53        0.02     -0.02      4.45171
 Co    9 -- Co   45        0.02     -0.02      4.45171
 Co    9 -- Co   44        0.02     -0.02      4.45224
 Co   13 -- Co   52        0.02     -0.02      4.45224
 Co    5 -- Co   36        0.02     -0.02      4.45224
 Co    7 -- Co   41        0.02     -0.02      4.45238
 Co    3 -- Co   33        0.02     -0.02      4.45238
 Co   11 -- Co   49        0.02     -0.02      4.45238
 Co    8 -- Co   47        0.02     -0.02      4.45249
 Co   12 -- Co   55        0.02     -0.02      4.45249
 Co    4 -- Co   39        0.02     -0.02      4.45249
 Co   11 -- Co   48        0.02     -0.02      4.45271
 Co    3 -- Co   32        0.02     -0.02      4.45271
 Co    7 -- Co   40        0.02     -0.02      4.45273
 Co    8 -- Co   46        0.02     -0.02      4.45279
 Co   12 -- Co   54        0.02     -0.02      4.45279
 Co    4 -- Co   38        0.02     -0.02      4.45279
 Co   10 -- Co   51        0.02     -0.02      4.45304
 Co    2 -- Co   35        0.02     -0.02      4.45304
 Co    6 -- Co   43        0.02     -0.02      4.45304
 Co    6 -- Co   42        0.02     -0.02      4.45332
 Co   10 -- Co   50        0.02     -0.02      4.45332
 Co    2 -- Co   34        0.02     -0.02      4.45332
 Co   10 -- Co   27        0.02     -0.02      4.45617
 Co    2 -- Co   15        0.02     -0.02      4.45617
 Co    6 -- Co   21        0.02     -0.02      4.45617
 Co    3 -- Co   15        0.02     -0.02      4.45668
 Co    7 -- Co   21        0.02     -0.02      4.45668
 Co   11 -- Co   27        0.02     -0.02      4.45668
 Co    4 -- Co   18        0.02     -0.02      4.45678
 Co   12 -- Co   30        0.02     -0.02      4.45678
 Co    8 -- Co   24        0.02     -0.02      4.45678
 Co    6 -- Co   48        0.02     -0.02      4.45723
 Co   10 -- Co   32        0.02     -0.02      4.45723
 Co    2 -- Co   40        0.02     -0.02      4.45724
 Co    9 -- Co   24        0.03     -0.02      4.45731
 Co   13 -- Co   30        0.03     -0.02      4.45731
 Co    5 -- Co   18        0.03     -0.02      4.45731
 Co    7 -- Co   49        0.02     -0.02      4.45737
 Co    3 -- Co   41        0.02     -0.02      4.45738
 Co   11 -- Co   33        0.02     -0.02      4.45738
 Co    4 -- Co   42        0.02     -0.02      4.45744
 Co    8 -- Co   50        0.02     -0.02      4.45744
 Co   12 -- Co   34        0.02     -0.02      4.45744
 Co   13 -- Co   35        0.02     -0.02      4.45751
 Co    9 -- Co   51        0.02     -0.02      4.45751
 Co    5 -- Co   43        0.02     -0.02      4.45751
 Co   10 -- Co   36        0.02     -0.02      4.45795
 Co    6 -- Co   52        0.02     -0.02      4.45795
 Co    2 -- Co   44        0.02     -0.02      4.45795
 Co    3 -- Co   45        0.02     -0.02      4.45816
 Co   11 -- Co   37        0.02     -0.02      4.45816
 Co    7 -- Co   53        0.02     -0.02      4.45816
 Co    4 -- Co   46        0.02     -0.02      4.45830
 Co   12 -- Co   38        0.02     -0.02      4.45830
 Co    8 -- Co   54        0.02     -0.02      4.45830
 Co   13 -- Co   39        0.02     -0.02      4.45852
 Co    9 -- Co   55        0.02     -0.02      4.45852
 Co    5 -- Co   47        0.02     -0.02      4.45852
 Co    1 -- Co   11       -0.01      0.01      4.48511
 Co    1 -- Co    3       -0.01      0.01      4.48511
 Co    1 -- Co    7       -0.01      0.01      4.48511
 Co    1 -- Co    6       -0.01      0.01      4.48626
 Co    1 -- Co    2       -0.01      0.01      4.48626
 Co    1 -- Co   10       -0.01      0.01      4.48626
 Co    1 -- Co    9       -0.01      0.01      4.48714
 Co    1 -- Co   13       -0.01      0.01      4.48714
 Co    1 -- Co    5       -0.01      0.01      4.48714
 Co    1 -- Co    8       -0.01      0.01      4.48817
 Co    1 -- Co   12       -0.01      0.01      4.48817
 Co    1 -- Co    4       -0.01      0.01      4.48817
 Co   20 -- Co   42        0.08     -0.02      4.66594
 Co   14 -- Co   34        0.08     -0.02      4.66595
 Co   26 -- Co   50        0.08     -0.02      4.66595
 Co   28 -- Co   48        0.08     -0.02      4.66625
 Co   22 -- Co   40        0.08     -0.02      4.66625
 Co   16 -- Co   32        0.08     -0.02      4.66626
 Co   20 -- Co   43        0.08     -0.02      4.66669
 Co   14 -- Co   35        0.08     -0.02      4.66670
 Co   26 -- Co   51        0.08     -0.02      4.66670
 Co   22 -- Co   41        0.08     -0.02      4.66700
 Co   28 -- Co   49        0.08     -0.02      4.66701
 Co   16 -- Co   33        0.08     -0.02      4.66701
 Co   29 -- Co   54        0.08     -0.02      4.66804
 Co   23 -- Co   46        0.08     -0.02      4.66805
 Co   17 -- Co   38        0.08     -0.02      4.66807
 Co   31 -- Co   52        0.08     -0.02      4.66842
 Co   25 -- Co   44        0.08     -0.02      4.66842
 Co   19 -- Co   36        0.08     -0.02      4.66844
 Co   23 -- Co   47        0.08     -0.02      4.66895
 Co   29 -- Co   55        0.08     -0.02      4.66896
 Co   17 -- Co   39        0.08     -0.02      4.66896
 Co   31 -- Co   53        0.08     -0.02      4.66919
 Co   25 -- Co   45        0.08     -0.02      4.66919
 Co   19 -- Co   37        0.08     -0.02      4.66921
 Co   28 -- Co   37        0.09     -0.02      4.67432
 Co   22 -- Co   53        0.09     -0.02      4.67432
 Co   16 -- Co   45        0.09     -0.02      4.67433
 Co   31 -- Co   39        0.09     -0.02      4.67521
 Co   25 -- Co   55        0.09     -0.02      4.67521
 Co   19 -- Co   47        0.09     -0.02      4.67522
 Co   22 -- Co   49        0.09     -0.02      4.67533
 Co   28 -- Co   33        0.09     -0.02      4.67534
 Co   16 -- Co   41        0.09     -0.02      4.67535
 Co   14 -- Co   44        0.09     -0.02      4.67577
 Co   26 -- Co   36        0.09     -0.02      4.67577
 Co   20 -- Co   52        0.09     -0.02      4.67578
 Co   31 -- Co   35        0.09     -0.02      4.67630
 Co   25 -- Co   51        0.09     -0.02      4.67630
 Co   19 -- Co   43        0.09     -0.02      4.67630
 Co   14 -- Co   40        0.09     -0.02      4.67676
 Co   26 -- Co   32        0.09     -0.02      4.67677
 Co   20 -- Co   48        0.09     -0.02      4.67678
 Co   29 -- Co   38        0.09     -0.02      4.67680
 Co   23 -- Co   54        0.09     -0.02      4.67682
 Co   17 -- Co   46        0.09     -0.02      4.67682
 Co   23 -- Co   50        0.09     -0.02      4.67771
 Co   17 -- Co   42        0.09     -0.02      4.67771
 Co   29 -- Co   34        0.09     -0.02      4.67772
 Co   15 -- Co   16        0.09     -0.03      4.67991
 Co   27 -- Co   28        0.09     -0.03      4.67991
 Co   21 -- Co   22        0.09     -0.03      4.67991
 Co   18 -- Co   19        0.09     -0.03      4.68011
 Co   30 -- Co   31        0.09     -0.03      4.68011
 Co   24 -- Co   25        0.09     -0.03      4.68011
 Co   14 -- Co   15        0.09     -0.03      4.68221
 Co   26 -- Co   27        0.09     -0.03      4.68221
 Co   20 -- Co   21        0.09     -0.03      4.68223
 Co   17 -- Co   18        0.09     -0.03      4.68249
 Co   23 -- Co   24        0.09     -0.03      4.68249
 Co   29 -- Co   30        0.09     -0.03      4.68249
 Co   41 -- Co   49        0.07     -0.01      4.68993
 Co   33 -- Co   41        0.07     -0.01      4.68993
 Co   33 -- Co   49        0.07     -0.01      4.68994
 Co   32 -- Co   45        0.07     -0.01      4.69002
 Co   37 -- Co   48        0.07     -0.01      4.69002
 Co   40 -- Co   53        0.07     -0.01      4.69004
 Co   32 -- Co   51        0.07     -0.01      4.69097
 Co   43 -- Co   48        0.07     -0.01      4.69097
 Co   35 -- Co   40        0.07     -0.01      4.69098
 Co   42 -- Co   52        0.07     -0.01      4.69106
 Co   36 -- Co   50        0.07     -0.01      4.69106
 Co   34 -- Co   44        0.07     -0.01      4.69106
 Co   44 -- Co   55        0.07     -0.01      4.69120
 Co   39 -- Co   52        0.07     -0.01      4.69120
 Co   36 -- Co   47        0.07     -0.01      4.69120
 Co   45 -- Co   51        0.07     -0.01      4.69122
 Co   37 -- Co   43        0.07     -0.01      4.69122
 Co   35 -- Co   53        0.07     -0.01      4.69122
 Co   47 -- Co   50        0.07     -0.01      4.69223
 Co   39 -- Co   42        0.07     -0.01      4.69223
 Co   34 -- Co   55        0.07     -0.01      4.69223
 Co   46 -- Co   54        0.07     -0.01      4.69227
 Co   38 -- Co   46        0.07     -0.01      4.69227
 Co   38 -- Co   54        0.07     -0.01      4.69227
 Co   21 -- Co   49        0.07     -0.01      4.69526
 Co   15 -- Co   41        0.07     -0.01      4.69528
 Co   27 -- Co   33        0.07     -0.01      4.69528
 Co   15 -- Co   45        0.07     -0.01      4.69552
 Co   27 -- Co   37        0.07     -0.01      4.69552
 Co   21 -- Co   53        0.07     -0.01      4.69552
 Co   15 -- Co   40        0.07     -0.01      4.69580
 Co   27 -- Co   32        0.07     -0.01      4.69580
 Co   21 -- Co   48        0.07     -0.01      4.69580
 Co   15 -- Co   44        0.07     -0.01      4.69607
 Co   27 -- Co   36        0.07     -0.01      4.69607
 Co   21 -- Co   52        0.07     -0.01      4.69607
 Co   30 -- Co   35        0.07     -0.01      4.69626
 Co   24 -- Co   51        0.07     -0.01      4.69626
 Co   18 -- Co   43        0.07     -0.01      4.69626
 Co   30 -- Co   39        0.07     -0.01      4.69649
 Co   24 -- Co   55        0.07     -0.01      4.69649
 Co   18 -- Co   47        0.07     -0.01      4.69649
 Co   30 -- Co   34        0.07     -0.01      4.69682
 Co   24 -- Co   50        0.07     -0.01      4.69682
 Co   18 -- Co   42        0.07     -0.01      4.69682
 Co   30 -- Co   38        0.07     -0.01      4.69708
 Co   24 -- Co   54        0.07     -0.01      4.69708
 Co   18 -- Co   46        0.07     -0.01      4.69708
 Co   32 -- Co   33        0.08     -0.01      4.69916
 Co   40 -- Co   41        0.08     -0.01      4.69916
 Co   48 -- Co   49        0.08     -0.01      4.69916
 Co   50 -- Co   51        0.08     -0.01      4.69973
 Co   42 -- Co   43        0.08     -0.01      4.69973
 Co   34 -- Co   35        0.08     -0.01      4.69973
 Co   52 -- Co   53        0.08     -0.01      4.70011
 Co   44 -- Co   45        0.08     -0.01      4.70011
 Co   36 -- Co   37        0.08     -0.01      4.70011
 Co   54 -- Co   55        0.08     -0.01      4.70058
 Co   46 -- Co   47        0.08     -0.01      4.70058
 Co   38 -- Co   39        0.08     -0.01      4.70058
 Co    3 -- Co   11        0.05      0.01      4.71281
 Co    3 -- Co    7        0.05      0.01      4.71281
 Co    7 -- Co   11        0.05      0.01      4.71281
 Co    6 -- Co   11        0.05      0.01      4.71388
 Co    3 -- Co   10        0.05      0.01      4.71388
 Co    2 -- Co    7        0.05      0.01      4.71388
 Co    5 -- Co   11        0.05      0.01      4.71425
 Co    3 -- Co    9        0.05      0.01      4.71425
 Co    7 -- Co   13        0.05      0.01      4.71425
 Co    5 -- Co    6        0.05      0.01      4.71521
 Co    9 -- Co   10        0.05      0.01      4.71521
 Co    2 -- Co   13        0.05      0.01      4.71521
 Co    6 -- Co   13        0.05      0.01      4.71547
 Co    5 -- Co   10        0.05      0.01      4.71547
 Co    2 -- Co    9        0.05      0.01      4.71547
 Co    2 -- Co   12        0.05      0.01      4.71621
 Co    4 -- Co    6        0.05      0.01      4.71621
 Co    8 -- Co   10        0.05      0.01      4.71621
 Co    5 -- Co    8        0.05      0.01      4.71705
 Co    9 -- Co   12        0.05      0.01      4.71705
 Co    4 -- Co   13        0.05      0.01      4.71705
 Co    4 -- Co    8        0.05      0.01      4.71800
 Co    8 -- Co   12        0.05      0.01      4.71800
 Co    4 -- Co   12        0.05      0.01      4.71800
 Co    6 -- Co    7        0.06      0.01      4.72466
 Co   10 -- Co   11        0.06      0.01      4.72466
 Co    2 -- Co    3        0.06      0.01      4.72466
 Co   12 -- Co   13        0.06      0.01      4.72815
 Co    4 -- Co    5        0.06      0.01      4.72815
 Co    8 -- Co    9        0.06      0.01      4.72815
=============================================================


============== Orbital energy and occupancy information for spin 1 =============

      Total number of orbitals:     550
        Occupancy sum (kernel):     519.237576388
   Occupancy sum (eigenvalues):     519.237576388
                 HOMO-LUMO gap:       0.028025464 Eh
                 Mid-gap level:      -0.048081465 Eh

                        Orbital | Energy (Eh) | Occupancy
                            1    -3.605265641   1.0000000
                        .......   ...........   .........
                          511    -0.087799964   0.9999412
                          512    -0.087799899   0.9999412
                          513    -0.079439160   0.9992210
                          514    -0.079439137   0.9992210
                          515    -0.079438204   0.9992182
                          516    -0.062186907   0.8489208
                          517    -0.062186798   0.8489055
                          518    -0.062186776   0.8489046
                          519    -0.062094335   0.8453992
                          520    -0.062094198   0.8453935
                        ....... -- gap at 0K -- .........
                          521    -0.034068733   0.0007644
                          522    -0.034065360   0.0007641
                          523    -0.034065322   0.0007640
                          524    -0.033578560   0.0006618
                          525    -0.002826809   0.0000046
                          526     0.008384204   0.0000047
                          527     0.008384287   0.0000047
                          528     0.008391546   0.0000067
                          529     0.009345370   0.0000052
                          530     0.009345520   0.0000052
                        .......   ...........   .........
                          550     0.131758655   0.0000010

================================================================================

============== Orbital energy and occupancy information for spin 2 =============

      Total number of orbitals:     550
        Occupancy sum (kernel):     415.762423611
   Occupancy sum (eigenvalues):     415.762423611
                 HOMO-LUMO gap:       0.004423968 Eh
                 Mid-gap level:      -0.055206625 Eh

                        Orbital | Energy (Eh) | Occupancy
                            1    -3.525075708   1.0000000
                        .......   ...........   .........
                          406    -0.069585045   0.9827918
                          407    -0.069273769   0.9807749
                          408    -0.069273665   0.9807752
                          409    -0.063202087   0.8807208
                          410    -0.063199186   0.8807381
                          411    -0.063199103   0.8807347
                          412    -0.057591674   0.5548398
                          413    -0.057591620   0.5548413
                          414    -0.057585266   0.5547988
                          415    -0.057418609   0.5429828
                        ....... -- gap at 0K -- .........
                          416    -0.052994641   0.2292033
                          417    -0.052989385   0.2294392
                          418    -0.052989358   0.2294376
                          419    -0.052205390   0.1931743
                          420    -0.052205288   0.1931752
                          421    -0.052044736   0.1851738
                          422    -0.052044701   0.1851703
                          423    -0.052035641   0.1856948
                          424    -0.051335495   0.1527224
                          425    -0.051332996   0.1528498
                        .......   ...........   .........
                          550     0.171295804   0.0000012

================================================================================

===================== Writing canonical molecular orbitals =====================
    Spin 1
| Orbital  Energy (eV)  Norm     |
| HOMO-5   -2.16162352  1.000000 | Writing "Co_cluster2_sp_T_4PX_HOMO-5_UP.cube" ... done
| HOMO-4   -1.69219185  1.000000 | Writing "Co_cluster2_sp_T_4PX_HOMO-4_UP.cube" ... done
| HOMO-3   -1.69218889  1.000000 | Writing "Co_cluster2_sp_T_4PX_HOMO-3_UP.cube" ... done
| HOMO-2   -1.69218827  1.000000 | Writing "Co_cluster2_sp_T_4PX_HOMO-2_UP.cube" ... done
| HOMO-1   -1.68967282  1.000000 | Writing "Co_cluster2_sp_T_4PX_HOMO-1_UP.cube" ... done
| HOMO     -1.68966909  1.000000 | Writing "Co_cluster2_sp_T_4PX_HOMO_UP.cube" ... done
| LUMO     -0.92705740  1.000000 | Writing "Co_cluster2_sp_T_4PX_LUMO_UP.cube" ... done
| LUMO+1   -0.92696562  1.000000 | Writing "Co_cluster2_sp_T_4PX_LUMO+1_UP.cube" ... done
| LUMO+2   -0.92696457  1.000000 | Writing "Co_cluster2_sp_T_4PX_LUMO+2_UP.cube" ... done
| LUMO+3   -0.91371911  1.000000 | Writing "Co_cluster2_sp_T_4PX_LUMO+3_UP.cube" ... done
| LUMO+4   -0.07692137  1.000000 | Writing "Co_cluster2_sp_T_4PX_LUMO+4_UP.cube" ... done
| LUMO+5    0.22814580  1.000000 | Writing "Co_cluster2_sp_T_4PX_LUMO+5_UP.cube" ... done
================================================================================

===================== Writing canonical molecular orbitals =====================
    Spin 2
| Orbital  Energy (eV)  Norm     |
| HOMO-5   -1.71973735  1.000000 | Writing "Co_cluster2_sp_T_4PX_HOMO-5_DN.cube" ... done
| HOMO-4   -1.71973510  1.000000 | Writing "Co_cluster2_sp_T_4PX_HOMO-4_DN.cube" ... done
| HOMO-3   -1.56714919  1.000000 | Writing "Co_cluster2_sp_T_4PX_HOMO-3_DN.cube" ... done
| HOMO-2   -1.56714773  1.000000 | Writing "Co_cluster2_sp_T_4PX_HOMO-2_DN.cube" ... done
| HOMO-1   -1.56697483  1.000000 | Writing "Co_cluster2_sp_T_4PX_HOMO-1_DN.cube" ... done
| HOMO     -1.56243984  1.000000 | Writing "Co_cluster2_sp_T_4PX_HOMO_DN.cube" ... done
| LUMO     -1.44205755  1.000000 | Writing "Co_cluster2_sp_T_4PX_LUMO_DN.cube" ... done
| LUMO+1   -1.44191453  1.000000 | Writing "Co_cluster2_sp_T_4PX_LUMO+1_DN.cube" ... done
| LUMO+2   -1.44191379  1.000000 | Writing "Co_cluster2_sp_T_4PX_LUMO+2_DN.cube" ... done
| LUMO+3   -1.42058094  1.000000 | Writing "Co_cluster2_sp_T_4PX_LUMO+3_DN.cube" ... done
| LUMO+4   -1.42057816  1.000000 | Writing "Co_cluster2_sp_T_4PX_LUMO+4_DN.cube" ... done
| LUMO+5   -1.41620933  1.000000 | Writing "Co_cluster2_sp_T_4PX_LUMO+5_DN.cube" ... done
================================================================================

================== Local Density of States (LDOS) calculation ==================
Writing "Co_cluster2_sp_T_4PX_UP_LDOS.txt" ... done
================================================================================

================== Local Density of States (LDOS) calculation ==================
Writing "Co_cluster2_sp_T_4PX_DN_LDOS.txt" ... done
================================================================================
 
=============== Density of States (DOS) calculation for UP spin ================
Writing "Co_cluster2_sp_T_4PX_UP_DOS.txt" ... done
================================================================================
 
============== Density of States (DOS) calculation for DOWN spin ===============
Writing "Co_cluster2_sp_T_4PX_DN_DOS.txt" ... done
================================================================================
 
Writing bands to file "Co_cluster2_sp_T_4PX.val_bands" ... done

================================= Core Density =================================
               Core den box size:   33 x  33 x  33
================================================================================
 
********************* Unconstrained **********************
********************** Ewald forces **********************
*                                                        *
* Element  Atom         Cartesian components (Eh/a)      *
* ------------------------------------------------------ *
*                       x            y            z      *
*                                                        *
*    Co      1     -0.06297947  -0.06297444  -0.06298113 *
*    Co      2     60.67902055  -0.02037336 -37.75317448 *
*    Co      3     60.69372708  -0.01879720  37.72204060 *
*    Co      4    -60.69084262  -0.01946918 -37.74058626 *
*    Co      5    -60.70573240  -0.01837764  37.70916892 *
*    Co      6    -37.75317566  60.67909454  -0.02044243 *
*    Co      7     37.72201305  60.69358580  -0.01894594 *
*    Co      8    -37.74051728 -60.69076290  -0.01946852 *
*    Co      9     37.70908700 -60.70566036  -0.01837933 *
*    Co     10     -0.02043639 -37.75314875  60.67904645 *
*    Co     11     -0.01879640  37.72195485  60.69371531 *
*    Co     12     -0.01943284 -37.74050502 -60.69078208 *
*    Co     13     -0.01836265  37.70909365 -60.70566452 *
*    Co     14    106.88743827   0.00145352 -67.68092000 *
*    Co     15    122.67887738   0.00076949  -0.00879661 *
*    Co     16    106.90525632   0.00178654  67.69377675 *
*    Co     17   -106.85730652   0.00065167 -67.66545895 *
*    Co     18   -122.63902786  -0.00031037  -0.00973935 *
*    Co     19   -106.87666078   0.00117278  67.67883972 *
*    Co     20    -67.68087886 106.88732382   0.00150583 *
*    Co     21     -0.00897694 122.67898501   0.00075790 *
*    Co     22     67.69393253 106.90545373   0.00170955 *
*    Co     23    -67.66560858-106.85749289   0.00065832 *
*    Co     24     -0.00973659-122.63912936  -0.00029921 *
*    Co     25     67.67898383-106.87685511   0.00117207 *
*    Co     26      0.00150559 -67.68086821 106.88748487 *
*    Co     27      0.00082421  -0.00879985 122.67894826 *
*    Co     28      0.00185292  67.69395423 106.90538910 *
*    Co     29      0.00053673 -67.66561082-106.85749263 *
*    Co     30     -0.00026285  -0.00973864-122.63912176 *
*    Co     31      0.00118252  67.67898500-106.87684336 *
*    Co     32     62.85585080 -39.06709243 100.51177682 *
*    Co     33     62.86672842  39.06911351 100.51853217 *
*    Co     34     62.83938918 -39.06401861-100.48707474 *
*    Co     35     62.85147404  39.06478361-100.49409538 *
*    Co     36    -62.85444549 -39.05764323 100.49579636 *
*    Co     37    -62.86494904  39.05935237 100.50396459 *
*    Co     38    -62.83829217 -39.05294518-100.46998707 *
*    Co     39    -62.84861694  39.05419922-100.47728952 *
*    Co     40    100.51176317  62.85577803 -39.06711988 *
*    Co     41    100.51850901  62.86665388  39.06917084 *
*    Co     42   -100.48695686  62.83938041 -39.06400670 *
*    Co     43   -100.49406764  62.85141236  39.06482694 *
*    Co     44    100.49580277 -62.85441104 -39.05772464 *
*    Co     45    100.50395256 -62.86488871  39.05943409 *
*    Co     46   -100.47002573 -62.83815238 -39.05308166 *
*    Co     47   -100.47728347 -62.84854307  39.05427733 *
*    Co     48    -39.06714752 100.51181986  62.85579351 *
*    Co     49     39.06905718 100.51857040  62.86675233 *
*    Co     50    -39.06395712-100.48702173  62.83946362 *
*    Co     51     39.06477328-100.49413444  62.85149563 *
*    Co     52    -39.05769652 100.49584049 -62.85434860 *
*    Co     53     39.05944487 100.50393643 -62.86489918 *
*    Co     54    -39.05306454-100.47007693 -62.83812790 *
*    Co     55     39.05425446-100.47730336 -62.84864605 *
*                                                        *
**********************************************************
TOTAL:             -0.00000000  -0.00000000  -0.00000000
 
********************* Unconstrained **********************
***************** Local potential forces *****************
*                                                        *
* Element  Atom         Cartesian components (Eh/a)      *
* ------------------------------------------------------ *
*                       x            y            z      *
*                                                        *
*    Co      1      0.06574867   0.06573444   0.06574763 *
*    Co      2    -60.67873355   0.02326486  37.75998393 *
*    Co      3    -60.69419081   0.02171481 -37.72354997 *
*    Co      4     60.69487339   0.02229216  37.74660437 *
*    Co      5     60.71060584   0.02121352 -37.71001378 *
*    Co      6     37.75998689 -60.67881276   0.02333807 *
*    Co      7    -37.72351728 -60.69405816   0.02186674 *
*    Co      8     37.74654151  60.69478831   0.02229634 *
*    Co      9    -37.70993106  60.71052969   0.02122007 *
*    Co     10      0.02333609  37.75995340 -60.67876360 *
*    Co     11      0.02172283 -37.72346869 -60.69418203 *
*    Co     12      0.02226466  37.74652049  60.69481234 *
*    Co     13      0.02120737 -37.70994437  60.71053548 *
*    Co     14   -107.03292876  -0.00001940  67.76692513 *
*    Co     15   -122.77295044   0.00112771   0.01048183 *
*    Co     16   -107.05372800  -0.00033201 -67.77887868 *
*    Co     17    107.00081218   0.00076765  67.74868029 *
*    Co     18    122.72973309   0.00216638   0.01134999 *
*    Co     19    107.02295387   0.00025093 -67.76107584 *
*    Co     20     67.76688208-107.03281200  -0.00006871 *
*    Co     21      0.01066335-122.77305349   0.00114287 *
*    Co     22    -67.77902889-107.05391960  -0.00025179 *
*    Co     23     67.74883182 107.00099767   0.00076439 *
*    Co     24      0.01134872 122.72984065   0.00215905 *
*    Co     25    -67.76122145 107.02314903   0.00025517 *
*    Co     26     -0.00006760  67.76687110-107.03297849 *
*    Co     27      0.00107850   0.01048158-122.77301866 *
*    Co     28     -0.00039418 -67.77905521-107.05385354 *
*    Co     29      0.00088747  67.74883035 107.00099882 *
*    Co     30      0.00212428   0.01134611 122.72983078 *
*    Co     31      0.00024555 -67.76122158 107.02313042 *
*    Co     32    -62.90135231  39.09822664-100.58466765 *
*    Co     33    -62.91313138 -39.09728042-100.59324700 *
*    Co     34    -62.88233234  39.09333958 100.55898790 *
*    Co     35    -62.89525275 -39.09120246 100.56779199 *
*    Co     36     62.90160546  39.08788203-100.56601678 *
*    Co     37     62.91301888 -39.08663826-100.57596681 *
*    Co     38     62.88290503  39.08145459 100.53932844 *
*    Co     39     62.89404338 -39.07979888 100.54836104 *
*    Co     40   -100.58465364 -62.90128467  39.09825789 *
*    Co     41   -100.59322218 -62.91306161 -39.09733417 *
*    Co     42    100.55886257 -62.88232289  39.09332777 *
*    Co     43    100.56775984 -62.89519182 -39.09124001 *
*    Co     44   -100.56602732  62.90156996  39.08796906 *
*    Co     45   -100.57596184  62.91295896 -39.08671896 *
*    Co     46    100.53936875  62.88276090  39.08159406 *
*    Co     47    100.54835886  62.89396596 -39.07987351 *
*    Co     48     39.09828325-100.58470579 -62.90129205 *
*    Co     49    -39.09721665-100.59328397 -62.91315270 *
*    Co     50     39.09328284 100.55893013 -62.88240753 *
*    Co     51    -39.09118837 100.56783183 -62.89527797 *
*    Co     52     39.08793852-100.56605997  62.90150485 *
*    Co     53    -39.08672540-100.57594357  62.91296823 *
*    Co     54     39.08158006 100.53941776  62.88274119 *
*    Co     55    -39.07985155 100.54837952  62.89407543 *
*                                                        *
**********************************************************
TOTAL:              0.05524782   0.05508712   0.05520133
 
********************* Unconstrained **********************
************** Compensation density forces ***************
*                                                        *
* Element  Atom         Cartesian components (Eh/a)      *
* ------------------------------------------------------ *
*                       x            y            z      *
*                                                        *
*    Co      1     -0.00140492  -0.00139973  -0.00140087 *
*    Co      2      0.01191053  -0.00157378  -0.01063832 *
*    Co      3      0.01210604  -0.00159554   0.00761046 *
*    Co      4     -0.01458943  -0.00150993  -0.01043578 *
*    Co      5     -0.01484254  -0.00151448   0.00752000 *
*    Co      6     -0.01064132   0.01191324  -0.00157318 *
*    Co      7      0.00760476   0.01211182  -0.00159390 *
*    Co      8     -0.01044151  -0.01458670  -0.00151034 *
*    Co      9      0.00751729  -0.01484081  -0.00151494 *
*    Co     10     -0.00157778  -0.01063764   0.01191514 *
*    Co     11     -0.00160043   0.00761083   0.01211062 *
*    Co     12     -0.00151487  -0.01043693  -0.01458746 *
*    Co     13     -0.00151954   0.00752122  -0.01483972 *
*    Co     14     -0.00434315  -0.00090794   0.00418699 *
*    Co     15      0.00203463  -0.00109766  -0.00094194 *
*    Co     16     -0.00260148  -0.00093065  -0.00486356 *
*    Co     17      0.00527958  -0.00087943   0.00583326 *
*    Co     18     -0.00041470  -0.00105618  -0.00087608 *
*    Co     19      0.00367778  -0.00089868  -0.00655937 *
*    Co     20      0.00418617  -0.00434541  -0.00090820 *
*    Co     21     -0.00094402   0.00203194  -0.00109736 *
*    Co     22     -0.00486732  -0.00260476  -0.00093042 *
*    Co     23      0.00583081   0.00528240  -0.00087982 *
*    Co     24     -0.00087918  -0.00041772  -0.00105646 *
*    Co     25     -0.00655919   0.00367770  -0.00089922 *
*    Co     26     -0.00091039   0.00418847  -0.00434248 *
*    Co     27     -0.00110090  -0.00094205   0.00203381 *
*    Co     28     -0.00093340  -0.00486656  -0.00260551 *
*    Co     29     -0.00088346   0.00583254   0.00528153 *
*    Co     30     -0.00105929  -0.00087655  -0.00041594 *
*    Co     31     -0.00090148  -0.00655912   0.00368124 *
*    Co     32      0.00078236  -0.00161258  -0.00057991 *
*    Co     33      0.00121625  -0.00012615   0.00041818 *
*    Co     34     -0.00054496  -0.00058418   0.00093340 *
*    Co     35     -0.00016027  -0.00109736  -0.00003884 *
*    Co     36     -0.00176868  -0.00115925  -0.00198758 *
*    Co     37     -0.00221103  -0.00055694  -0.00101840 *
*    Co     38     -0.00044141  -0.00018309   0.00226810 *
*    Co     39     -0.00081415  -0.00147573   0.00133101 *
*    Co     40     -0.00058003   0.00078646  -0.00161288 *
*    Co     41      0.00041509   0.00122014  -0.00012575 *
*    Co     42      0.00093613  -0.00054527  -0.00058224 *
*    Co     43     -0.00003656  -0.00015979  -0.00109883 *
*    Co     44     -0.00198670  -0.00176949  -0.00116075 *
*    Co     45     -0.00101647  -0.00221216  -0.00055561 *
*    Co     46      0.00226651  -0.00043983  -0.00018224 *
*    Co     47      0.00132844  -0.00081196  -0.00147629 *
*    Co     48     -0.00161329  -0.00058444   0.00078413 *
*    Co     49     -0.00012995   0.00041600   0.00121621 *
*    Co     50     -0.00058654   0.00093528  -0.00054338 *
*    Co     51     -0.00109977  -0.00003928  -0.00015655 *
*    Co     52     -0.00116151  -0.00198892  -0.00176629 *
*    Co     53     -0.00056018  -0.00101599  -0.00221020 *
*    Co     54     -0.00018592   0.00226727  -0.00044079 *
*    Co     55     -0.00147712   0.00132715  -0.00081376 *
*                                                        *
**********************************************************
TOTAL:             -0.03381247  -0.03371821  -0.03369711
 
********************* Unconstrained **********************
*************** Non-local potential forces ***************
*                                                        *
* Element  Atom         Cartesian components (Eh/a)      *
* ------------------------------------------------------ *
*                       x            y            z      *
*                                                        *
*    Co      1      0.00162130   0.00161631   0.00161584 *
*    Co      2     -0.00119931   0.00160272   0.00281890 *
*    Co      3     -0.00139901   0.00160895   0.00024772 *
*    Co      4      0.00399908   0.00158756   0.00264606 *
*    Co      5      0.00419987   0.00157371   0.00038053 *
*    Co      6      0.00282245  -0.00120204   0.00160222 *
*    Co      7      0.00025290  -0.00140459   0.00160773 *
*    Co      8      0.00265156   0.00399537   0.00158726 *
*    Co      9      0.00038402   0.00419772   0.00157336 *
*    Co     10      0.00160719   0.00281823  -0.00120286 *
*    Co     11      0.00161368   0.00024803  -0.00140330 *
*    Co     12      0.00159230   0.00264740   0.00399593 *
*    Co     13      0.00157820   0.00037935   0.00419713 *
*    Co     14      0.14390245   0.00095341  -0.08889622 *
*    Co     15      0.08295756   0.00113237   0.00098375 *
*    Co     16      0.14208869   0.00095529   0.08964391 *
*    Co     17     -0.14502803   0.00095238  -0.09065019 *
*    Co     18     -0.08426763   0.00113063   0.00096665 *
*    Co     19     -0.14323841   0.00095502   0.09142105 *
*    Co     20     -0.08889611   0.14390747   0.00095345 *
*    Co     21      0.00098559   0.08296011   0.00113180 *
*    Co     22      0.08964635   0.14208808   0.00095444 *
*    Co     23     -0.09064685  -0.14503028   0.00095183 *
*    Co     24      0.00097000  -0.08426584   0.00113008 *
*    Co     25      0.09141984  -0.14323470   0.00095439 *
*    Co     26      0.00095648  -0.08889921   0.14390556 *
*    Co     27      0.00113600   0.00098385   0.08295914 *
*    Co     28      0.00095830   0.08964729   0.14209089 *
*    Co     29      0.00095632  -0.09064709  -0.14502736 *
*    Co     30      0.00113372   0.00096681  -0.08426634 *
*    Co     31      0.00095764   0.09141811  -0.14323654 *
*    Co     32      0.04084154  -0.02489234   0.06684158 *
*    Co     33      0.04044374   0.02673703   0.06591871 *
*    Co     34      0.04211987  -0.02582848  -0.06695209 *
*    Co     35      0.04174322   0.02767051  -0.06603701 *
*    Co     36     -0.03969465  -0.02529788   0.06816556 *
*    Co     37     -0.03930163   0.02713828   0.06725026 *
*    Co     38     -0.04096826  -0.02623093  -0.06825053 *
*    Co     39     -0.04059540   0.02806003  -0.06733263 *
*    Co     40      0.06684258   0.04083810  -0.02489265 *
*    Co     41      0.06592109   0.04043905   0.02673610 *
*    Co     42     -0.06695336   0.04211988  -0.02583049 *
*    Co     43     -0.06603908   0.04174238   0.02767214 *
*    Co     44      0.06816382  -0.03969415  -0.02529654 *
*    Co     45      0.06724875  -0.03930069   0.02713623 *
*    Co     46     -0.06824898  -0.04097068  -0.02623277 *
*    Co     47     -0.06733058  -0.04059791   0.02806063 *
*    Co     48     -0.02489076   0.06684526   0.04083946 *
*    Co     49      0.02673952   0.06591888   0.04044281 *
*    Co     50     -0.02582595  -0.06695418   0.04211877 *
*    Co     51      0.02767372  -0.06603737   0.04174016 *
*    Co     52     -0.02529530   0.06816561  -0.03969658 *
*    Co     53      0.02714117   0.06724724  -0.03930241 *
*    Co     54     -0.02622851  -0.06824983  -0.04096949 *
*    Co     55      0.02806225  -0.06732915  -0.04059645 *
*                                                        *
**********************************************************
TOTAL:              0.03728493   0.03718112   0.03716954
 
********************* Unconstrained **********************
************ NGWF non self-consistent forces *************
*                                                        *
* Element  Atom         Cartesian components (Eh/a)      *
* ------------------------------------------------------ *
*                       x            y            z      *
*                                                        *
*    Co      1     -0.00321949  -0.00321028  -0.00321470 *
*    Co      2     -0.01110231  -0.00302633  -0.00026831 *
*    Co      3     -0.01017304  -0.00303565  -0.00515170 *
*    Co      4      0.00669690  -0.00301868   0.00065809 *
*    Co      5      0.00576580  -0.00302328  -0.00607690 *
*    Co      6     -0.00027104  -0.01109685  -0.00303055 *
*    Co      7     -0.00515666  -0.01016570  -0.00303995 *
*    Co      8      0.00065253   0.00670415  -0.00302242 *
*    Co      9     -0.00607969   0.00577121  -0.00302706 *
*    Co     10     -0.00303537  -0.00026375  -0.01109921 *
*    Co     11     -0.00304442  -0.00514867  -0.01017068 *
*    Co     12     -0.00302727   0.00066065   0.00669983 *
*    Co     13     -0.00303166  -0.00607194   0.00576941 *
*    Co     14      0.00505393  -0.00148701  -0.00247910 *
*    Co     15      0.01007766  -0.00197263  -0.00181717 *
*    Co     16      0.00815387  -0.00148649   0.00137765 *
*    Co     17     -0.00284671  -0.00150011   0.00049708 *
*    Co     18     -0.00696642  -0.00197149  -0.00179503 *
*    Co     19     -0.00589252  -0.00148779  -0.00163091 *
*    Co     20     -0.00247580   0.00504772  -0.00148956 *
*    Co     21     -0.00181913   0.01007318  -0.00197586 *
*    Co     22      0.00137105   0.00815391  -0.00148908 *
*    Co     23      0.00049234  -0.00284772  -0.00150232 *
*    Co     24     -0.00179735  -0.00697085  -0.00197420 *
*    Co     25     -0.00162705  -0.00589832  -0.00148996 *
*    Co     26     -0.00149157  -0.00247582   0.00505318 *
*    Co     27     -0.00197857  -0.00181401   0.01007425 *
*    Co     28     -0.00149086   0.00137673   0.00815038 *
*    Co     29     -0.00150428   0.00049558  -0.00285085 *
*    Co     30     -0.00197700  -0.00179194  -0.00696970 *
*    Co     31     -0.00149172  -0.00162730  -0.00589271 *
*    Co     32      0.00402341  -0.00614444   0.00841457 *
*    Co     33      0.00495839   0.00296201   0.01016747 *
*    Co     34      0.00144619  -0.00444038  -0.00764098 *
*    Co     35      0.00235412   0.00127030  -0.00938045 *
*    Co     36     -0.00597207  -0.00524830   0.00576289 *
*    Co     37     -0.00690140   0.00206986   0.00750216 *
*    Co     38     -0.00340450  -0.00357733  -0.00502453 *
*    Co     39     -0.00429418   0.00038940  -0.00674401 *
*    Co     40      0.00841119   0.00402782  -0.00614716 *
*    Co     41      0.01016625   0.00496407   0.00295930 *
*    Co     42     -0.00763489   0.00144618  -0.00444016 *
*    Co     43     -0.00937628   0.00235531   0.00126464 *
*    Co     44      0.00576739  -0.00597057  -0.00525358 *
*    Co     45      0.00750845  -0.00690132   0.00207005 *
*    Co     46     -0.00502612  -0.00339884  -0.00357941 *
*    Co     47     -0.00674735  -0.00428994   0.00038644 *
*    Co     48     -0.00614732   0.00841042   0.00402105 *
*    Co     49      0.00295575   0.01016838   0.00495880 *
*    Co     50     -0.00444535  -0.00763605   0.00144711 *
*    Co     51      0.00126559  -0.00938061   0.00235763 *
*    Co     52     -0.00525248   0.00576331  -0.00596813 *
*    Co     53      0.00206521   0.00750740  -0.00690016 *
*    Co     54     -0.00358351  -0.00502414  -0.00340356 *
*    Co     55      0.00038617  -0.00674844  -0.00429611 *
*                                                        *
**********************************************************
TOTAL:             -0.06071320  -0.06053535  -0.06064418
 
********************* Unconstrained **********************
********************** NLCC forces ***********************
*                                                        *
* Element  Atom         Cartesian components (Eh/a)      *
* ------------------------------------------------------ *
*                       x            y            z      *
*                                                        *
*    Co      1      0.00000000   0.00000000   0.00000000 *
*    Co      2      0.00000000   0.00000000  -0.00000000 *
*    Co      3      0.00000000   0.00000000   0.00000000 *
*    Co      4     -0.00000000   0.00000000  -0.00000000 *
*    Co      5     -0.00000000   0.00000000   0.00000000 *
*    Co      6     -0.00000000   0.00000000   0.00000000 *
*    Co      7      0.00000000   0.00000000   0.00000000 *
*    Co      8     -0.00000000  -0.00000000   0.00000000 *
*    Co      9      0.00000000  -0.00000000   0.00000000 *
*    Co     10      0.00000000  -0.00000000   0.00000000 *
*    Co     11      0.00000000   0.00000000   0.00000000 *
*    Co     12      0.00000000  -0.00000000  -0.00000000 *
*    Co     13      0.00000000   0.00000000  -0.00000000 *
*    Co     14     -0.00000000   0.00000000   0.00000000 *
*    Co     15     -0.00000000   0.00000000   0.00000000 *
*    Co     16     -0.00000000   0.00000000  -0.00000000 *
*    Co     17      0.00000000   0.00000000   0.00000000 *
*    Co     18      0.00000000   0.00000000   0.00000000 *
*    Co     19      0.00000000   0.00000000  -0.00000000 *
*    Co     20      0.00000000  -0.00000000   0.00000000 *
*    Co     21      0.00000000  -0.00000000   0.00000000 *
*    Co     22     -0.00000000  -0.00000000   0.00000000 *
*    Co     23      0.00000000   0.00000000   0.00000000 *
*    Co     24      0.00000000   0.00000000   0.00000000 *
*    Co     25     -0.00000000   0.00000000   0.00000000 *
*    Co     26      0.00000000   0.00000000  -0.00000000 *
*    Co     27      0.00000000   0.00000000  -0.00000000 *
*    Co     28      0.00000000  -0.00000000  -0.00000000 *
*    Co     29      0.00000000   0.00000000   0.00000000 *
*    Co     30      0.00000000   0.00000000   0.00000000 *
*    Co     31      0.00000000  -0.00000000   0.00000000 *
*    Co     32     -0.00000000   0.00000000  -0.00000000 *
*    Co     33     -0.00000000  -0.00000000  -0.00000000 *
*    Co     34     -0.00000000   0.00000000   0.00000000 *
*    Co     35     -0.00000000  -0.00000000   0.00000000 *
*    Co     36      0.00000000   0.00000000  -0.00000000 *
*    Co     37      0.00000000  -0.00000000  -0.00000000 *
*    Co     38      0.00000000   0.00000000   0.00000000 *
*    Co     39      0.00000000  -0.00000000   0.00000000 *
*    Co     40     -0.00000000  -0.00000000   0.00000000 *
*    Co     41     -0.00000000  -0.00000000  -0.00000000 *
*    Co     42      0.00000000  -0.00000000   0.00000000 *
*    Co     43      0.00000000  -0.00000000  -0.00000000 *
*    Co     44     -0.00000000   0.00000000   0.00000000 *
*    Co     45     -0.00000000   0.00000000  -0.00000000 *
*    Co     46      0.00000000   0.00000000   0.00000000 *
*    Co     47      0.00000000   0.00000000  -0.00000000 *
*    Co     48      0.00000000  -0.00000000  -0.00000000 *
*    Co     49     -0.00000000  -0.00000000  -0.00000000 *
*    Co     50      0.00000000   0.00000000  -0.00000000 *
*    Co     51     -0.00000000   0.00000000  -0.00000000 *
*    Co     52      0.00000000  -0.00000000   0.00000000 *
*    Co     53     -0.00000000  -0.00000000   0.00000000 *
*    Co     54      0.00000000   0.00000000   0.00000000 *
*    Co     55     -0.00000000   0.00000000   0.00000000 *
*                                                        *
**********************************************************
TOTAL:              0.00000000   0.00000000   0.00000000
 
********************* Unconstrained **********************
****** Correction to ensure the total force is zero ******
*                                                        *
* Element  Atom         Cartesian components (Eh/a)      *
* ------------------------------------------------------ *
*                       x            y            z      *
*                                                        *
*    Co      1      0.00003623   0.00003610   0.00003583 *
*    Co      2      0.00003623   0.00003610   0.00003583 *
*    Co      3      0.00003623   0.00003610   0.00003583 *
*    Co      4      0.00003623   0.00003610   0.00003583 *
*    Co      5      0.00003623   0.00003610   0.00003583 *
*    Co      6      0.00003623   0.00003610   0.00003583 *
*    Co      7      0.00003623   0.00003610   0.00003583 *
*    Co      8      0.00003623   0.00003610   0.00003583 *
*    Co      9      0.00003623   0.00003610   0.00003583 *
*    Co     10      0.00003623   0.00003610   0.00003583 *
*    Co     11      0.00003623   0.00003610   0.00003583 *
*    Co     12      0.00003623   0.00003610   0.00003583 *
*    Co     13      0.00003623   0.00003610   0.00003583 *
*    Co     14      0.00003623   0.00003610   0.00003583 *
*    Co     15      0.00003623   0.00003610   0.00003583 *
*    Co     16      0.00003623   0.00003610   0.00003583 *
*    Co     17      0.00003623   0.00003610   0.00003583 *
*    Co     18      0.00003623   0.00003610   0.00003583 *
*    Co     19      0.00003623   0.00003610   0.00003583 *
*    Co     20      0.00003623   0.00003610   0.00003583 *
*    Co     21      0.00003623   0.00003610   0.00003583 *
*    Co     22      0.00003623   0.00003610   0.00003583 *
*    Co     23      0.00003623   0.00003610   0.00003583 *
*    Co     24      0.00003623   0.00003610   0.00003583 *
*    Co     25      0.00003623   0.00003610   0.00003583 *
*    Co     26      0.00003623   0.00003610   0.00003583 *
*    Co     27      0.00003623   0.00003610   0.00003583 *
*    Co     28      0.00003623   0.00003610   0.00003583 *
*    Co     29      0.00003623   0.00003610   0.00003583 *
*    Co     30      0.00003623   0.00003610   0.00003583 *
*    Co     31      0.00003623   0.00003610   0.00003583 *
*    Co     32      0.00003623   0.00003610   0.00003583 *
*    Co     33      0.00003623   0.00003610   0.00003583 *
*    Co     34      0.00003623   0.00003610   0.00003583 *
*    Co     35      0.00003623   0.00003610   0.00003583 *
*    Co     36      0.00003623   0.00003610   0.00003583 *
*    Co     37      0.00003623   0.00003610   0.00003583 *
*    Co     38      0.00003623   0.00003610   0.00003583 *
*    Co     39      0.00003623   0.00003610   0.00003583 *
*    Co     40      0.00003623   0.00003610   0.00003583 *
*    Co     41      0.00003623   0.00003610   0.00003583 *
*    Co     42      0.00003623   0.00003610   0.00003583 *
*    Co     43      0.00003623   0.00003610   0.00003583 *
*    Co     44      0.00003623   0.00003610   0.00003583 *
*    Co     45      0.00003623   0.00003610   0.00003583 *
*    Co     46      0.00003623   0.00003610   0.00003583 *
*    Co     47      0.00003623   0.00003610   0.00003583 *
*    Co     48      0.00003623   0.00003610   0.00003583 *
*    Co     49      0.00003623   0.00003610   0.00003583 *
*    Co     50      0.00003623   0.00003610   0.00003583 *
*    Co     51      0.00003623   0.00003610   0.00003583 *
*    Co     52      0.00003623   0.00003610   0.00003583 *
*    Co     53      0.00003623   0.00003610   0.00003583 *
*    Co     54      0.00003623   0.00003610   0.00003583 *
*    Co     55      0.00003623   0.00003610   0.00003583 *
*                                                        *
**********************************************************
TOTAL:              0.00199292   0.00198531   0.00197041

********************* Unconstrained **********************
************************* Forces *************************
*                                                        *
* Element  Atom         Cartesian components (Eh/a)      *
* ------------------------------------------------------ *
*                       x            y            z      *
*                                                        *
*    Co      1     -0.00019769  -0.00019760  -0.00019741 *
*    Co      2     -0.00006784  -0.00006979  -0.00124246 *
*    Co      3      0.00010650  -0.00006853   0.00123293 *
*    Co      4      0.00017356  -0.00008196  -0.00107769 *
*    Co      5      0.00003281  -0.00009207   0.00101459 *
*    Co      6     -0.00124244  -0.00006777  -0.00007004 *
*    Co      7      0.00123300   0.00010527  -0.00006949 *
*    Co      8     -0.00107697   0.00017432  -0.00008186 *
*    Co      9      0.00101379   0.00003354  -0.00009207 *
*    Co     10     -0.00007003  -0.00124241  -0.00006826 *
*    Co     11     -0.00006850   0.00123245   0.00010574 *
*    Co     12     -0.00008178  -0.00107730   0.00017438 *
*    Co     13     -0.00009205   0.00101402   0.00003361 *
*    Co     14     -0.00084104   0.00002868  -0.00114738 *
*    Co     15      0.00103302  -0.00000462  -0.00005431 *
*    Co     16     -0.00079436   0.00002878   0.00109191 *
*    Co     17      0.00094673   0.00002825  -0.00106268 *
*    Co     18     -0.00090729  -0.00000492  -0.00005801 *
*    Co     19      0.00087618   0.00002836   0.00103048 *
*    Co     20     -0.00114628  -0.00084231   0.00002864 *
*    Co     21     -0.00005491   0.00103284  -0.00000483 *
*    Co     22      0.00108996  -0.00079254   0.00002852 *
*    Co     23     -0.00106421   0.00094529   0.00002821 *
*    Co     24     -0.00005817  -0.00090702  -0.00000493 *
*    Co     25      0.00103221   0.00087470   0.00002827 *
*    Co     26      0.00002875  -0.00114757  -0.00084152 *
*    Co     27     -0.00000452  -0.00005438   0.00103262 *
*    Co     28      0.00002901   0.00109258  -0.00079286 *
*    Co     29      0.00002902  -0.00106335   0.00094534 *
*    Co     30     -0.00000491  -0.00005811  -0.00090713 *
*    Co     31      0.00002874   0.00103120   0.00087488 *
*    Co     32      0.00018205  -0.00147905   0.00182123 *
*    Co     33      0.00025165   0.00144207   0.00182536 *
*    Co     34      0.00011417  -0.00149597  -0.00171069 *
*    Co     35      0.00019461   0.00146070  -0.00172386 *
*    Co     36     -0.00023920  -0.00143053   0.00175627 *
*    Co     37     -0.00030798   0.00140141   0.00176762 *
*    Co     38     -0.00016507  -0.00144584  -0.00162975 *
*    Co     39     -0.00024105   0.00141014  -0.00163829 *
*    Co     40      0.00181950   0.00018184  -0.00147886 *
*    Co     41      0.00182549   0.00025162   0.00144214 *
*    Co     42     -0.00171018   0.00011441  -0.00149599 *
*    Co     43     -0.00172349   0.00019454   0.00146070 *
*    Co     44      0.00175619  -0.00023920  -0.00143063 *
*    Co     45      0.00176768  -0.00030784   0.00140162 *
*    Co     46     -0.00162935  -0.00016474  -0.00144619 *
*    Co     47     -0.00163787  -0.00024081   0.00141043 *
*    Co     48     -0.00147941   0.00182140   0.00018193 *
*    Co     49      0.00144208   0.00182579   0.00025327 *
*    Co     50     -0.00149589  -0.00171046   0.00011442 *
*    Co     51      0.00146069  -0.00172377   0.00019472 *
*    Co     52     -0.00143106   0.00175663  -0.00023893 *
*    Co     53      0.00140191   0.00176761  -0.00030788 *
*    Co     54     -0.00144619  -0.00162978  -0.00016472 *
*    Co     55      0.00141044  -0.00163819  -0.00024112 *
*                                                        *
**********************************************************
* TOTAL:            0.00000000  -0.00000000  -0.00000000 *
**********************************************************
 
 
***********************************************************
********** Summary of Forces (values in Eh/a) *************
*                                                         *
* ---------------------- Minimum ------------------------ *
* Atom:         1, |F|min =    0.00034219                 *
* Components:     Fx|min       Fy|min       Fz|min        *
*              -0.00019769  -0.00019760  -0.00019741      *
*                                                         *
* ---------------------- Maximum ------------------------ *
* Atom:        48, |F|max =    0.00235356                 *
* Components:     Fx|max       Fy|max       Fz|max        *
*              -0.00147941   0.00182140   0.00018193      *
*                                                         *
* ---------------- Root Mean Square Force --------------- *
*                  |F|rms =    0.00175039                 *
* Components:     Fx|rms       Fy|rms       Fz|rms        *
*               0.00101056   0.00101061   0.00101060      *
***********************************************************
 

------------------------------ TIMING INFORMATION ------------------------------
AVERAGE TIME:    1941.265s on     55 proc(s)                                    
TOTAL TIME:      1941.265s on     55 proc(s)                                    
==================== AVERAGE TIMINGS FROM ALL PROCS (CUMULATIVE) =====================
|| TAG                                         #calls     cpu time   %total  Gflops ||
|| hash_table_free                            :    28        0.00s   0.000%  ------ ||
|| onetep.F90 main loop imbalance             :     1        0.00s   0.000%  ------ ||
|| sw_bessel_init_cpu                         :     1        0.02s   0.001%  ------ || (1 procs only)
|| ewald_calculate_forces_realspace           :     1        0.00s   0.000%  ------ ||
|| onetep.F90 final imbalance                 :     1        0.00s   0.000%  ------ ||
|| density_fftbox_interp_mult_imbal           : 13140        0.00s   0.000%  ------ ||
|| sparse_set_to_garbage                      :   330        0.00s   0.000%  ------ ||
|| ewald_calculate_forces_recipspace          :     1        0.01s   0.000%  ------ ||
|| pseudo_make_structure_factor               :     1        0.01s   0.000%  ------ ||
|| ewald_calculate_forces                     :     1        0.01s   0.000%  ------ ||
|| paw_tcore_density                          :     1        0.01s   0.000%  ------ ||
|| ewald_calculate_energy                     :     1        0.01s   0.001%  ------ ||
|| linalg_dgemv                               :    20        0.02s   0.001%  ------ ||
|| basis_extract_function_from_box            :   560        0.02s   0.001%  ------ ||
|| paw_tcore_hartree_calc_forces              :     1        0.04s   0.002%  ------ ||
|| paw_tcore_hartree_on_grid                  :     1        0.06s   0.003%  ------ ||
|| integrals_grad_spam3                       :     2        0.11s   0.006%  ------ ||
|| nonsc_forces_ngwfs_calc                    :     1        0.11s   0.006%  ------ ||
|| restart_hamiltonian_write                  :    14        0.12s   0.006%  ------ ||
|| augmentation_density_forces                :     1        0.12s   0.006%  ------ ||
|| sparse_blacstospam3_real_fast_imbal        :  2570        0.15s   0.008%  ------ ||
|| restart_kernel_write                       :    15        0.15s   0.008%  ------ ||
|| paw_nlcc_calculate_forces                  :     1        0.17s   0.009%  ------ ||
|| paw_sphere_density_on_grid                 :     1        0.20s   0.010%  ------ ||
|| sw_init                                    :  1313        0.22s   0.012%  ------ ||
|| paw_dij_hartree                            :   876        0.29s   0.015%  ------ ||
|| sparse_init                                :     1        0.34s   0.018%  ------ ||
|| ngwfs_initialise_from_radial               :     2        0.35s   0.018%  ------ ||
|| paw_species_calc_proj_prec_mat             :     1        0.53s   0.027%  ------ ||
|| sparse_embed_array_hotelling_invert        :    28        0.65s   0.033%  ------ ||
|| fourier_apply_box_pair                     :   850        0.73s   0.038%  1.434k ||
|| sparse_spam3toblacs_real_fast_B2           : 142.0k       0.94s   0.048%  ------ ||
|| paw_dataset_init                           :     1        1.29s   0.067%  ------ ||
|| hamiltonian_energy_components              :     1        1.94s   0.100%  ------ ||
|| sparse_spam3toblacs_real_fast_imbal        :  2581        2.22s   0.114%  ------ ||
|| eigenstates_calculate                      :     1        2.59s   0.133%  ------ ||
|| projectors_func_grad_ovlp_box_spam3        :     6        3.39s   0.174%  ------ ||
|| basis_copy_function_to_box                 : 18400        3.69s   0.190%  ------ ||
|| aug_nl_calculate_forces                    :     1        3.73s   0.192%  ------ ||
|| ngwf_gradient_coeffs                       :    14        3.94s   0.203%  ------ ||
|| fourier_filter_cell                        :   446        4.28s   0.220% 111.418 ||
|| sparse_trace                               : 16304        4.74s   0.244%  ------ ||
|| cell_grid_extract_box_real                 :  5803        5.09s   0.262%  ------ ||
|| density_init_guess_real                    :     2        5.38s   0.277%  ------ ||
|| projectors_init_fftbox_recip               :   119        7.10s   0.366%  ------ ||
|| forces_calculate                           :     1        7.19s   0.370%  ------ ||
|| energy_and_force_init_cell                 :     1        7.55s   0.389%  ------ ||
|| hartree_on_grid_single                     :   656        8.79s   0.453%  ------ ||
|| sparse_spam3toblacs_real_fast_B1           : 142.0k      11.51s   0.593%  ------ ||
|| fourier_interpolate_cell                   :  1314       12.24s   0.630% 114.728 ||
|| fourier_filter                             :  2370       14.40s   0.742%  ------ ||
|| integrals_kinetic_spam3                    :    56       16.35s   0.842%  ------ ||
|| sparse_spam3toblacs_real_fast              :  2581       16.62s   0.856%  ------ ||
|| function_ops_brappd_ketppd_spam3           :   110       17.97s   0.925%  ------ ||
|| sparse_blacstospam3_real_fast              :  2570       18.61s   0.958%  ------ ||
|| restart_ngwfs_tightbox_output              :    13       18.74s   0.965%  ------ ||
|| sparse_product                             : 14650       18.91s   0.974%  ------ ||
|| cell_grid_deposit_box_real                 : 14701       19.49s   1.004%  ------ ||
|| fourier_interpolate                        :  2370       24.85s   1.280%  ------ ||
|| projectors_func_ovlp_box_spam3             :    56       31.01s   1.597%  ------ ||
|| properties_calculate                       :     1       31.05s   1.600%  ------ ||
|| projectors_gradient_batch                  :    28       33.65s   1.733%  ------ ||
|| fourier_apply_cell_backward                :  5905       41.97s   2.162% 135.411 ||
|| projectors_grad_precond_batch              :    28       42.33s   2.181%  ------ ||
|| fourier_apply_cell_forward                 :  5905       43.23s   2.227% 131.482 ||
|| dense_eigensolve                           :  1248       58.07s   2.991%  ------ ||
|| density_fftbox_deposit_to_cell             : 13140       60.58s   3.121%  ------ ||
|| basis_dot_function_with_box                : 2.920M      64.90s   3.343%  ------ ||
|| augmentation_screen_dij_spam3              :   655       70.81s   3.648%  ------ ||
|| edft_diag_ngwf_ham                         :  1246       74.08s   3.816%  ------ ||
|| ngwf_gradient_build_batch                  :    28       88.49s   4.558%  ------ ||
|| potential_apply_to_ngwf_batch              :   418      100.38s   5.171%  ------ ||
|| xc_energy_potential                        :   656      101.75s   5.242%  ------ ||
|| edft_apply_smearing_operator               :   623      107.18s   5.521%  ------ ||
|| fourier_apply_box                          : 45156      108.35s   5.581%  2.145k ||
|| integrals_locpot_mat_els_batch             :   418      116.14s   5.982%  ------ ||
|| ngwf_gradient_batch                        :    28      133.18s   6.860%  ------ ||
|| ngwf_gradient_lnv                          :    14      137.75s   7.096%  ------ ||
|| aug_density_on_grid_spam3                  :   657      154.24s   7.945%  ------ ||
|| basis_add_function_to_box                  : 7.843M     163.71s   8.433%  ------ ||
|| fourier_interpolate_product                : 13140      174.63s   8.996%  ------ ||
|| density_fftbox_interpolate_multiply        : 13140      198.62s  10.231%  ------ ||
|| paw_dij_xc                                 :   876      211.34s  10.887%  ------ ||
|| aug_nonlocal_mat_spam3_embed_array         :   861      214.18s  11.033%  ------ ||
|| integrals_locpot_dbl_grid                  :   418      217.09s  11.183%  ------ ||
|| density_batch_row_sums                     :  1314      341.88s  17.611%  ------ ||
|| density_batch_interp_deposit               :  1314      370.96s  19.109%  ------ ||
|| density_on_dbl_grid                        :  1314      717.94s  36.983%  ------ ||
|| hamiltonian_lhxc_calculate                 :   653     1098.70s  56.597%  ------ ||
|| edft_calculate                             :    14     1620.38s  83.470%  ------ ||
|| ngwf_cg_optimise                           :     1     1881.92s  96.943%  ------ ||
|| energy_and_forces                          :     1     1932.93s  99.571%  ------ ||
|| total_time                                 :     1     1941.27s 100.000%  ------ ||
======================================================================================
Overhead of generating timer report: 
- 0 ms averaging over threads,
- 3 ms ensuring consistency across MPI ranks,
- 1 ms printing in order.

Job completed: 28-03-2025 23:29 (+0000)

onetep_launcher: ONETEP seems to have finished correctly (zero exit code).
                 Brought to you by PID 92033 on nid006048.
