==================================================================================
It's Thu 16 May 2024 10:40:21 PM BST.
*** Starting onetep_launcher (node nid002305, PIDs 187246 187247 187248 187249 187250 187251 187252 187253 187254 187255 187256 187257 187258 187259 187260 187261)...
    - ONETEP arguments: hBN_66_C_B_nspT.dat
    - Current directory: /mnt/lustre/a2fs-work3/work/e89/e89/ndmh3/hBN_def/hBN_66_C_B_nspT
    - Launcher executable directory: /mnt/lustre/a2fs-work3/work/e89/e89/ndmh3/onetep/utils
    - (-e) ONETEP executable specified through command-line: /work/e89/e89/ndmh3/onetep/bin/onetep.archer2_2023_cray
      ... trying /work/e89/e89/ndmh3/onetep/bin/onetep.archer2_2023_cray
          -> looks OK
*** Setting up environment...
    - (-s) Process stack size: unlimited
    - (-t) OMP_NUM_THREADS: 8
    - (-o) OMP_STACKSIZE: 64M
    - (-c) Maximum core file size: 2048000
    - (-d) decfort_dump_flag: n
    - (-m) I_MPI_OFA_TRANSLATION_CACHE: 0
    - (-m) I_MPI_DAPL_TRANSLATION_CACHE: 0
    - (-m) I_MPI_DAPL_UD_TRANSLATION_CACHE: 0
*** Starting ONETEP...
    - /work/e89/e89/ndmh3/onetep/bin/onetep.archer2_2023_cray hBN_66_C_B_nspT.dat
=================================================================================
_________________________________________________________________________________
 +---------------------------------------------------------------+
 |                                                               |
 |        ####### #     # ####### ####### ####### ######         |
 |        #     # ##    # #          #    #       #     #        |
 |        #     # # #   # #          #    #       #     #        |
 |        #     # #  #  # #####      #    #####   ######         |
 |        #     # #   # # #          #    #       #              |
 |        #     # #    ## #          #    #       #              |
 |        ####### #     # #######    #    ####### #              |
 |                                                               |
 |        Linear-Scaling Ab Initio Total Energy Program          |
 |                                                               |
 |          Release for academic collaborators of ODG            |
 |                                             Version 7.1.29    |
 | Remote: git@github.com:onetep-devel/onetep.git                |
 | Local branch: master                                          |
 | Commit ID: 91e6f3e6b89d8869bed7d0d1b91ca8f87d72fd1f           |
 | Date: Tue May 14 12:35:29 2024 +0200                          |
 | Working tree clean                                            |
 |                                                               |
 +---------------------------------------------------------------+
 |                                                               |
 |  Authors:                                                     |
 |  Jacek Dziedzic, Peter D. Haynes, Nicholas D. M. Hine,        |
 |  Arash A. Mostofi, Mike C. Payne and Chris-Kriton Skylaris    |
 |                                                               |
 |  Contributors:                                                |
 |  J. Aarons, L. Andrinopoulos, P. W. Avraam, R. A. Bell,       |
 |  A. Bhandari, G. A. Bramley, R. J. Charlton, S. J. Clark,     |
 |  R. J. Clements, G. C. Constantinescu, F. Corsetti,           |
 |  N. Corsini, O. Dieguez, S. M. M. Dubois, K. K. B. Duff,      |
 |  J. M. Escartin, M. Escobar Azor, A. Greco,                   |
 |  H. Helal, Q. O. Hill, L. P. Lee, J.-H. Li,                   |
 |  E. B. Linscott, G. Moynihan, D. D. O`Regan,                  |
 |  O. K. Okan, M. J. S. Phipps, C. J. Pickard,                  |
 |  J. C. A. Prentice, M. I. J. Probert, L. E. Ratcliff,         |
 |  M. Robinson, A. Ruiz Serrano, M. dos Santos Dias,            |
 |  J. S. Spencer, E. W. Tait, G. Teobaldi, D. Turban,           |
 |  V. Vitale, K. A. Wilkinson, C. Weber, J. C. Womack,          |
 |  N. Yeung and T. J. Zuehlsdorff                               |
 |                                                               |
 |                                   Copyright (c) 2004-2024     |
 |                                                               |
 |  Please cite:                                                 |
 |  "The ONETEP linear-scaling density functional theory program"|
 |   J. Chem. Phys. 152(17) 174111 (2020)                        |
 |                                                               |
 |          in all publications arising from your use of ONETEP. |
 |                                                               |
 +---------------------------------------------------------------+
 |                                                               |
 |   ONETEP is based on developments described in the following  |
 |   publications:                                               |
 |                                                               |
 |  "Nonorthogonal generalized Wannier function pseudopotential  |
 |   plane-wave method".                                         |
 |   C.-K. Skylaris, A. A. Mostofi, P. D. Haynes, O. Dieguez,    |
 |   M. C. Payne.                                                |
 |   Phys. Rev. B 66 035119 (2002).                              |
 |                                                               |
 |  "Preconditioned iterative minimization for linear-scaling    |
 |   electronic structure calculations".                         |
 |   A. A. Mostofi, P. D. Haynes, C.-K. Skylaris, M. C. Payne.   |
 |   J. Chem. Phys. 119(17), pp.8842-8848 (2003).                |
 |                                                               |
 |  "Total-energy calculations on a real space grid with         |
 |   localized functions and a plane-wave basis".                |
 |   A. A. Mostofi, C.-K. Skylaris, P. D. Haynes, M. C. Payne.   |
 |   Comput. Phys. Commun. 147, pp.788-802 (2002).               |
 |                                                               |
 |  "Accurate kinetic energy evaluation in electronic structure  |
 |   calculations with localized functions on real space grids"  |
 |   C.-K. Skylaris, A. A. Mostofi, P. D. Haynes, C. J. Pickard, |
 |   M. C. Payne.                                                |
 |   Comput. Phys. Commun. 140, pp.315-322 (2001).               |
 |                                                               |
 |  "Accurate ionic forces and geometry optimization in linear-  |
 |   scaling density-functional theory with local orbitals"      |
 |   N. D. M. Hine, M. Robinson, P. D. Haynes, C.-K. Skylaris,   |
 |   M. C. Payne, and A. A. Mostofi.                             |
 |   Phys. Rev. B 83 195102 (2011).                              |
 |                                                               |
 +---------------------------------------------------------------+

Job started: 16-05-2024 22:40 (+0100)
 
Reading parameters from file "hBN_66_C_B_nspT.dat" ...... done

If your calculation crashes here, before "Checking processes and threads..."
is displayed, then your stack size is insufficient.
If so, use "ulimit -s unlimited" at runtime.
You can disable this check with "check_stack_size F".

Checking processes and threads...
   Running with 16 MPI processes.
   There are 16 MPI processes running on the same node as the root process.
   Each MPI process is using: 
               1 threads for simulation cell FFTs.
               1 threads for threaded FFT box operations.
               8 threads for loops over batched FFT box operations.
               8 threads in other parallel regions.
   MPI Interface: S1 (use mpi_f08) (-DMPI -DUSE_MPI_F08).
   MPI_ASYNC_PROTECTS_NONBLOCKING: Yes. MPI_SUBARRAYS_SUPPORTED: Yes.
   FFTW Interface: OMP-capable and MODERN. (-DUSE_MODERN_FFTW specified).
   GPU Interface: None.
... done

Basic input checks...... done

Reading geometry and species blocks from file "hBN_66_C_B_nspT.dat" ...
  <species_atomic_set> block not found: NGWF initialisation set to SOLVE
... done


--------------------------------------------------------------------------------
---------------------------------- INPUT FILE ----------------------------------
--------------------------------------------------------------------------------

charge : 0                                                                      
comms_group_size : 8                                                            
cutoff_energy : 800 eV                                                          
do_properties : T                                                               
edft : F                                                                        
edft_maxit : 15                                                                 
edft_spin_fix : 0                                                               
fast_density : F                                                                
fine_grid_scale : 2                                                             
forces_output_detail : VERBOSE                                                  
geom_continuation : F                                                           
geom_force_tol : 0.01 eV/Ang                                                    
homo_plot : 1                                                                   
lumo_plot : 1                                                                   
maxit_ngwf_cg : 30                                                              
ngwf_threshold_orig : 1e-06                                                     
ngwfs_spin_polarized : T                                                        
output_detail : BRIEF                                                           
paw : T                                                                         
pseudo_path : .                                                                 
read_denskern : F                                                               
read_hamiltonian : F                                                            
read_tightbox_ngwfs : F                                                         
run_time : 86000                                                                
task : GEOMETRYOPTIMIZATION                                                     
write_denskern : T                                                              
write_forces : T                                                                
write_hamiltonian : F                                                           
write_tightbox_ngwfs : T                                                        
xc_functional : PBE                                                             
%BLOCK LATTICE_CART                                                             
ang                                                                             
15.06648071       0.00000000       0.00000000                                   
-7.53324036      13.04795505       0.00000000                                   
0.00000000       0.00000000      16.00000008                                    
%ENDBLOCK LATTICE_CART                                                          
%BLOCK POSITIONS_ABS                                                            
ang                                                                             
B     0.000000     0.000000     8.000000                                        
N     1.255540     0.724886     8.000000                                        
B    -1.255540     2.174659     8.000000                                        
N     0.000000     2.899546     8.000000                                        
B    -2.511080     4.349318     8.000000                                        
N    -1.255540     5.074205     8.000000                                        
B    -3.766620     6.523978     8.000000                                        
N    -2.511080     7.248864     8.000000                                        
B    -5.022160     8.698637     8.000000                                        
N    -3.766620     9.423523     8.000000                                        
B    -6.277700    10.873296     8.000000                                        
N    -5.022160    11.598182     8.000000                                        
B     2.511080     0.000000     8.000000                                        
N     3.766620     0.724886     8.000000                                        
B     1.255540     2.174659     8.000000                                        
N     2.511080     2.899546     8.000000                                        
B     0.000000     4.349318     8.000000                                        
N     1.255540     5.074205     8.000000                                        
B    -1.255540     6.523978     8.000000                                        
N    -0.000000     7.248864     8.000000                                        
B    -2.511080     8.698637     8.000000                                        
N    -1.255540     9.423523     8.000000                                        
B    -3.766620    10.873296     8.000000                                        
N    -2.511080    11.598182     8.000000                                        
B     5.022160     0.000000     8.000000                                        
N     6.277700     0.724886     8.000000                                        
B     3.766620     2.174659     8.000000                                        
N     5.022160     2.899546     8.000000                                        
B     2.511080     4.349318     8.000000                                        
N     3.766620     5.074205     8.000000                                        
B     1.255540     6.523978     8.000000                                        
N     2.511080     7.248864     8.000000                                        
B     0.000000     8.698637     8.000000                                        
N     1.255540     9.423523     8.000000                                        
B    -1.255540    10.873296     8.000000                                        
N     0.000000    11.598182     8.000000                                        
B     7.533240     0.000000     8.000000                                        
N     8.788780     0.724886     8.000000                                        
B     6.277700     2.174659     8.000000                                        
N     7.533240     2.899546     8.000000                                        
B     5.022160     4.349318     8.000000                                        
N     6.277700     5.074205     8.000000                                        
C     3.766620     6.523978     8.000000                                        
N     5.022160     7.248864     8.000000                                        
B     2.511080     8.698637     8.000000                                        
N     3.766620     9.423523     8.000000                                        
B     1.255540    10.873296     8.000000                                        
N     2.511080    11.598182     8.000000                                        
B    10.044320     0.000000     8.000000                                        
N    11.299861     0.724886     8.000000                                        
B     8.788780     2.174659     8.000000                                        
N    10.044320     2.899546     8.000000                                        
B     7.533240     4.349318     8.000000                                        
N     8.788780     5.074205     8.000000                                        
B     6.277700     6.523978     8.000000                                        
N     7.533240     7.248864     8.000000                                        
B     5.022160     8.698637     8.000000                                        
N     6.277700     9.423523     8.000000                                        
B     3.766620    10.873296     8.000000                                        
N     5.022160    11.598182     8.000000                                        
B    12.555401     0.000000     8.000000                                        
N    13.810941     0.724886     8.000000                                        
B    11.299861     2.174659     8.000000                                        
N    12.555401     2.899546     8.000000                                        
B    10.044320     4.349318     8.000000                                        
N    11.299861     5.074205     8.000000                                        
B     8.788780     6.523978     8.000000                                        
N    10.044320     7.248864     8.000000                                        
B     7.533240     8.698637     8.000000                                        
N     8.788780     9.423523     8.000000                                        
B     6.277700    10.873296     8.000000                                        
N     7.533240    11.598182     8.000000                                        
%ENDBLOCK POSITIONS_ABS                                                         
%BLOCK SPECIES                                                                  
B B 5 -1 10.0                                                                   
C C 6 -1 10.0                                                                   
N N 7 -1 10.0                                                                   
%ENDBLOCK SPECIES                                                               
%BLOCK SPECIES_POT                                                              
B B.PBE-paw.abinit                                                              
C C.PBE-paw.abinit                                                              
N N.PBE-paw.abinit                                                              
%ENDBLOCK SPECIES_POT                                                           

--------------------------------------------------------------------------------
-------------------------------- END INPUT FILE --------------------------------
--------------------------------------------------------------------------------


 
 ESDF WARNING(1): "charge" (esdf_physical) has no units. Assume "e".
<<<<<<<<<<<<<<<<<<<<<<<<<<<<<<<<< Full system >>>>>>>>>>>>>>>>>>>>>>>>>>>>>>>>>>
<<<<<<<<<<<<<<<<<<<<<<<<<<< PAW Dataset information >>>>>>>>>>>>>>>>>>>>>>>>>>>
File: B.PBE-paw.abinit; rc = 1.70 bohr; shape type =  2; rshape = 1.61 bohr;
  Atomic number:  5;  ionic charge:  3.000000
    Partial Wave 1: l = 0
    Partial Wave 2: l = 0
    Partial Wave 3: l = 1
    Partial Wave 4: l = 1
  Core charge supplied for Nonlinear Core Corrections
File: N.PBE-paw.abinit; rc = 1.20 bohr; shape type =  2; rshape = 1.01 bohr;
  Atomic number:  7;  ionic charge:  5.000000
    Partial Wave 1: l = 0
    Partial Wave 2: l = 0
    Partial Wave 3: l = 1
    Partial Wave 4: l = 1
  Core charge supplied for Nonlinear Core Corrections
File: C.PBE-paw.abinit; rc = 1.51 bohr; shape type =  2; rshape = 1.30 bohr;
  Atomic number:  6;  ionic charge:  4.000000
    Partial Wave 1: l = 0
    Partial Wave 2: l = 0
    Partial Wave 3: l = 1
    Partial Wave 4: l = 1
  Core charge supplied for Nonlinear Core Corrections
<<<<<<<<<<<<<<<<<<<<<<<<<<<<<<<<<<<<<<< >>>>>>>>>>>>>>>>>>>>>>>>>>>>>>>>>>>>>>>

-------------------------- Atom counting information ---------------------------
Symbol    Natoms    Nngwfs    Nprojs
  B         35       140       280
  N         36       144       288
  C          1         4         8
.......   ......    ......    ......
Totals:     72       288       576
--------------------------------------------------------------------------------

=============================== PSINC grid sizes ===============================
                      Simulation cell:   63 x  63 x  63
                              FFT-box:   63 x  63 x  63
                                  PPD:    7 x   7 x   1
================================================================================

Atom SCF Calculation for B  : Z (AE atom) =   5 : Z (PS atom) =   3
Config String: 2s2.0 2p1.0
Orbitals (num,occ):  2     2.00 1.00
Orbitals   (num,l):  2        0    1
Atom SCF converged after  23 iterations to a total energy of     -2.61457988

Atom SCF Calculation for C  : Z (AE atom) =   6 : Z (PS atom) =   4
Config String: 2s2.0 2p2.0
Orbitals (num,occ):  2     2.00 2.00
Orbitals   (num,l):  2        0    1
Atom SCF converged after  22 iterations to a total energy of     -5.40758077

Atom SCF Calculation for N  : Z (AE atom) =   7 : Z (PS atom) =   5
Config String: 2s2.0 2p3.0
Orbitals (num,occ):  2     2.00 3.00
Orbitals   (num,l):  2        0    1
Atom SCF converged after  23 iterations to a total energy of     -9.72185112

================================================================================
<<<<<<<<<<<<<<<<<<<< Starting ONETEP Geometry Optimisation >>>>>>>>>>>>>>>>>>>>>
================================================================================

 Geometry Optimisation: output file is "hBN_66_C_B_nspT.geom"
 
Calculating Ewald energy ...             1160.207299 Hartree

============================= Charge Augmentation ==============================
                           Aug box size:   21 x  21 x  21
================================================================================

================================= Core Density =================================
               Core den box size:   33 x  33 x  25
================================================================================
Density kernel initialisation

################################################################################
###################### NGWF self-consistent optimisation #######################
################################################################################
|ITER|    RMS GRADIENT   |     TOTAL ENERGY    |   step   |     Epredicted      
   0     0.00049911387810   -467.03842221207191   1.475162   -469.64962608536825        
   1     0.00017691092476   -469.67417972043307   1.621157   -470.03800920995218        
   2     0.00007701076039   -470.04372573151909   1.625776   -470.11337546022168        
   3     0.00004009590406   -470.11449651445713   1.688661   -470.13408575414422        
   4     0.00002479926445   -470.13427340406946   1.194590   -470.13949374081841        
   5     0.00001536540863   -470.13951757537768   2.155155   -470.14313452427473        
   6     0.00001107515631   -470.14312202275704   1.961872   -470.14482587504551        
   7     0.00000712777880   -470.14477668502252   1.759516   -470.14539249222872        
   8     0.00000472374563   -470.14536381744921   1.538639   -470.14560777345736        
   9     0.00000366394730   -470.14560518543846   2.165404   -470.14580829795580        
  10     0.00000237301210   -470.14578784709755   1.210243   -470.14583181468493        

================================================================================
           ---------------- ENERGY COMPONENTS (Eh) ----------------
           | Kinetic                    :      284.99403316953254 |
           | Core Hartree               :    -3378.03401327241863 |
           | CoreHart (non-coul chg cor):        0.00000000000000
           | Hartree                    :     1552.12291319972519 |
           | Exchange-correlation       :     -138.45579339377954 |
           | Ewald                      :     1160.20729898512400 |
           | Dij0                       :       56.59024292477671 |
           | Dijhartree                 :        0.30105666515266 |
           | Exc [AE core]              :     -350.22538704281288 |
           | Exc DC [AE core]           :     -124.23897939599868 |
           | Exc [PS core]              :      -91.62746687144131 |
           | Exc DC [PS core]           :     -108.56689259808482 |
           | Exc [Core]                 :     -250.72635480246217 |
           | Total [Sphere]             :       49.01973422101997 |
           | Total                      :     -470.14582709079644 |
           --------------------------------------------------------
           Integrated compensation chrg.:        7.17497962589244
           Integrated density           :      288.99999999999966
           Integrated spin density      :        1.00000000000008
           Integrated |spin density|    :        1.06559351280056
================================================================================

  11     0.00000017384148   -470.14582709079372  <-- CG                                 

================================= Core Density =================================
               Core den box size:   33 x  33 x  25
================================================================================
 
********************* Unconstrained **********************
********************** Ewald forces **********************
*                                                        *
* Element  Atom         Cartesian components (Eh/a)      *
* ------------------------------------------------------ *
*                       x            y            z      *
*                                                        *
*    B       1      0.00000105  -0.00000126   0.00000000 *
*    N       2     -0.00617840  -0.01655998  -0.00000000 *
*    B       3     -0.00750241  -0.00518618   0.00000000 *
*    N       4     -0.02811648  -0.02632542  -0.00000000 *
*    B       5     -0.00824223  -0.00390301  -0.00000000 *
*    N       6     -0.03685432  -0.01118802  -0.00000000 *
*    B       7     -0.00000243  -0.00000074  -0.00000000 *
*    N       8     -0.01743371   0.00293007  -0.00000000 *
*    B       9      0.00824047   0.00390456  -0.00000000 *
*    N      10     -0.00000120   0.00425307  -0.00000000 *
*    B      11      0.00750146   0.00518510   0.00000000 *
*    N      12      0.00368243  -0.00212559   0.00000000 *
*    B      13     -0.00073958  -0.00909036   0.00000000 *
*    N      14      0.00000001  -0.02799981   0.00000000 *
*    B      15     -0.01286368  -0.02228153  -0.00000000 *
*    N      16     -0.02811528  -0.08147142   0.00000000 *
*    B      17     -0.03321838  -0.01917624   0.00000000 *
*    N      18     -0.13854145  -0.07998649  -0.00000000 *
*    B      19     -0.02572783  -0.00000162   0.00000000 *
*    N      20     -0.08461123   0.01638544  -0.00000000 *
*    B      21     -0.00824200   0.00390346   0.00000000 *
*    N      22     -0.02425098   0.01400190   0.00000000 *
*    B      23     -0.00000043  -0.00000097  -0.00000000 *
*    N      24     -0.00368311  -0.00212495  -0.00000000 *
*    B      25      0.00073888  -0.00909005   0.00000000 *
*    N      26      0.00617900  -0.01655919  -0.00000000 *
*    B      27      0.00000005  -0.03835802   0.00000000 *
*    N      28      0.02811556  -0.08147135   0.00000000 *
*    B      29     -0.06491263  -0.11242977   0.00000000 *
*    N      30      0.00000014  -0.66293513  -0.00000000 *
*    B      31     -0.12982548  -0.00000164  -0.00000000 *
*    N      32     -0.57411942   0.33146797  -0.00000000 *
*    B      33     -0.03321839   0.01917756  -0.00000000 *
*    N      34     -0.05649564   0.06508362   0.00000000 *
*    B      35     -0.00750242   0.00518430   0.00000000 *
*    N      36     -0.01125325   0.01363373   0.00000000 *
*    B      37      0.00000008  -0.00000014  -0.00000000 *
*    N      38      0.00320250   0.00185108   0.00000000 *
*    B      39      0.01286400  -0.02228144  -0.00000000 *
*    N      40      0.02811732  -0.02632547  -0.00000000 *
*    B      41      0.06491281  -0.11242976  -0.00000000 *
*    N      42      0.13854186  -0.07998649  -0.00000000 *
*    C      43      0.00000012  -0.00000217   0.00000000 *
*    N      44      0.57411974   0.33146797  -0.00000000 *
*    B      45     -0.06491268   0.11243118  -0.00000000 *
*    N      46      0.00000011   0.15997501  -0.00000000 *
*    B      47     -0.01286363   0.02228028   0.00000000 *
*    N      48     -0.00873673   0.03751357   0.00000000 *
*    B      49     -0.00073701   0.00909169  -0.00000000 *
*    N      50     -0.00000366   0.00992123  -0.00000000 *
*    B      51      0.00750336  -0.00518576  -0.00000000 *
*    N      52      0.00859372  -0.00496470   0.00000000 *
*    B      53      0.03321878  -0.01917628  -0.00000000 *
*    N      54      0.03685564  -0.01118812   0.00000000 *
*    B      55      0.12982572  -0.00000163  -0.00000000 *
*    N      56      0.08461181   0.01638555   0.00000000 *
*    B      57      0.06491288   0.11243116  -0.00000000 *
*    N      58      0.05649625   0.06508361   0.00000000 *
*    B      59     -0.00000002   0.03835699  -0.00000000 *
*    N      60      0.00873660   0.03751269   0.00000000 *
*    B      61      0.00073877   0.00908949  -0.00000000 *
*    N      62     -0.00320184   0.00185077   0.00000000 *
*    B      63     -0.00000297   0.00000088   0.00000000 *
*    N      64     -0.00859310  -0.00496262   0.00000000 *
*    B      65      0.00824396  -0.00390092  -0.00000000 *
*    N      66     -0.00000429  -0.00369690   0.00000000 *
*    B      67      0.02572834  -0.00000170   0.00000000 *
*    N      68      0.01743379   0.00292862   0.00000000 *
*    B      69      0.03321890   0.01917770   0.00000000 *
*    N      70      0.02425227   0.01400096  -0.00000000 *
*    B      71      0.01286415   0.02227996  -0.00000000 *
*    N      72      0.01125575   0.01363171   0.00000000 *
*                                                        *
**********************************************************
TOTAL:              0.00000000  -0.00000000  -0.00000000
 
********************* Unconstrained **********************
***************** Local potential forces *****************
*                                                        *
* Element  Atom         Cartesian components (Eh/a)      *
* ------------------------------------------------------ *
*                       x            y            z      *
*                                                        *
*    B       1     -0.00079585   0.00046054  -0.00000015 *
*    N       2      0.00608064   0.01536065   0.00000030 *
*    B       3      0.00717532   0.00537648  -0.00000015 *
*    N       4      0.02635308   0.02577402   0.00000033 *
*    B       5      0.00824307   0.00351997  -0.00000014 *
*    N       6      0.03549862   0.00992160   0.00000030 *
*    B       7      0.00000831  -0.00091895  -0.00000013 *
*    N       8      0.01635674  -0.00242563   0.00000026 *
*    B       9     -0.00788221  -0.00366177  -0.00000014 *
*    N      10      0.00001057  -0.00339157   0.00000033 *
*    B      11     -0.00710692  -0.00499829  -0.00000015 *
*    N      12     -0.00292095   0.00169158   0.00000031 *
*    B      13      0.00077537   0.00865575  -0.00000014 *
*    N      14      0.00001459   0.02691650   0.00000031 *
*    B      15      0.01005581   0.02132670  -0.00000015 *
*    N      16      0.02601402   0.07024388   0.00000041 *
*    B      17      0.03214392   0.01855047  -0.00000013 *
*    N      18      0.12610289   0.07279778   0.00000041 *
*    B      19      0.02349304  -0.00195080  -0.00000007 *
*    N      20      0.07384627  -0.01259892   0.00000025 *
*    B      21      0.00788965  -0.00366403  -0.00000014 *
*    N      22      0.02333120  -0.01346550   0.00000033 *
*    B      23     -0.00000057   0.00000199  -0.00000015 *
*    N      24      0.00294645   0.00169453   0.00000030 *
*    B      25     -0.00076953   0.00865889  -0.00000015 *
*    N      26     -0.00606224   0.01535848   0.00000031 *
*    B      27      0.00000472   0.03578707  -0.00000014 *
*    N      28     -0.02599138   0.07023816   0.00000036 *
*    B      29      0.04972593   0.10651907  -0.00000023 *
*    N      30      0.00000237   0.45921611  -0.00000030 *
*    B      31      0.11711957  -0.01018911  -0.00000021 *
*    N      32      0.39775049  -0.22963484   0.00000184 *
*    B      33      0.03099412  -0.01789313  -0.00000009 *
*    N      34      0.04783890  -0.05764586   0.00000020 *
*    B      35      0.00711904  -0.00499842  -0.00000015 *
*    N      36      0.01028174  -0.01294512   0.00000030 *
*    B      37      0.00079857   0.00045426  -0.00000015 *
*    N      38     -0.00295512  -0.00171997   0.00000031 *
*    B      39     -0.01005556   0.02132528  -0.00000013 *
*    N      40     -0.02633065   0.02577900   0.00000036 *
*    B      41     -0.04972052   0.10651880   0.00000004 *
*    N      42     -0.12607607   0.07279599   0.00000010 *
*    C      43     -0.00004230   0.00002454   0.00000017 *
*    N      44     -0.39768917  -0.22959911   0.00000013 *
*    B      45      0.06738444  -0.09633135  -0.00000014 *
*    N      46      0.00001163  -0.14559942   0.00000014 *
*    B      47      0.01343764  -0.01936660  -0.00000014 *
*    N      48      0.00916058  -0.03569780   0.00000033 *
*    B      49      0.00107046  -0.00889956  -0.00000015 *
*    N      50      0.00001261  -0.00925053   0.00000031 *
*    B      51     -0.00716396   0.00537541  -0.00000014 *
*    N      52     -0.00799665   0.00462560   0.00000034 *
*    B      53     -0.03213718   0.01855314  -0.00000010 *
*    N      54     -0.03548418   0.00992278   0.00000033 *
*    B      55     -0.11710973  -0.01019946  -0.00000007 *
*    N      56     -0.07381662  -0.01260138   0.00000018 *
*    B      57     -0.06738573  -0.09632178  -0.00000027 *
*    N      58     -0.04781779  -0.05764154   0.00000030 *
*    B      59      0.00000577  -0.03711202  -0.00000014 *
*    N      60     -0.00913572  -0.03570129   0.00000030 *
*    B      61     -0.00106648  -0.00890027  -0.00000015 *
*    N      62      0.00298465  -0.00171976   0.00000029 *
*    B      63      0.00000192   0.00000042  -0.00000015 *
*    N      64      0.00802144   0.00462797   0.00000031 *
*    B      65     -0.00823768   0.00351376  -0.00000014 *
*    N      66      0.00001931   0.00342552   0.00000037 *
*    B      67     -0.02349445  -0.00195036  -0.00000011 *
*    N      68     -0.01633120  -0.00242084   0.00000028 *
*    B      69     -0.03098905  -0.01789600  -0.00000016 *
*    N      70     -0.02330228  -0.01346402   0.00000033 *
*    B      71     -0.01344035  -0.01936995  -0.00000014 *
*    N      72     -0.01026108  -0.01293932   0.00000029 *
*                                                        *
**********************************************************
TOTAL:              0.00051629  -0.00007157   0.00000686
 
********************* Unconstrained **********************
************** Compensation density forces ***************
*                                                        *
* Element  Atom         Cartesian components (Eh/a)      *
* ------------------------------------------------------ *
*                       x            y            z      *
*                                                        *
*    B       1     -0.00001375   0.00000803   0.00000045 *
*    N       2     -0.00000191   0.00002506   0.00000155 *
*    B       3     -0.00001351  -0.00000535   0.00000045 *
*    N       4      0.00004118   0.00001612   0.00000154 *
*    B       5     -0.00001156  -0.00000804   0.00000045 *
*    N       6      0.00003449   0.00002847   0.00000155 *
*    B       7     -0.00000064  -0.00001517   0.00000045 *
*    N       8      0.00002005  -0.00001375   0.00000155 *
*    B       9      0.00000598   0.00000359   0.00000045 *
*    N      10      0.00000001  -0.00002058   0.00000154 *
*    B      11      0.00000531   0.00000404   0.00000045 *
*    N      12     -0.00001853   0.00001087   0.00000154 *
*    B      13     -0.00000078  -0.00000647   0.00000045 *
*    N      14     -0.00000033   0.00002348   0.00000155 *
*    B      15     -0.00008013  -0.00004307   0.00000045 *
*    N      16      0.00001471   0.00024197   0.00000157 *
*    B      17     -0.00007988  -0.00004518   0.00000044 *
*    N      18      0.00029952   0.00017316   0.00000157 *
*    B      19     -0.00007837  -0.00004742   0.00000045 *
*    N      20      0.00021666  -0.00010801   0.00000158 *
*    B      21     -0.00000678   0.00000393   0.00000045 *
*    N      22      0.00001972  -0.00001120   0.00000155 *
*    B      23     -0.00000021   0.00000020   0.00000045 *
*    N      24      0.00001798   0.00001053   0.00000154 *
*    B      25     -0.00000006  -0.00000681   0.00000045 *
*    N      26      0.00000178   0.00002501   0.00000155 *
*    B      27     -0.00000070  -0.00003810   0.00000044 *
*    N      28     -0.00001530   0.00024232   0.00000157 *
*    B      29     -0.00046719  -0.00026836   0.00000041 *
*    N      30     -0.00000060   0.00478704   0.00000192 *
*    B      31     -0.00046550  -0.00026870   0.00000047 *
*    N      32      0.00414383  -0.00239558   0.00000189 *
*    B      33     -0.00003349   0.00001944   0.00000045 *
*    N      34      0.00020195  -0.00013306   0.00000158 *
*    B      35     -0.00000671   0.00000402   0.00000045 *
*    N      36      0.00002210  -0.00001023   0.00000155 *
*    B      37      0.00001280   0.00000798   0.00000045 *
*    N      38     -0.00000152  -0.00000033   0.00000154 *
*    B      39      0.00008007  -0.00004318   0.00000045 *
*    N      40     -0.00004168   0.00001585   0.00000154 *
*    B      41      0.00046584  -0.00026752   0.00000042 *
*    N      42     -0.00030042   0.00017381   0.00000158 *
*    C      43      0.00000061  -0.00000046  -0.00000006 *
*    N      44     -0.00414459  -0.00239213   0.00000190 *
*    B      45      0.00000035   0.00053742   0.00000042 *
*    N      46     -0.00000002  -0.00034554   0.00000158 *
*    B      47      0.00000200   0.00009206   0.00000045 *
*    N      48     -0.00000727  -0.00004383   0.00000154 *
*    B      49      0.00000122   0.00001412   0.00000045 *
*    N      50      0.00000003  -0.00001428   0.00000154 *
*    B      51      0.00001207  -0.00000532   0.00000045 *
*    N      52     -0.00001309   0.00000773   0.00000154 *
*    B      53      0.00007907  -0.00004561   0.00000044 *
*    N      54     -0.00003440   0.00002845   0.00000155 *
*    B      55      0.00046416  -0.00026967   0.00000037 *
*    N      56     -0.00021707  -0.00010749   0.00000158 *
*    B      57     -0.00000111   0.00053891   0.00000042 *
*    N      58     -0.00020211  -0.00013355   0.00000158 *
*    B      59     -0.00000076   0.00009192   0.00000044 *
*    N      60      0.00000678  -0.00004344   0.00000155 *
*    B      61     -0.00000204   0.00001450   0.00000045 *
*    N      62      0.00000084  -0.00000031   0.00000154 *
*    B      63     -0.00000018   0.00000019   0.00000045 *
*    N      64      0.00001253   0.00000738   0.00000154 *
*    B      65      0.00001071  -0.00000770   0.00000045 *
*    N      66     -0.00000033   0.00000174   0.00000154 *
*    B      67      0.00007780  -0.00004737   0.00000044 *
*    N      68     -0.00002058  -0.00001378   0.00000155 *
*    B      69      0.00003270   0.00001977   0.00000044 *
*    N      70     -0.00002033  -0.00001119   0.00000155 *
*    B      71     -0.00000270   0.00009106   0.00000045 *
*    N      72     -0.00002253  -0.00001064   0.00000155 *
*                                                        *
**********************************************************
TOTAL:             -0.00002381   0.00002175   0.00007241
 
********************* Unconstrained **********************
*************** Non-local potential forces ***************
*                                                        *
* Element  Atom         Cartesian components (Eh/a)      *
* ------------------------------------------------------ *
*                       x            y            z      *
*                                                        *
*    B       1      0.00034695  -0.00020180  -0.00000026 *
*    N       2      0.00055675   0.00156932  -0.00000134 *
*    B       3      0.00036642   0.00014943  -0.00000026 *
*    N       4      0.00174077   0.00017997  -0.00000137 *
*    B       5      0.00033264   0.00019654  -0.00000025 *
*    N       6      0.00100702   0.00144689  -0.00000129 *
*    B       7      0.00002787   0.00036010  -0.00000024 *
*    N       8      0.00161986  -0.00026919  -0.00000123 *
*    B       9     -0.00015849  -0.00012457  -0.00000025 *
*    N      10     -0.00002931  -0.00075580  -0.00000137 *
*    B      11     -0.00015706  -0.00011545  -0.00000026 *
*    N      12     -0.00068636   0.00038695  -0.00000135 *
*    B      13      0.00002044   0.00019130  -0.00000026 *
*    N      14     -0.00002571   0.00132059  -0.00000135 *
*    B      15      0.00202136   0.00107809  -0.00000026 *
*    N      16      0.00590851   0.01347170  -0.00000140 *
*    B      17      0.00212256   0.00119043  -0.00000025 *
*    N      18      0.01193911   0.00691024  -0.00000141 *
*    B      19      0.00197012   0.00117644  -0.00000015 *
*    N      20      0.01459805  -0.00158041  -0.00000131 *
*    B      21      0.00020594  -0.00013007  -0.00000026 *
*    N      22      0.00111103  -0.00065050  -0.00000137 *
*    B      23      0.00001947  -0.00001274  -0.00000026 *
*    N      24      0.00063196   0.00038941  -0.00000133 *
*    B      25      0.00002750   0.00019697  -0.00000026 *
*    N      26     -0.00061547   0.00156957  -0.00000135 *
*    B      27      0.00002860   0.00114481  -0.00000025 *
*    N      28     -0.00596593   0.01347275  -0.00000135 *
*    B      29      0.01313684   0.00732155  -0.00000014 *
*    N      30     -0.00004872   0.23921647   0.00000018 *
*    B      31      0.01293151   0.00766525  -0.00000074 *
*    N      32      0.20708562  -0.11957374  -0.00000319 *
*    B      33      0.00102467  -0.00059315  -0.00000028 *
*    N      34      0.00865937  -0.01186704  -0.00000113 *
*    B      35      0.00021437  -0.00011542  -0.00000026 *
*    N      36      0.00103571  -0.00128121  -0.00000133 *
*    B      37     -0.00029827  -0.00020435  -0.00000026 *
*    N      38     -0.00074876  -0.00041076  -0.00000133 *
*    B      39     -0.00198570   0.00107808  -0.00000026 *
*    N      40     -0.00179410   0.00018294  -0.00000141 *
*    B      41     -0.01309013   0.00731437  -0.00000021 *
*    N      42     -0.01198954   0.00691151  -0.00000110 *
*    C      43      0.00003283  -0.00002002   0.00000058 *
*    N      44     -0.20719861  -0.11958460  -0.00000153 *
*    B      45     -0.00017604  -0.01503318  -0.00000029 *
*    N      46     -0.00002420  -0.01381002  -0.00000121 *
*    B      47     -0.00003541  -0.00229940  -0.00000025 *
*    N      48     -0.00075797  -0.00161001  -0.00000136 *
*    B      49     -0.00000460  -0.00038817  -0.00000026 *
*    N      50     -0.00002936  -0.00076727  -0.00000134 *
*    B      51     -0.00030851   0.00014932  -0.00000026 *
*    N      52     -0.00069683   0.00039189  -0.00000137 *
*    B      53     -0.00207500   0.00119701  -0.00000026 *
*    N      54     -0.00106473   0.00144708  -0.00000140 *
*    B      55     -0.01287616   0.00767771   0.00000021 *
*    N      56     -0.01465906  -0.00158345  -0.00000117 *
*    B      57      0.00022643  -0.01504008  -0.00000021 *
*    N      58     -0.00872272  -0.01186733  -0.00000140 *
*    B      59      0.00002938  -0.00243583  -0.00000027 *
*    N      60      0.00070533  -0.00161239  -0.00000133 *
*    B      61      0.00005246  -0.00039425  -0.00000026 *
*    N      62      0.00069555  -0.00041089  -0.00000133 *
*    B      63      0.00001896  -0.00001234  -0.00000027 *
*    N      64      0.00064195   0.00039348  -0.00000134 *
*    B      65     -0.00028454   0.00019092  -0.00000026 *
*    N      66     -0.00002715   0.00083949  -0.00000142 *
*    B      67     -0.00192995   0.00117645  -0.00000010 *
*    N      68     -0.00167489  -0.00026702  -0.00000133 *
*    B      69     -0.00097829  -0.00059906  -0.00000024 *
*    N      70     -0.00116381  -0.00065144  -0.00000138 *
*    B      71      0.00007582  -0.00229185  -0.00000028 *
*    N      72     -0.00108848  -0.00128043  -0.00000133 *
*                                                        *
**********************************************************
TOTAL:             -0.00020013  -0.00029020  -0.00005641
 
********************* Unconstrained **********************
************ NGWF non self-consistent forces *************
*                                                        *
* Element  Atom         Cartesian components (Eh/a)      *
* ------------------------------------------------------ *
*                       x            y            z      *
*                                                        *
*    B       1     -0.00000656   0.00000380   0.00000003 *
*    N       2     -0.00001343   0.00001635   0.00000006 *
*    B       3      0.00000849   0.00003013   0.00000002 *
*    N       4     -0.00002111   0.00002637   0.00000006 *
*    B       5      0.00003561  -0.00000178   0.00000002 *
*    N       6      0.00000337  -0.00000301   0.00000004 *
*    B       7     -0.00000754  -0.00000950   0.00000003 *
*    N       8     -0.00000929   0.00000176   0.00000006 *
*    B       9      0.00000365   0.00001139   0.00000002 *
*    N      10     -0.00000998   0.00001357   0.00000006 *
*    B      11      0.00000403  -0.00000428   0.00000002 *
*    N      12     -0.00001071   0.00000617   0.00000006 *
*    B      13      0.00000574  -0.00000133   0.00000002 *
*    N      14     -0.00001341   0.00000525   0.00000006 *
*    B      15      0.00002654  -0.00000117   0.00000003 *
*    N      16     -0.00005876  -0.00003864   0.00000004 *
*    B      17      0.00003860   0.00003181   0.00000003 *
*    N      18     -0.00002547   0.00000017   0.00000013 *
*    B      19      0.00001988   0.00001312   0.00000000 *
*    N      20     -0.00008254  -0.00001480   0.00000010 *
*    B      21     -0.00000681   0.00001890   0.00000003 *
*    N      22     -0.00001512   0.00000869   0.00000006 *
*    B      23      0.00000604  -0.00000348   0.00000003 *
*    N      24     -0.00001677   0.00000182   0.00000006 *
*    B      25     -0.00000803  -0.00000883   0.00000002 *
*    N      26     -0.00000678   0.00001764   0.00000007 *
*    B      27     -0.00000749  -0.00006808   0.00000002 *
*    N      28      0.00003464  -0.00004034  -0.00000000 *
*    B      29     -0.00001691  -0.00003660   0.00000001 *
*    N      30     -0.00000942   0.00021341   0.00000002 *
*    B      31     -0.00005007   0.00000076   0.00000001 *
*    N      32      0.00017593  -0.00010173   0.00000000 *
*    B      33     -0.00005529   0.00003191   0.00000003 *
*    N      34     -0.00002848   0.00007884   0.00000001 *
*    B      35     -0.00001976  -0.00000353   0.00000002 *
*    N      36     -0.00000618   0.00000717   0.00000007 *
*    B      37      0.00000448   0.00001130   0.00000003 *
*    N      38      0.00000793   0.00002011   0.00000007 *
*    B      39     -0.00001427   0.00000016   0.00000002 *
*    N      40     -0.00000637   0.00002139   0.00000006 *
*    B      41      0.00001711  -0.00003057  -0.00000001 *
*    N      42     -0.00000272   0.00000157  -0.00000001 *
*    C      43      0.00000666  -0.00000395   0.00000036 *
*    N      44     -0.00018946  -0.00009870   0.00000008 *
*    B      45     -0.00002566   0.00004303  -0.00000003 *
*    N      46     -0.00001290   0.00002201   0.00000013 *
*    B      47     -0.00000142  -0.00002373   0.00000003 *
*    N      48      0.00000430  -0.00000140   0.00000006 *
*    B      49      0.00001936  -0.00002992   0.00000002 *
*    N      50     -0.00000991   0.00001361   0.00000006 *
*    B      51     -0.00002432   0.00003027   0.00000002 *
*    N      52     -0.00001070   0.00000617   0.00000006 *
*    B      53     -0.00004106   0.00002374   0.00000002 *
*    N      54     -0.00002172  -0.00000517   0.00000011 *
*    B      55      0.00003504   0.00000046  -0.00000002 *
*    N      56      0.00005225  -0.00000985   0.00000004 *
*    B      57      0.00002325   0.00003304   0.00000007 *
*    N      58      0.00000405   0.00007019   0.00000010 *
*    B      59     -0.00000823  -0.00004928   0.00000003 *
*    N      60     -0.00003341   0.00000508   0.00000007 *
*    B      61     -0.00002183  -0.00002240   0.00000002 *
*    N      62     -0.00003433   0.00001979   0.00000006 *
*    B      63      0.00000686  -0.00000395   0.00000002 *
*    N      64     -0.00001676   0.00000174   0.00000006 *
*    B      65     -0.00003836   0.00000595   0.00000002 *
*    N      66     -0.00001348  -0.00001695   0.00000007 *
*    B      67     -0.00000727   0.00001230   0.00000003 *
*    N      68     -0.00001872  -0.00000298   0.00000009 *
*    B      69      0.00005524   0.00004053   0.00000003 *
*    N      70     -0.00001125   0.00000895   0.00000007 *
*    B      71      0.00001429  -0.00002238   0.00000003 *
*    N      72     -0.00002090   0.00000343   0.00000007 *
*                                                        *
**********************************************************
TOTAL:             -0.00047761   0.00027551   0.00000332
 
********************* Unconstrained **********************
********************** NLCC forces ***********************
*                                                        *
* Element  Atom         Cartesian components (Eh/a)      *
* ------------------------------------------------------ *
*                       x            y            z      *
*                                                        *
*    B       1     -0.00000087   0.00000054  -0.00000004 *
*    N       2     -0.00000294  -0.00006840  -0.00011480 *
*    B       3     -0.00000033   0.00000008  -0.00000004 *
*    N       4     -0.00003648  -0.00003680  -0.00011480 *
*    B       5     -0.00000002  -0.00000044  -0.00000004 *
*    N       6     -0.00002105  -0.00006248  -0.00011439 *
*    B       7      0.00000008  -0.00000113  -0.00000003 *
*    N       8     -0.00003233  -0.00001549  -0.00011385 *
*    B       9      0.00000037   0.00000005  -0.00000004 *
*    N      10      0.00000911  -0.00000969  -0.00011478 *
*    B      11      0.00000028   0.00000018  -0.00000004 *
*    N      12      0.00002465  -0.00003723  -0.00011480 *
*    B      13      0.00000001  -0.00000029  -0.00000004 *
*    N      14      0.00000872  -0.00006419  -0.00011485 *
*    B      15     -0.00000396  -0.00000148  -0.00000004 *
*    N      16     -0.00012339  -0.00039563  -0.00011488 *
*    B      17     -0.00000210  -0.00000128  -0.00000004 *
*    N      18     -0.00030941  -0.00021033  -0.00011432 *
*    B      19     -0.00000322  -0.00000282   0.00000012 *
*    N      20     -0.00037979   0.00004753  -0.00011405 *
*    B      21     -0.00000019   0.00000006  -0.00000004 *
*    N      22     -0.00002276  -0.00001021  -0.00011487 *
*    B      23      0.00000010  -0.00000002  -0.00000004 *
*    N      24     -0.00000733  -0.00003750  -0.00011482 *
*    B      25      0.00000017  -0.00000029  -0.00000004 *
*    N      26      0.00002202  -0.00006827  -0.00011480 *
*    B      27      0.00000008  -0.00000183  -0.00000004 *
*    N      28      0.00013984  -0.00039726  -0.00011439 *
*    B      29     -0.00001843  -0.00000429  -0.00000002 *
*    N      30      0.00001043  -0.00716507  -0.00010600 *
*    B      31     -0.00001290  -0.00001377   0.00000025 *
*    N      32     -0.00618087   0.00353657  -0.00011563 *
*    B      33     -0.00000147   0.00000088  -0.00000004 *
*    N      34     -0.00024317   0.00027376  -0.00011461 *
*    B      35     -0.00000012   0.00000018  -0.00000004 *
*    N      36     -0.00002104   0.00000113  -0.00011479 *
*    B      37      0.00000103   0.00000051  -0.00000004 *
*    N      38      0.00002483  -0.00001882  -0.00011479 *
*    B      39      0.00000418  -0.00000145  -0.00000004 *
*    N      40      0.00005274  -0.00003731  -0.00011477 *
*    B      41      0.00001859  -0.00000429  -0.00000003 *
*    N      42      0.00032437  -0.00021026  -0.00011277 *
*    C      43      0.00004205  -0.00000466  -0.00035729 *
*    N      44      0.00618451   0.00353865  -0.00010354 *
*    B      45      0.00000551   0.00001811  -0.00000003 *
*    N      46      0.00000824   0.00033915  -0.00011473 *
*    B      47      0.00000087   0.00000429  -0.00000004 *
*    N      48      0.00002334   0.00001459  -0.00011479 *
*    B      49      0.00000039   0.00000028  -0.00000004 *
*    N      50      0.00000916  -0.00000986  -0.00011479 *
*    B      51      0.00000050   0.00000008  -0.00000004 *
*    N      52      0.00002411  -0.00003712  -0.00011483 *
*    B      53      0.00000229  -0.00000129  -0.00000004 *
*    N      54      0.00003937  -0.00006199  -0.00011427 *
*    B      55      0.00001295  -0.00001395  -0.00000030 *
*    N      56      0.00039372   0.00003894  -0.00011412 *
*    B      57     -0.00000546   0.00001816  -0.00000002 *
*    N      58      0.00026146   0.00027020  -0.00011452 *
*    B      59      0.00000008   0.00000251  -0.00000004 *
*    N      60     -0.00000647   0.00001530  -0.00011475 *
*    B      61     -0.00000021   0.00000030  -0.00000004 *
*    N      62     -0.00000698  -0.00001911  -0.00011477 *
*    B      63      0.00000010  -0.00000003  -0.00000004 *
*    N      64     -0.00000694  -0.00003746  -0.00011482 *
*    B      65      0.00000021  -0.00000043  -0.00000004 *
*    N      66      0.00000840  -0.00004609  -0.00011471 *
*    B      67      0.00000341  -0.00000282  -0.00000019 *
*    N      68      0.00004876  -0.00001869  -0.00011486 *
*    B      69      0.00000165   0.00000089  -0.00000004 *
*    N      70      0.00003953  -0.00001019  -0.00011479 *
*    B      71     -0.00000067   0.00000422  -0.00000004 *
*    N      72      0.00003764   0.00000207  -0.00011481 *
*                                                        *
**********************************************************
TOTAL:              0.00033896  -0.00101284  -0.00446535
 
********************* Unconstrained **********************
****** Correction to ensure the total force is zero ******
*                                                        *
* Element  Atom         Cartesian components (Eh/a)      *
* ------------------------------------------------------ *
*                       x            y            z      *
*                                                        *
*    B       1     -0.00000213   0.00001496   0.00006166 *
*    N       2     -0.00000213   0.00001496   0.00006166 *
*    B       3     -0.00000213   0.00001496   0.00006166 *
*    N       4     -0.00000213   0.00001496   0.00006166 *
*    B       5     -0.00000213   0.00001496   0.00006166 *
*    N       6     -0.00000213   0.00001496   0.00006166 *
*    B       7     -0.00000213   0.00001496   0.00006166 *
*    N       8     -0.00000213   0.00001496   0.00006166 *
*    B       9     -0.00000213   0.00001496   0.00006166 *
*    N      10     -0.00000213   0.00001496   0.00006166 *
*    B      11     -0.00000213   0.00001496   0.00006166 *
*    N      12     -0.00000213   0.00001496   0.00006166 *
*    B      13     -0.00000213   0.00001496   0.00006166 *
*    N      14     -0.00000213   0.00001496   0.00006166 *
*    B      15     -0.00000213   0.00001496   0.00006166 *
*    N      16     -0.00000213   0.00001496   0.00006166 *
*    B      17     -0.00000213   0.00001496   0.00006166 *
*    N      18     -0.00000213   0.00001496   0.00006166 *
*    B      19     -0.00000213   0.00001496   0.00006166 *
*    N      20     -0.00000213   0.00001496   0.00006166 *
*    B      21     -0.00000213   0.00001496   0.00006166 *
*    N      22     -0.00000213   0.00001496   0.00006166 *
*    B      23     -0.00000213   0.00001496   0.00006166 *
*    N      24     -0.00000213   0.00001496   0.00006166 *
*    B      25     -0.00000213   0.00001496   0.00006166 *
*    N      26     -0.00000213   0.00001496   0.00006166 *
*    B      27     -0.00000213   0.00001496   0.00006166 *
*    N      28     -0.00000213   0.00001496   0.00006166 *
*    B      29     -0.00000213   0.00001496   0.00006166 *
*    N      30     -0.00000213   0.00001496   0.00006166 *
*    B      31     -0.00000213   0.00001496   0.00006166 *
*    N      32     -0.00000213   0.00001496   0.00006166 *
*    B      33     -0.00000213   0.00001496   0.00006166 *
*    N      34     -0.00000213   0.00001496   0.00006166 *
*    B      35     -0.00000213   0.00001496   0.00006166 *
*    N      36     -0.00000213   0.00001496   0.00006166 *
*    B      37     -0.00000213   0.00001496   0.00006166 *
*    N      38     -0.00000213   0.00001496   0.00006166 *
*    B      39     -0.00000213   0.00001496   0.00006166 *
*    N      40     -0.00000213   0.00001496   0.00006166 *
*    B      41     -0.00000213   0.00001496   0.00006166 *
*    N      42     -0.00000213   0.00001496   0.00006166 *
*    C      43     -0.00000213   0.00001496   0.00006166 *
*    N      44     -0.00000213   0.00001496   0.00006166 *
*    B      45     -0.00000213   0.00001496   0.00006166 *
*    N      46     -0.00000213   0.00001496   0.00006166 *
*    B      47     -0.00000213   0.00001496   0.00006166 *
*    N      48     -0.00000213   0.00001496   0.00006166 *
*    B      49     -0.00000213   0.00001496   0.00006166 *
*    N      50     -0.00000213   0.00001496   0.00006166 *
*    B      51     -0.00000213   0.00001496   0.00006166 *
*    N      52     -0.00000213   0.00001496   0.00006166 *
*    B      53     -0.00000213   0.00001496   0.00006166 *
*    N      54     -0.00000213   0.00001496   0.00006166 *
*    B      55     -0.00000213   0.00001496   0.00006166 *
*    N      56     -0.00000213   0.00001496   0.00006166 *
*    B      57     -0.00000213   0.00001496   0.00006166 *
*    N      58     -0.00000213   0.00001496   0.00006166 *
*    B      59     -0.00000213   0.00001496   0.00006166 *
*    N      60     -0.00000213   0.00001496   0.00006166 *
*    B      61     -0.00000213   0.00001496   0.00006166 *
*    N      62     -0.00000213   0.00001496   0.00006166 *
*    B      63     -0.00000213   0.00001496   0.00006166 *
*    N      64     -0.00000213   0.00001496   0.00006166 *
*    B      65     -0.00000213   0.00001496   0.00006166 *
*    N      66     -0.00000213   0.00001496   0.00006166 *
*    B      67     -0.00000213   0.00001496   0.00006166 *
*    N      68     -0.00000213   0.00001496   0.00006166 *
*    B      69     -0.00000213   0.00001496   0.00006166 *
*    N      70     -0.00000213   0.00001496   0.00006166 *
*    B      71     -0.00000213   0.00001496   0.00006166 *
*    N      72     -0.00000213   0.00001496   0.00006166 *
*                                                        *
**********************************************************
TOTAL:             -0.00015369   0.00107734   0.00443917

********************* Unconstrained **********************
************************* Forces *************************
*                                                        *
* Element  Atom         Cartesian components (Eh/a)      *
* ------------------------------------------------------ *
*                       x            y            z      *
*                                                        *
*    B       1     -0.00047116   0.00028479   0.00006169 *
*    N       2      0.00043857   0.00035796  -0.00005257 *
*    B       3      0.00003184   0.00037955   0.00006168 *
*    N       4     -0.00004117  -0.00035077  -0.00005257 *
*    B       5      0.00035537  -0.00018179   0.00006170 *
*    N       6     -0.00033400   0.00015841  -0.00005215 *
*    B       7      0.00002351  -0.00057043   0.00006173 *
*    N       8      0.00051919   0.00022273  -0.00005155 *
*    B       9      0.00020763   0.00014822   0.00006170 *
*    N      10     -0.00002294   0.00010396  -0.00005257 *
*    B      11      0.00024498   0.00008627   0.00006168 *
*    N      12      0.00006840  -0.00005228  -0.00005257 *
*    B      13      0.00005907  -0.00023643   0.00006169 *
*    N      14     -0.00001826   0.00021677  -0.00005262 *
*    B      15     -0.00084619   0.00009251   0.00006169 *
*    N      16      0.00363767   0.00206682  -0.00005260 *
*    B      17      0.00100259   0.00056497   0.00006171 *
*    N      18     -0.00053696  -0.00030052  -0.00005197 *
*    B      19     -0.00032853  -0.00079815   0.00006202 *
*    N      20      0.00358529   0.00214579  -0.00005177 *
*    B      21     -0.00016231   0.00014721   0.00006170 *
*    N      22      0.00017096  -0.00011184  -0.00005264 *
*    B      23      0.00002226  -0.00000006   0.00006168 *
*    N      24     -0.00011297  -0.00005119  -0.00005258 *
*    B      25     -0.00001321  -0.00023516   0.00006168 *
*    N      26     -0.00048383   0.00035820  -0.00005257 *
*    B      27      0.00002314  -0.00151919   0.00006170 *
*    N      28     -0.00368471   0.00205924  -0.00005215 *
*    B      29     -0.00255453   0.00111656   0.00006168 *
*    N      30     -0.00004792   0.03334780  -0.00004253 *
*    B      31     -0.00030500  -0.00279224   0.00006143 *
*    N      32      0.02885343  -0.01668639  -0.00005344 *
*    B      33     -0.00129200   0.00075848   0.00006172 *
*    N      34     -0.00006919  -0.00419477  -0.00005230 *
*    B      35     -0.00019774   0.00008610   0.00006168 *
*    N      36      0.00005695  -0.00057956  -0.00005255 *
*    B      37      0.00051657   0.00028453   0.00006169 *
*    N      38     -0.00047229  -0.00026373  -0.00005255 *
*    B      39      0.00089058   0.00009241   0.00006170 *
*    N      40     -0.00000487  -0.00034863  -0.00005255 *
*    B      41      0.00260158   0.00111599   0.00006186 *
*    N      42      0.00049534  -0.00029890  -0.00005055 *
*    C      43      0.00003783   0.00000824  -0.00029459 *
*    N      44     -0.02891971  -0.01665295  -0.00004131 *
*    B      45      0.00227378   0.00168017   0.00006159 *
*    N      46     -0.00001928   0.00059615  -0.00005244 *
*    B      47      0.00053792   0.00070186   0.00006170 *
*    N      48     -0.00031589   0.00019007  -0.00005256 *
*    B      49      0.00034769  -0.00019660   0.00006168 *
*    N      50     -0.00002325  -0.00009215  -0.00005256 *
*    B      51      0.00001701   0.00037896   0.00006168 *
*    N      52     -0.00010157   0.00004452  -0.00005260 *
*    B      53     -0.00095525   0.00056567   0.00006172 *
*    N      54      0.00028785   0.00015799  -0.00005204 *
*    B      55      0.00034985  -0.00279157   0.00006185 *
*    N      56     -0.00363710   0.00213728  -0.00005184 *
*    B      57     -0.00223187   0.00167437   0.00006164 *
*    N      58      0.00001702  -0.00420346  -0.00005228 *
*    B      59      0.00002409  -0.00113075   0.00006168 *
*    N      60      0.00027098   0.00019090  -0.00005251 *
*    B      61     -0.00030145  -0.00019767   0.00006168 *
*    N      62      0.00043575  -0.00026455  -0.00005253 *
*    B      63      0.00002256   0.00000014   0.00006168 *
*    N      64      0.00005697   0.00004545  -0.00005259 *
*    B      65     -0.00030784  -0.00018345   0.00006169 *
*    N      66     -0.00001968   0.00052177  -0.00005249 *
*    B      67      0.00037575  -0.00079853   0.00006172 *
*    N      68     -0.00056497   0.00022027  -0.00005262 *
*    B      69      0.00133902   0.00075879   0.00006169 *
*    N      70     -0.00020800  -0.00011196  -0.00005256 *
*    B      71     -0.00049160   0.00070602   0.00006168 *
*    N      72     -0.00010174  -0.00057822  -0.00005258 *
*                                                        *
**********************************************************
* TOTAL:           -0.00000000  -0.00000000   0.00000000 *
**********************************************************
 
 
***********************************************************
********** Summary of Forces (values in Eh/a) *************
*                                                         *
* ---------------------- Minimum ------------------------ *
* Atom:        23, |F|min =    0.00006557                 *
* Components:     Fx|min       Fy|min       Fz|min        *
*               0.00002226  -0.00000006   0.00006168      *
*                                                         *
* ---------------------- Maximum ------------------------ *
* Atom:        44, |F|max =    0.03337173                 *
* Components:     Fx|max       Fy|max       Fz|max        *
*              -0.02891971  -0.01665295  -0.00004131      *
*                                                         *
* ---------------- Root Mean Square Force --------------- *
*                  |F|rms =    0.00698475                 *
* Components:     Fx|rms       Fy|rms       Fz|rms        *
*               0.00493942   0.00493806   0.00006634      *
***********************************************************
 
 Geometry Optimisation: read_denskern parameter over-ridden to T
 Geometry Optimisation: read_tightbox_ngwfs parameter over-ridden to TRUE

BFGS: continuation file name is "hBN_66_C_B_nspT.continuation"
 BFGS: finished iteration   0  with enthalpy= -4.701458270908E+002 Eh
  
 +-----------+-----------------+-----------------+------------+-----+ <-- BFGS
 | Parameter |      value      |    tolerance    |    units   | OK? | <-- BFGS
 +-----------+-----------------+-----------------+------------+-----+ <-- BFGS
 |  dE/ion   |   0.000000E+000 |   1.000000E-006 |         Eh | No  | <-- BFGS
 |  |F|max   |   3.337173E-002 |   1.944690E-004 |    Eh/Bohr | No  | <-- BFGS
 |  |dR|max  |   0.000000E+000 |   5.000000E-003 |       Bohr | No  | <-- BFGS
 +-----------+-----------------+-----------------+------------+-----+ <-- BFGS
  

================================================================================
 Starting BFGS iteration    1 ...
================================================================================

 Writing continuation file "hBN_66_C_B_nspT.continuation" ...done
 Backing up NGWFs to file "hBN_66_C_B_nspT.tightbox_ngwfs.bfgs_back" ... done
 Backing up density kernel to file "hBN_66_C_B_nspT.dkn.bfgs_back" ... done
  
 +------------+-------------+-------------+-----------------+ <-- min BFGS
 |    Step    |   lambda    |   F.delta   |    enthalpy     | <-- min BFGS
 +------------+-------------+-------------+-----------------+ <-- min BFGS
 |  previous  |    0.000000 |    0.002685 |     -470.145827 | <-- min BFGS
 +------------+-------------+-------------+-----------------+ <-- min BFGS
  

--------------------------------------------------------------------------------
 BFGS: starting iteration   1 with trial guess (lambda=    1.000000)
--------------------------------------------------------------------------------
Calculating Ewald energy ...             1160.263165 Hartree

============================= Charge Augmentation ==============================
                           Aug box size:   21 x  21 x  21
================================================================================

Reading NGWFs from file "hBN_66_C_B_nspT.tightbox_ngwfs" ... done

================================= Core Density =================================
               Core den box size:   33 x  33 x  25
================================================================================

Reading density kernel from file "hBN_66_C_B_nspT.dkn" ... done

################################################################################
###################### NGWF self-consistent optimisation #######################
################################################################################
|ITER|    RMS GRADIENT   |     TOTAL ENERGY    |   step   |     Epredicted      
   0     0.00000731358551   -470.14751925705093   1.040261   -470.14791462802026        
   1     0.00000182218988   -470.14793107810391   0.983037   -470.14795483074482        

================================================================================
           ---------------- ENERGY COMPONENTS (Eh) ----------------
           | Kinetic                    :      284.99236680616127 |
           | Core Hartree               :    -3378.10474810351707 |
           | CoreHart (non-coul chg cor):        0.00000000000000
           | Hartree                    :     1552.14004950028811 |
           | Exchange-correlation       :     -138.45299836148664 |
           | Ewald                      :     1160.26316545828558 |
           | Dij0                       :       56.58410522479839 |
           | Dijhartree                 :        0.30095419587676 |
           | Exc [AE core]              :     -350.21454303212897 |
           | Exc DC [AE core]           :     -124.22509587131931 |
           | Exc [PS core]              :      -91.61733736471913 |
           | Exc DC [PS core]           :     -108.55338297430708 |
           | Exc [Core]                 :     -250.72635480246220 |
           | Total [Sphere]             :       49.01420855572752 |
           | Total                      :     -470.14795614454096 |
           --------------------------------------------------------
           Integrated compensation chrg.:        7.17564506001480
           Integrated density           :      288.99999999999994
           Integrated spin density      :        1.00000000000000
           Integrated |spin density|    :        1.06810711204679
================================================================================

   2     0.00000006867344   -470.14795614453988  <-- CG                                 

================================= Core Density =================================
               Core den box size:   33 x  33 x  25
================================================================================
 
********************* Unconstrained **********************
********************** Ewald forces **********************
*                                                        *
* Element  Atom         Cartesian components (Eh/a)      *
* ------------------------------------------------------ *
*                       x            y            z      *
*                                                        *
*    B       1      0.00207622  -0.00123137   0.00025737 *
*    N       2     -0.00588845  -0.01660134  -0.00025312 *
*    B       3     -0.00797168  -0.00620101   0.00025748 *
*    N       4     -0.02784086  -0.02559813  -0.00025155 *
*    B       5     -0.00937479  -0.00375409   0.00025720 *
*    N       6     -0.03605963  -0.01136015  -0.00025022 *
*    B       7     -0.00006093   0.00245272   0.00025681 *
*    N       8     -0.01730577   0.00313880  -0.00024952 *
*    B       9      0.00799124   0.00361694   0.00025741 *
*    N      10      0.00005829   0.00383853  -0.00025416 *
*    B      11      0.00709596   0.00515206   0.00025745 *
*    N      12      0.00337722  -0.00191823  -0.00025402 *
*    B      13     -0.00094203  -0.00876997   0.00025754 *
*    N      14      0.00004502  -0.02943758  -0.00025296 *
*    B      15     -0.00667262  -0.01978855   0.00025899 *
*    N      16     -0.02871619  -0.08063729  -0.00024537 *
*    B      17     -0.03683055  -0.02122826   0.00026060 *
*    N      18     -0.14725587  -0.08503848  -0.00022621 *
*    B      19     -0.02051031   0.00414756   0.00025889 *
*    N      20     -0.08412862   0.01537775  -0.00024084 *
*    B      21     -0.00810186   0.00362758   0.00025700 *
*    N      22     -0.02545650   0.01473227  -0.00025309 *
*    B      23     -0.00005408  -0.00000231   0.00025707 *
*    N      24     -0.00326591  -0.00192275  -0.00025403 *
*    B      25      0.00083495  -0.00877709   0.00025751 *
*    N      26      0.00601280  -0.01659977  -0.00025322 *
*    B      27     -0.00006417  -0.03767985   0.00026069 *
*    N      28      0.02883402  -0.08060615  -0.00024402 *
*    B      29     -0.04188848  -0.12026873   0.00027921 *
*    N      30      0.00009629  -0.77395475   0.00003176 *
*    B      31     -0.12512670   0.02391626   0.00028328 *
*    N      32     -0.67020821   0.38698641  -0.00001348 *
*    B      33     -0.03267425   0.01884175   0.00026099 *
*    N      34     -0.05536850   0.06521120  -0.00024260 *
*    B      35     -0.00721901   0.00515339   0.00025754 *
*    N      36     -0.01134542   0.01346393  -0.00025297 *
*    B      37     -0.00218015  -0.00122375   0.00025737 *
*    N      38      0.00464544   0.00266192  -0.00025366 *
*    B      39      0.00656894  -0.01978411   0.00025863 *
*    N      40      0.02795468  -0.02560369  -0.00025195 *
*    B      41      0.04174827  -0.12023720   0.00027825 *
*    N      42      0.14734135  -0.08503937  -0.00022282 *
*    C      43     -0.00007816  -0.00003307  -0.00102231 *
*    N      44      0.67040674   0.38696226   0.00003691 *
*    B      45     -0.08329110   0.09632540   0.00028424 *
*    N      46      0.00004052   0.17009093  -0.00022812 *
*    B      47     -0.01387967   0.01564216   0.00025907 *
*    N      48     -0.00816233   0.03696224  -0.00025130 *
*    B      49     -0.00146256   0.00994678   0.00025752 *
*    N      50      0.00005870   0.01068794  -0.00025381 *
*    B      51      0.00784673  -0.00619693   0.00025742 *
*    N      52      0.00931050  -0.00534245  -0.00025416 *
*    B      53      0.03671260  -0.02122953   0.00025950 *
*    N      54      0.03618106  -0.01136093  -0.00025003 *
*    B      55      0.12496520   0.02391707   0.00027745 *
*    N      56      0.08425260   0.01539298  -0.00024310 *
*    B      57      0.08318462   0.09636276   0.00027853 *
*    N      58      0.05550665   0.06523514  -0.00024428 *
*    B      59     -0.00005876   0.04246170   0.00026099 *
*    N      60      0.00827636   0.03696121  -0.00025124 *
*    B      61      0.00135542   0.00995469   0.00025747 *
*    N      62     -0.00455407   0.00266358  -0.00025356 *
*    B      63     -0.00005653  -0.00000012   0.00025704 *
*    N      64     -0.00919812  -0.00534665  -0.00025405 *
*    B      65      0.00926380  -0.00374540   0.00025710 *
*    N      66      0.00004501  -0.00530463  -0.00025379 *
*    B      67      0.02039404   0.00415197   0.00025819 *
*    N      68      0.01741725   0.00314110  -0.00025380 *
*    B      69      0.03257030   0.01884173   0.00026020 *
*    N      70      0.02554728   0.01472907  -0.00025287 *
*    B      71      0.01377274   0.01562423   0.00025878 *
*    N      72      0.01146406   0.01344966  -0.00025319 *
*                                                        *
**********************************************************
TOTAL:              0.00000000  -0.00000000   0.00000000
 
********************* Unconstrained **********************
***************** Local potential forces *****************
*                                                        *
* Element  Atom         Cartesian components (Eh/a)      *
* ------------------------------------------------------ *
*                       x            y            z      *
*                                                        *
*    B       1     -0.00289518   0.00170259  -0.00026950 *
*    N       2      0.00586070   0.01523263   0.00019639 *
*    B       3      0.00762647   0.00634601  -0.00026949 *
*    N       4      0.02578994   0.02538797   0.00019497 *
*    B       5      0.00932765   0.00338215  -0.00026922 *
*    N       6      0.03485980   0.00967003   0.00019373 *
*    B       7      0.00006095  -0.00339716  -0.00026889 *
*    N       8      0.01611801  -0.00249396   0.00019312 *
*    B       9     -0.00767442  -0.00338220  -0.00026947 *
*    N      10     -0.00004225  -0.00281978   0.00019761 *
*    B      11     -0.00673404  -0.00499540  -0.00026952 *
*    N      12     -0.00247402   0.00140571   0.00019740 *
*    B      13      0.00098574   0.00837564  -0.00026957 *
*    N      14     -0.00002458   0.02800027   0.00019637 *
*    B      15      0.00398156   0.01890983  -0.00027076 *
*    N      16      0.02708318   0.06855012   0.00018654 *
*    B      17      0.03593062   0.02070760  -0.00027273 *
*    N      18      0.13545794   0.07821323   0.00017300 *
*    B      19      0.01839954  -0.00603685  -0.00027054 *
*    N      20      0.07284944  -0.01076097   0.00018108 *
*    B      21      0.00778371  -0.00339399  -0.00026898 *
*    N      22      0.02423726  -0.01401982   0.00019657 *
*    B      23      0.00005168   0.00000192  -0.00026898 *
*    N      24      0.00239938   0.00141307   0.00019746 *
*    B      25     -0.00088129   0.00838270  -0.00026958 *
*    N      26     -0.00595359   0.01522959   0.00019679 *
*    B      27      0.00006247   0.03546911  -0.00027258 *
*    N      28     -0.02716585   0.06850972   0.00018691 *
*    B      29      0.02782192   0.11560394  -0.00028942 *
*    N      30     -0.00010178   0.56773567  -0.00003758 *
*    B      31      0.11405771  -0.03375862  -0.00029298 *
*    N      32      0.49167375  -0.28390466   0.00000245 *
*    B      33      0.03075807  -0.01773790  -0.00027274 *
*    N      34      0.04573716  -0.05773704   0.00018603 *
*    B      35      0.00685586  -0.00499748  -0.00026960 *
*    N      36      0.01020059  -0.01274573   0.00019639 *
*    B      37      0.00299651   0.00169247  -0.00026955 *
*    N      38     -0.00421532  -0.00242888   0.00019715 *
*    B      39     -0.00388218   0.01890392  -0.00027058 *
*    N      40     -0.02587123   0.02539752   0.00019544 *
*    B      41     -0.02768545   0.11557204  -0.00028835 *
*    N      42     -0.13550335   0.07821477   0.00016946 *
*    C      43      0.00001863   0.00005748   0.00092418 *
*    N      44     -0.49179685  -0.28382746  -0.00003851 *
*    B      45      0.08627742  -0.08182167  -0.00029445 *
*    N      46     -0.00001962  -0.15644720   0.00017383 *
*    B      47      0.01445926  -0.01286994  -0.00027101 *
*    N      48      0.00903321  -0.03506453   0.00019463 *
*    B      49      0.00175999  -0.00972196  -0.00026958 *
*    N      50     -0.00004219  -0.00983612   0.00019725 *
*    B      51     -0.00750042   0.00634076  -0.00026949 *
*    N      52     -0.00855400   0.00491500   0.00019761 *
*    B      53     -0.03581034   0.02070734  -0.00027157 *
*    N      54     -0.03495252   0.00967333   0.00019351 *
*    B      55     -0.11389470  -0.03376530  -0.00028787 *
*    N      56     -0.07293759  -0.01077683   0.00018555 *
*    B      57     -0.08617717  -0.08184962  -0.00028941 *
*    N      58     -0.04584642  -0.05776408   0.00018732 *
*    B      59      0.00005850  -0.04142272  -0.00027314 *
*    N      60     -0.00911150  -0.03506581   0.00019435 *
*    B      61     -0.00165489  -0.00973015  -0.00026946 *
*    N      62      0.00416420  -0.00242910   0.00019679 *
*    B      63      0.00005529  -0.00000052  -0.00026898 *
*    N      64      0.00847630   0.00492024   0.00019745 *
*    B      65     -0.00921660   0.00337165  -0.00026913 *
*    N      66     -0.00002370   0.00482904   0.00019716 *
*    B      67     -0.01828831  -0.00604073  -0.00027000 *
*    N      68     -0.01619168  -0.00249352   0.00019724 *
*    B      69     -0.03065761  -0.01773791  -0.00027220 *
*    N      70     -0.02428476  -0.01401494   0.00019639 *
*    B      71     -0.01435807  -0.01285671  -0.00027068 *
*    N      72     -0.01028450  -0.01272797   0.00019675 *
*                                                        *
**********************************************************
TOTAL:              0.00056245  -0.00005020  -0.00239123
 
********************* Unconstrained **********************
************** Compensation density forces ***************
*                                                        *
* Element  Atom         Cartesian components (Eh/a)      *
* ------------------------------------------------------ *
*                       x            y            z      *
*                                                        *
*    B       1     -0.00002994   0.00001773   0.00000051 *
*    N       2     -0.00000329   0.00002872   0.00000271 *
*    B       3     -0.00001134   0.00000371   0.00000051 *
[...]
*    N      72      0.00006943  -0.00004329  -0.00012982 *
*                                                        *
**********************************************************
TOTAL:              0.00016522  -0.00095275  -0.00466636
 
********************* Unconstrained **********************
****** Correction to ensure the total force is zero ******
*                                                        *
* Element  Atom         Cartesian components (Eh/a)      *
* ------------------------------------------------------ *
*                       x            y            z      *
*                                                        *
*    B       1      0.00000008   0.00001385   0.00006109 *
*    N       2      0.00000008   0.00001385   0.00006109 *
*    B       3      0.00000008   0.00001385   0.00006109 *
*    N       4      0.00000008   0.00001385   0.00006109 *
*    B       5      0.00000008   0.00001385   0.00006109 *
*    N       6      0.00000008   0.00001385   0.00006109 *
*    B       7      0.00000008   0.00001385   0.00006109 *
*    N       8      0.00000008   0.00001385   0.00006109 *
*    B       9      0.00000008   0.00001385   0.00006109 *
*    N      10      0.00000008   0.00001385   0.00006109 *
*    B      11      0.00000008   0.00001385   0.00006109 *
*    N      12      0.00000008   0.00001385   0.00006109 *
*    B      13      0.00000008   0.00001385   0.00006109 *
*    N      14      0.00000008   0.00001385   0.00006109 *
*    B      15      0.00000008   0.00001385   0.00006109 *
*    N      16      0.00000008   0.00001385   0.00006109 *
*    B      17      0.00000008   0.00001385   0.00006109 *
*    N      18      0.00000008   0.00001385   0.00006109 *
*    B      19      0.00000008   0.00001385   0.00006109 *
*    N      20      0.00000008   0.00001385   0.00006109 *
*    B      21      0.00000008   0.00001385   0.00006109 *
*    N      22      0.00000008   0.00001385   0.00006109 *
*    B      23      0.00000008   0.00001385   0.00006109 *
*    N      24      0.00000008   0.00001385   0.00006109 *
*    B      25      0.00000008   0.00001385   0.00006109 *
*    N      26      0.00000008   0.00001385   0.00006109 *
*    B      27      0.00000008   0.00001385   0.00006109 *
*    N      28      0.00000008   0.00001385   0.00006109 *
*    B      29      0.00000008   0.00001385   0.00006109 *
*    N      30      0.00000008   0.00001385   0.00006109 *
*    B      31      0.00000008   0.00001385   0.00006109 *
*    N      32      0.00000008   0.00001385   0.00006109 *
*    B      33      0.00000008   0.00001385   0.00006109 *
*    N      34      0.00000008   0.00001385   0.00006109 *
*    B      35      0.00000008   0.00001385   0.00006109 *
*    N      36      0.00000008   0.00001385   0.00006109 *
*    B      37      0.00000008   0.00001385   0.00006109 *
*    N      38      0.00000008   0.00001385   0.00006109 *
*    B      39      0.00000008   0.00001385   0.00006109 *
*    N      40      0.00000008   0.00001385   0.00006109 *
*    B      41      0.00000008   0.00001385   0.00006109 *
*    N      42      0.00000008   0.00001385   0.00006109 *
*    C      43      0.00000008   0.00001385   0.00006109 *
*    N      44      0.00000008   0.00001385   0.00006109 *
*    B      45      0.00000008   0.00001385   0.00006109 *
*    N      46      0.00000008   0.00001385   0.00006109 *
*    B      47      0.00000008   0.00001385   0.00006109 *
*    N      48      0.00000008   0.00001385   0.00006109 *
*    B      49      0.00000008   0.00001385   0.00006109 *
*    N      50      0.00000008   0.00001385   0.00006109 *
*    B      51      0.00000008   0.00001385   0.00006109 *
*    N      52      0.00000008   0.00001385   0.00006109 *
*    B      53      0.00000008   0.00001385   0.00006109 *
*    N      54      0.00000008   0.00001385   0.00006109 *
*    B      55      0.00000008   0.00001385   0.00006109 *
*    N      56      0.00000008   0.00001385   0.00006109 *
*    B      57      0.00000008   0.00001385   0.00006109 *
*    N      58      0.00000008   0.00001385   0.00006109 *
*    B      59      0.00000008   0.00001385   0.00006109 *
*    N      60      0.00000008   0.00001385   0.00006109 *
*    B      61      0.00000008   0.00001385   0.00006109 *
*    N      62      0.00000008   0.00001385   0.00006109 *
*    B      63      0.00000008   0.00001385   0.00006109 *
*    N      64      0.00000008   0.00001385   0.00006109 *
*    B      65      0.00000008   0.00001385   0.00006109 *
*    N      66      0.00000008   0.00001385   0.00006109 *
*    B      67      0.00000008   0.00001385   0.00006109 *
*    N      68      0.00000008   0.00001385   0.00006109 *
*    B      69      0.00000008   0.00001385   0.00006109 *
*    N      70      0.00000008   0.00001385   0.00006109 *
*    B      71      0.00000008   0.00001385   0.00006109 *
*    N      72      0.00000008   0.00001385   0.00006109 *
*                                                        *
**********************************************************
TOTAL:              0.00000605   0.00099751   0.00439861

********************* Unconstrained **********************
************************* Forces *************************
*                                                        *
* Element  Atom         Cartesian components (Eh/a)      *
* ------------------------------------------------------ *
*                       x            y            z      *
*                                                        *
*    B       1     -0.00001547   0.00000778   0.00000327 *
*    N       2     -0.00001599  -0.00002323   0.00000288 *
*    B       3      0.00001131  -0.00002275   0.00000606 *
*    N       4     -0.00001806  -0.00002149   0.00000738 *
*    B       5     -0.00001279   0.00001802   0.00000520 *
*    N       6     -0.00002976  -0.00000484   0.00000614 *
*    B       7     -0.00000259  -0.00002376   0.00000207 *
*    N       8     -0.00003401  -0.00000623  -0.00000011 *
*    B       9      0.00003126  -0.00002548   0.00000008 *
*    N      10      0.00000294  -0.00001700   0.00000188 *
*    B      11     -0.00000222   0.00003688  -0.00000021 *
*    N      12     -0.00001012   0.00000912   0.00000198 *
*    B      13     -0.00003158  -0.00001461   0.00000355 *
*    N      14      0.00000194  -0.00001766   0.00000225 *
*    B      15     -0.00001290  -0.00002103   0.00000077 *
*    N      16     -0.00004626   0.00002221  -0.00000617 *
*    B      17      0.00007178   0.00004275   0.00000446 *
*    N      18      0.00007074   0.00004381  -0.00000352 *
*    B      19     -0.00003028  -0.00000123   0.00000344 *
*    N      20     -0.00001309  -0.00004926  -0.00000108 *
*    B      21     -0.00002828  -0.00002499   0.00000362 *
*    N      22     -0.00001698   0.00000773   0.00000594 *
*    B      23      0.00000237  -0.00000172   0.00000302 *
*    N      24      0.00001449   0.00000641   0.00000335 *
*    B      25      0.00003683  -0.00001342   0.00000259 *
*    N      26      0.00002172  -0.00002011   0.00000168 *
*    B      27      0.00000186   0.00005253   0.00000449 *
*    N      28      0.00004694   0.00002170   0.00001302 *
*    B      29      0.00000172   0.00000411  -0.00000664 *
*    N      30     -0.00000072   0.00001382  -0.00002016 *
*    B      31     -0.00000249   0.00000494  -0.00001020 *
*    N      32      0.00000790  -0.00000567  -0.00002954 *
*    B      33      0.00003961  -0.00002440  -0.00000035 *
*    N      34      0.00003522   0.00003186  -0.00000571 *
*    B      35      0.00000601   0.00003604   0.00000381 *
*    N      36     -0.00001057   0.00003006  -0.00000182 *
*    B      37      0.00001965   0.00001267   0.00000039 *
*    N      38     -0.00001133  -0.00000697  -0.00000030 *
*    B      39      0.00001412  -0.00001912   0.00000655 *
*    N      40      0.00001779  -0.00002012  -0.00000079 *
*    B      41     -0.00000377   0.00000083   0.00000244 *
*    N      42     -0.00007254   0.00004252  -0.00000369 *
*    C      43     -0.00000260   0.00000031  -0.00003495 *
*    N      44     -0.00001598  -0.00000917  -0.00002032 *
*    B      45     -0.00000689  -0.00000174  -0.00001349 *
*    N      46     -0.00000345  -0.00008414  -0.00000510 *
*    B      47     -0.00001393   0.00002364  -0.00000090 *
*    N      48     -0.00001014   0.00002659   0.00000162 *
*    B      49     -0.00002030   0.00000182   0.00000183 *
*    N      50      0.00000405  -0.00004196   0.00000147 *
*    B      51     -0.00001015  -0.00001814  -0.00000003 *
*    N      52     -0.00003364   0.00002202   0.00000094 *
*    B      53     -0.00007075   0.00004353  -0.00000216 *
*    N      54      0.00003036  -0.00000240  -0.00000526 *
*    B      55     -0.00000305   0.00000493  -0.00000215 *
*    N      56      0.00000673  -0.00004874   0.00000550 *
*    B      57     -0.00000031  -0.00000438   0.00000270 *
*    N      58     -0.00004091   0.00002737   0.00001469 *
*    B      59     -0.00000086  -0.00008520   0.00000052 *
*    N      60      0.00001129   0.00002467   0.00000161 *
*    B      61      0.00002548  -0.00000114   0.00000293 *
*    N      62      0.00002130  -0.00001105   0.00000403 *
*    B      63      0.00000293   0.00000007   0.00000308 *
*    N      64      0.00003607   0.00001929   0.00000483 *
*    B      65      0.00001278   0.00001959   0.00000100 *
*    N      66     -0.00000078   0.00001520   0.00000278 *
*    B      67      0.00002390   0.00000024   0.00000254 *
*    N      68      0.00002817  -0.00000659   0.00000414 *
*    B      69     -0.00004483  -0.00002692   0.00000866 *
*    N      70      0.00001511   0.00000694  -0.00000296 *
*    B      71      0.00001329   0.00001854   0.00000769 *
*    N      72      0.00001274   0.00002612   0.00000278 *
*                                                        *
**********************************************************
* TOTAL:            0.00000000   0.00000000  -0.00000000 *
**********************************************************
 
 
***********************************************************
********** Summary of Forces (values in Eh/a) *************
*                                                         *
* ---------------------- Minimum ------------------------ *
* Atom:        23, |F|min =    0.00000421                 *
* Components:     Fx|min       Fy|min       Fz|min        *
*               0.00000237  -0.00000172   0.00000302      *
*                                                         *
* ---------------------- Maximum ------------------------ *
* Atom:        59, |F|max =    0.00008520                 *
* Components:     Fx|max       Fy|max       Fz|max        *
*              -0.00000086  -0.00008520   0.00000052      *
*                                                         *
* ---------------- Root Mean Square Force --------------- *
*                  |F|rms =    0.00003826                 *
* Components:     Fx|rms       Fy|rms       Fz|rms        *
*               0.00002637   0.00002658   0.00000789      *
***********************************************************
 

------------------------------ TIMING INFORMATION ------------------------------
AVERAGE TIME:    2521.683s on     16 proc(s)                                    
TOTAL TIME:      2521.683s on     16 proc(s)                                    
==================== AVERAGE TIMINGS FROM ALL PROCS (CUMULATIVE) =====================
|| TAG                                         #calls     cpu time   %total  Gflops ||
|| linalg_invert_sym_matrix                   :     5        0.00s   0.000%  ------ || (1 procs only)
|| onetep.F90 main loop imbalance             :     1        0.00s   0.000%  ------ ||
|| hash_table_free                            :   105        0.00s   0.000%  ------ ||
|| sparse_blacstospam3_real_fast_imbal        :     8        0.00s   0.000%  ------ ||
|| sparse_spam3toblacs_real_fast_imbal        :     6        0.00s   0.000%  ------ ||
|| onetep.F90 final imbalance                 :     1        0.00s   0.000%  ------ ||
|| sparse_spam3toblacs_real_fast_B2           :    96        0.00s   0.000%  ------ ||
|| density_fftbox_interp_mult_imbal           : 21960        0.00s   0.000%  ------ ||
|| ewald_calculate_forces_realspace           :    16        0.00s   0.000%  ------ ||
|| sparse_spam3toblacs_real_fast_B1           :    96        0.01s   0.000%  ------ ||
|| sparse_set_to_garbage                      :   972        0.01s   0.000%  ------ ||
|| sparse_spam3toblacs_real_fast              :     6        0.01s   0.001%  ------ ||
|| linalg_dgemv                               :    32        0.02s   0.001%  ------ ||
|| sparse_blacstospam3_real_fast              :     8        0.02s   0.001%  ------ ||
|| paw_dij_hartree                            :   584        0.03s   0.001%  ------ ||
|| restart_kernel_read                        :    14        0.05s   0.002%  ------ ||
|| paw_tcore_hartree_on_grid                  :    16        0.06s   0.002%  ------ ||
|| ewald_calculate_energy                     :    16        0.07s   0.003%  ------ ||
|| paw_sphere_density_on_grid                 :     1        0.07s   0.003%  ------ ||
|| pseudo_make_structure_factor               :    16        0.08s   0.003%  ------ ||
|| ewald_calculate_forces_recipspace          :    16        0.14s   0.005%  ------ ||
|| ewald_calculate_forces                     :    16        0.16s   0.006%  ------ ||
|| dense_eigensolve                           :     2        0.18s   0.007%  ------ ||
|| augmentation_density_forces                :    16        0.23s   0.009%  ------ ||
|| paw_tcore_hartree_calc_forces              :    16        0.26s   0.010%  ------ ||
|| paw_tcore_density                          :    16        0.28s   0.011%  ------ ||
|| restart_kernel_write                       :    53        0.29s   0.011%  ------ ||
|| sparse_init                                :    16        0.38s   0.015%  ------ ||
|| palser_mano_kernel_optimise_spam3_embed    :     4        0.47s   0.019%  ------ ||
|| basis_extract_function_from_box            :  4176        0.52s   0.021%  ------ ||
|| eigenstates_calculate                      :     1        1.01s   0.040%  ------ ||
|| paw_nlcc_calculate_forces                  :    16        1.08s   0.043%  ------ ||
|| paw_dataset_init                           :     3        1.31s   0.052%  ------ ||
|| sparse_embed_array_hotelling_invert        :    89        1.50s   0.060%  ------ ||
|| ngwfs_initialise_from_radial               :     4        1.65s   0.066%  ------ ||
|| density_init_guess_real                    :     4        1.92s   0.076%  ------ ||
|| hartree_on_grid_single                     :   534        2.18s   0.086%  ------ ||
|| energy_and_force_init_cell                 :     1        2.77s   0.110%  ------ ||
|| sparse_trace                               : 18377        3.28s   0.130%  ------ ||
|| integrals_grad_spam3                       :    32        3.53s   0.140%  ------ ||
|| nonsc_forces_ngwfs_calc                    :    16        3.54s   0.140%  ------ ||
|| kernel_purify                              :   805        3.98s   0.158%  ------ ||
|| kernel_fix                                 :   255        4.49s   0.178%  ------ ||
|| lnv_gradient_norm                          :   255        4.53s   0.180%  ------ ||
|| ngwf_gradient_coeffs                       :    51        5.68s   0.225%  ------ ||
|| augmentation_screen_dij_spam3              :   533        7.03s   0.279%  ------ ||
|| myself                                     :  5562        7.09s   0.281% 281.235 ||
|| cell_grid_deposit_box_real                 : 27740        8.14s   0.323%  ------ ||
|| basis_copy_function_to_box                 : 34380        8.21s   0.326%  ------ ||
|| fourier_apply_cell_backward                :  4942        9.11s   0.361%  57.413 ||
|| paw_species_calc_proj_prec_mat             :    16        9.12s   0.362%  ------ ||
|| fourier_apply_cell_forward                 :  4942       10.32s   0.409%  50.659 ||
|| properties_calculate                       :     1       10.72s   0.425%  ------ ||
|| cell_grid_extract_box_real                 : 17944       11.84s   0.470%  ------ ||
|| restart_ngwfs_tightbox_input               :    14       13.04s   0.517%  ------ ||
|| aug_density_on_grid_spam3                  :   549       13.61s   0.540%  ------ ||
|| function_ops_brappd_ketppd_spam3           :   178       20.72s   0.822%  ------ ||
|| sparse_product                             : 30862       24.06s   0.954%  ------ ||
|| density_fftbox_deposit_to_cell             : 21960       27.33s   1.084%  ------ ||
|| xc_energy_potential                        :   549       27.55s   1.093%  ------ ||
|| hamiltonian_energy_components              :    16       28.27s   1.121%  ------ ||
|| restart_ngwfs_tightbox_output              :    39       40.30s   1.598%  ------ ||
|| projectors_init_fftbox_recip               :   698       41.00s   1.626%  ------ ||
|| aug_nonlocal_mat_spam3_embed_array         :   517       41.59s   1.649%  ------ ||
|| paw_dij_xc                                 :   584       43.84s   1.739%  ------ ||
|| projectors_func_grad_ovlp_box_spam3        :    96       50.44s   2.000%  ------ ||
|| aug_nl_calculate_forces                    :    16       52.73s   2.091%  ------ ||
|| fourier_filter                             :  6480       56.97s   2.259%  ------ ||
|| integrals_kinetic_spam3                    :   178       68.41s   2.713%  ------ ||
|| projectors_func_ovlp_box_spam3             :   178       89.36s   3.544%  ------ ||
|| fourier_interpolate                        :  6480       99.72s   3.954%  ------ ||
|| forces_calculate                           :    16      106.86s   4.238%  ------ ||
|| projectors_gradient_batch                  :   204      118.93s   4.716%  ------ ||
|| projectors_grad_precond_batch              :   204      178.39s   7.074%  ------ ||
|| basis_dot_function_with_box                : 4.720M     191.71s   7.602%  ------ ||
|| integrals_locpot_mat_els_batch             :  1032      211.62s   8.392%  ------ ||
|| fourier_apply_box                          : 112.8k     233.09s   9.243% 556.233 ||
|| potential_apply_to_ngwf_batch              :  1032      234.58s   9.302%  ------ ||
|| fourier_interpolate_product                : 19764      284.42s  11.279%  ------ ||
|| density_fftbox_interpolate_multiply        : 21960      328.80s  13.039%  ------ ||
|| density_batch_row_sums                     :  2196      370.01s  14.673%  ------ ||
|| ngwf_gradient_build_batch                  :   204      380.90s  15.105%  ------ ||
|| basis_add_function_to_box                  : 7.807M     384.90s  15.264%  ------ ||
|| density_batch_interp_deposit               :  2196      438.09s  17.373%  ------ ||
|| integrals_locpot_dbl_grid                  :   516      446.79s  17.718%  ------ ||
|| ngwf_gradient_batch                        :   204      700.09s  27.763%  ------ ||
|| ngwf_gradient_lnv                          :    51      720.26s  28.563%  ------ ||
|| density_on_dbl_grid                        :  1098      820.03s  32.519%  ------ ||
|| hamiltonian_lhxc_calculate                 :   515      862.40s  34.199%  ------ ||
|| lnv_denskernel_optimise_cg                 :    51     1272.19s  50.450%  ------ ||
|| ngwf_cg_optimise                           :    16     2320.86s  92.036%  ------ ||
|| energy_and_forces                          :    16     2502.47s  99.238%  ------ ||
|| total_time                                 :     1     2521.68s 100.000%  ------ ||
======================================================================================
Overhead of generating timer report: 
- 0 ms averaging over threads,
- 1 ms ensuring consistency across MPI ranks,
- 1 ms printing in order.

Job completed: 16-05-2024 23:22 (+0100)

onetep_launcher: ONETEP seems to have finished correctly (zero exit code).
                 Brought to you by PID 187246 on nid002305.
