
     Program PWSCF v.7.3 starts on 27Sep2025 at  9:22:19 

     This program is part of the open-source Quantum ESPRESSO suite
     for quantum simulation of materials; please cite
         "P. Giannozzi et al., J. Phys.:Condens. Matter 21 395502 (2009);
         "P. Giannozzi et al., J. Phys.:Condens. Matter 29 465901 (2017);
         "P. Giannozzi et al., J. Chem. Phys. 152 154105 (2020);
          URL http://www.quantum-espresso.org", 
     in publications or presentations arising from this work. More details at
     http://www.quantum-espresso.org/quote

     Parallel version (MPI & OpenMP), running on     256 processor cores
     Number of MPI processes:               128
     Threads/MPI process:                     2

     MPI processes distributed on     2 nodes
     437047 MiB available memory on the printing compute node when the environment starts

     Reading input from Cr_-0.2_0.in
Warning: card &CELL ignored
Warning: card / ignored
Warning: card &FCP ignored
Warning: card / ignored
Warning: card &RISM ignored
Warning: card / ignored

     Current dimensions of program PWSCF are:
     Max number of different atomic species (ntypx) = 10
     Max number of k-points (npk) =  40000
     Max angular momentum in pseudopotentials (lmaxx) =  4
read_pp_mesh; mismatch in mesh size, discarding the one in header
read_pp_mesh; mismatch in mesh size, discarding the one in header
read_pp_mesh; mismatch in mesh size, discarding the one in header
     file Cr.GGA-PBE-paw.UPF: wavefunction(s)  3S 4S 3P 4P 3D 4D renormalized
     file I.GGA-PBE-paw.UPF: wavefunction(s)  6S 6P renormalized
     file Cr.GGA-PBE-paw.UPF: wavefunction(s)  3S 4S 3P 4P 3D 4D renormalized

     IMPORTANT: XC functional enforced from input :
     Exchange-correlation= PBE
                           (   1   4   3   4   0   0   0)
     Any further DFT definition will be discarded
     Please, verify this is what you really want


     R & G space division:  proc/nbgrp/npool/nimage =     128
     Subspace diagonalization in iterative solution of the eigenvalue problem:
     one sub-group per band group will be used
     ELPA distributed-memory algorithm (size of sub-group:  3*  3 procs)


     Parallelization info
     --------------------
     sticks:   dense  smooth     PW     G-vecs:    dense   smooth      PW
     Min         509     305     78               140391    65241    8388
     Max         510     306     79               140404    65254    8400
     Sum       65263   39121   9985             17971031  8351671 1074593

     Using Slab Decomposition



     bravais-lattice index     =            0
     lattice parameter (alat)  =      39.7293  a.u.
     unit-cell volume          =   72410.5124 (a.u.)^3
     number of atoms/cell      =           72
     number of atomic types    =            3
     number of electrons       =       630.00 (up: 342.00, down: 288.00)
     number of Kohn-Sham states=          342
     kinetic-energy cutoff     =      90.0000  Ry
     charge density cutoff     =     600.0000  Ry
     scf convergence threshold =      1.0E-10
     mixing beta               =       0.3000
     number of iterations used =            8  plain     mixing
     Exchange-correlation= PBE
                           (   1   4   3   4   0   0   0)
     Hubbard projectors: ortho-atomic
     Hubbard parameters of DFT+U (Dudarev formulation) in eV:
     U(Cr1-3d) =  0.0000
     J0(Cr1-3d) =  0.0000
     alpha(Cr1-3d) = -0.2000

     Internal variables: lda_plus_u =T, lda_plus_u_kind = 0

     celldm(1)=  39.729285  celldm(2)=   0.000000  celldm(3)=   0.000000
     celldm(4)=   0.000000  celldm(5)=   0.000000  celldm(6)=   0.000000

     crystal axes: (cart. coord. in units of alat)
               a(1) = (   1.000000   0.000000   0.000000 )  
               a(2) = (  -0.500000   0.866025   0.000000 )  
               a(3) = (   0.000000   0.000000   1.333333 )  

     reciprocal axes: (cart. coord. in units 2 pi/alat)
               b(1) = (  1.000000  0.577350 -0.000000 )  
               b(2) = (  0.000000  1.154701  0.000000 )  
               b(3) = (  0.000000 -0.000000  0.750000 )  


     PseudoPot. # 1 for Cr read from file:
     ./Cr.GGA-PBE-paw.UPF
     MD5 check sum: 389087661106aa6caf57455f2e439c97
     Pseudo is Projector augmented-wave + core cor, Zval = 14.0
     Generated using ATOMPAW code
     Shape of augmentation charge: SINC**2
     Using radial grid of 2342 points,  6 beta functions with: 
                l(1) =   0
                l(2) =   0
                l(3) =   1
                l(4) =   1
                l(5) =   2
                l(6) =   2
     Q(r) pseudized with 0 coefficients 


     PseudoPot. # 2 for I  read from file:
     ./I.GGA-PBE-paw.UPF
     MD5 check sum: 736bb4145856fa7ed29d0984862794a4
     Pseudo is Projector augmented-wave + core cor, Zval =  7.0
     Generated using ATOMPAW code
     Shape of augmentation charge: SINC**2
     Using radial grid of 2342 points,  4 beta functions with: 
                l(1) =   0
                l(2) =   0
                l(3) =   1
                l(4) =   1
     Q(r) pseudized with 0 coefficients 


     PseudoPot. # 3 for Cr read from file:
     ./Cr.GGA-PBE-paw.UPF
     MD5 check sum: 389087661106aa6caf57455f2e439c97
     Pseudo is Projector augmented-wave + core cor, Zval = 14.0
     Generated using ATOMPAW code
     Shape of augmentation charge: SINC**2
     Using radial grid of 2342 points,  6 beta functions with: 
                l(1) =   0
                l(2) =   0
                l(3) =   1
                l(4) =   1
                l(5) =   2
                l(6) =   2
     Q(r) pseudized with 0 coefficients 


     atomic species   valence    mass     pseudopotential
     Cr1              14.00    51.99610     Cr( 1.00)
     I                 7.00   126.90447     I ( 1.00)
     Cr               14.00    51.99610     Cr( 1.00)

     Starting magnetic structure 
     atomic species   magnetization
     Cr1             0.214
     I               0.000
     Cr              0.214

     No symmetry found



   Cartesian axes

     site n.     atom                  positions (alat units)
         1        Cr1    tau(   1) = (   0.3271041   0.3777073   0.4295967  )
         2        Cr     tau(   2) = (   0.1635521   0.0944268   0.4295967  )
         3        Cr     tau(   3) = (   0.0000000   0.1888536   0.4295967  )
         4        I      tau(   4) = (   0.2103614  -0.0000006   0.3558127  )
         5        I      tau(   5) = (   0.0583708   0.1011024   0.3558127  )
         6        I      tau(   6) = (  -0.1051802   0.1821787   0.3558127  )
         7        I      tau(   7) = (   0.1167427  -0.0000005   0.5033806  )
         8        I      tau(   8) = (   0.1051802   0.1821786   0.5033806  )
         9        I      tau(   9) = (  -0.0583709   0.1011024   0.5033806  )
        10        Cr     tau(  10) = (  -0.0000000   0.3777073   0.4295967  )
        11        Cr     tau(  11) = (  -0.1635521   0.4721341   0.4295967  )
        12        I      tau(  12) = (   0.0468094   0.2832798   0.3558127  )
        13        I      tau(  13) = (  -0.1051813   0.3843829   0.3558127  )
        14        I      tau(  14) = (  -0.2687322   0.4654591   0.3558127  )
        15        I      tau(  15) = (  -0.0468094   0.2832799   0.5033806  )
        16        I      tau(  16) = (  -0.0583718   0.4654591   0.5033806  )
        17        I      tau(  17) = (  -0.2219229   0.3843829   0.5033806  )
        18        Cr     tau(  18) = (  -0.1635521   0.6609878   0.4295967  )
        19        Cr     tau(  19) = (  -0.3271041   0.7554146   0.4295967  )
        20        I      tau(  20) = (  -0.1167427   0.5665603   0.3558127  )
        21        I      tau(  21) = (  -0.2687333   0.6676634   0.3558127  )
        22        I      tau(  22) = (  -0.4322843   0.7487396   0.3558127  )
        23        I      tau(  23) = (  -0.2103614   0.5665604   0.5033806  )
        24        I      tau(  24) = (  -0.2219239   0.7487396   0.5033806  )
        25        I      tau(  25) = (  -0.3854750   0.6676633   0.5033806  )
        26        Cr     tau(  26) = (   0.4906562   0.0944268   0.4295967  )
        27        Cr     tau(  27) = (   0.3271041   0.1888536   0.4295967  )
        28        I      tau(  28) = (   0.5374655  -0.0000006   0.3558127  )
        29        I      tau(  29) = (   0.3854749   0.1011024   0.3558127  )
        30        I      tau(  30) = (   0.2219239   0.1821787   0.3558127  )
        31        I      tau(  31) = (   0.4438468  -0.0000005   0.5033806  )
        32        I      tau(  32) = (   0.4322844   0.1821786   0.5033806  )
        33        I      tau(  33) = (   0.2687332   0.1011024   0.5033806  )
        34        Cr     tau(  34) = (   0.1635521   0.4721341   0.4295967  )
        35        I      tau(  35) = (   0.3739135   0.2832798   0.3558127  )
        36        I      tau(  36) = (   0.2219229   0.3843829   0.3558127  )
        37        I      tau(  37) = (   0.0583719   0.4654591   0.3558127  )
        38        I      tau(  38) = (   0.2802947   0.2832799   0.5033806  )
        39        I      tau(  39) = (   0.2687323   0.4654591   0.5033806  )
        40        I      tau(  40) = (   0.1051812   0.3843829   0.5033806  )
        41        Cr     tau(  41) = (   0.1635521   0.6609878   0.4295967  )
        42        Cr     tau(  42) = (   0.0000000   0.7554146   0.4295967  )
        43        I      tau(  43) = (   0.2103614   0.5665603   0.3558127  )
        44        I      tau(  44) = (   0.0583708   0.6676634   0.3558127  )
        45        I      tau(  45) = (  -0.1051802   0.7487396   0.3558127  )
        46        I      tau(  46) = (   0.1167427   0.5665604   0.5033806  )
        47        I      tau(  47) = (   0.1051802   0.7487396   0.5033806  )
        48        I      tau(  48) = (  -0.0583709   0.6676633   0.5033806  )
        49        Cr     tau(  49) = (   0.8177603   0.0944268   0.4295967  )
        50        Cr     tau(  50) = (   0.6542082   0.1888536   0.4295967  )
        51        I      tau(  51) = (   0.8645697  -0.0000006   0.3558127  )
        52        I      tau(  52) = (   0.7125790   0.1011024   0.3558127  )
        53        I      tau(  53) = (   0.5490281   0.1821787   0.3558127  )
        54        I      tau(  54) = (   0.7709509  -0.0000005   0.5033806  )
        55        I      tau(  55) = (   0.7593885   0.1821786   0.5033806  )
        56        I      tau(  56) = (   0.5958374   0.1011024   0.5033806  )
        57        Cr     tau(  57) = (   0.6542082   0.3777073   0.4295967  )
        58        Cr     tau(  58) = (   0.4906562   0.4721341   0.4295967  )
        59        I      tau(  59) = (   0.7010176   0.2832798   0.3558127  )
        60        I      tau(  60) = (   0.5490270   0.3843829   0.3558127  )
        61        I      tau(  61) = (   0.3854760   0.4654591   0.3558127  )
        62        I      tau(  62) = (   0.6073989   0.2832799   0.5033806  )
        63        I      tau(  63) = (   0.5958364   0.4654591   0.5033806  )
        64        I      tau(  64) = (   0.4322853   0.3843829   0.5033806  )
        65        Cr     tau(  65) = (   0.4906562   0.6609878   0.4295967  )
        66        Cr     tau(  66) = (   0.3271041   0.7554146   0.4295967  )
        67        I      tau(  67) = (   0.5374655   0.5665603   0.3558127  )
        68        I      tau(  68) = (   0.3854749   0.6676634   0.3558127  )
        69        I      tau(  69) = (   0.2219239   0.7487396   0.3558127  )
        70        I      tau(  70) = (   0.4438468   0.5665604   0.5033806  )
        71        I      tau(  71) = (   0.4322844   0.7487396   0.5033806  )
        72        I      tau(  72) = (   0.2687332   0.6676633   0.5033806  )

     number of k points=     4
                       cart. coord. in units 2pi/alat
        k(    1) = (   0.0000000   0.0000000   0.0000000), wk =   0.2500000
        k(    2) = (   0.0000000  -0.5773503   0.0000000), wk =   0.2500000
        k(    3) = (   0.5000000  -0.2886751   0.0000000), wk =   0.2500000
        k(    4) = (  -0.5000000  -0.2886751   0.0000000), wk =   0.2500000

     Dense  grid: 17971031 G-vectors     FFT dimensions: ( 320, 320, 432)

     Smooth grid:  8351671 G-vectors     FFT dimensions: ( 240, 240, 320)

     Estimated max dynamical RAM per process >       1.67 GB

     Estimated total dynamical RAM >     213.14 GB
     Generating pointlists ...
     new r_m :   0.0531 (alat units)  2.1084 (a.u.) for type    1
     new r_m :   0.0531 (alat units)  2.1084 (a.u.) for type    2
     new r_m :   0.0531 (alat units)  2.1084 (a.u.) for type    3

     The initial density is read from file :
     ./Cr_-0.2_0/Cr_0_0.save/charge-density


     negative rho (up, down):  1.304E-01 1.474E-01

     STARTING HUBBARD OCCUPATIONS:

     =================== HUBBARD OCCUPATIONS ===================
     ------------------------ ATOM    1 ------------------------
     Tr[ns(  1)] (up, down, total) =   3.59974  0.76815  4.36789
     Atomic magnetic moment for atom   1 =   2.83159
     SPIN  1
     eigenvalues:
       0.445  0.446  0.901  0.901  0.907
     eigenvectors (columns):
      -0.000  0.000 -0.031 -0.030  0.999
      -0.800  0.188  0.535  0.197  0.022
      -0.188 -0.801  0.197 -0.534 -0.010
       0.556 -0.130  0.770  0.283  0.032
      -0.130 -0.554 -0.284  0.772  0.014
     occupation matrix ns (before diag.):
       0.907  0.000 -0.000  0.000  0.000
       0.000  0.593 -0.000  0.214 -0.000
      -0.000 -0.000  0.594  0.000 -0.213
       0.000  0.214  0.000  0.752  0.000
       0.000 -0.000 -0.213  0.000  0.754
     SPIN  2
     eigenvalues:
       0.078  0.086  0.087  0.258  0.259
     eigenvectors (columns):
      -0.999  0.034 -0.028  0.001 -0.000
      -0.022 -0.542  0.133  0.800 -0.218
       0.011 -0.133 -0.540  0.218  0.802
      -0.033 -0.805  0.197 -0.539  0.146
      -0.016  0.198  0.807  0.146  0.537
     occupation matrix ns (before diag.):
       0.078 -0.000  0.000 -0.000 -0.000
      -0.000  0.204 -0.000 -0.080 -0.000
       0.000 -0.000  0.206 -0.000  0.080
      -0.000 -0.080 -0.000  0.140  0.000
      -0.000 -0.000  0.080  0.000  0.140

     Number of occupied Hubbard levels =    4.3679

     Atomic wfc used for Hubbard projectors are orthogonalized

     Starting wfcs are  756 atomic wfcs
     Checking if some PAW data can be deallocated... 

     total cpu time spent up to now is      126.7 secs

     Self-consistent Calculation

     iteration #  1     ecut=    90.00 Ry     beta= 0.30
     Davidson diagonalization with overlap
     ethr =  1.00E-05,  avg # of iterations =  8.6

     =================== HUBBARD OCCUPATIONS ===================
     ------------------------ ATOM    1 ------------------------
     Tr[ns(  1)] (up, down, total) =   3.64758  0.81579  4.46337
     Atomic magnetic moment for atom   1 =   2.83178
     SPIN  1
     eigenvalues:
       0.466  0.467  0.903  0.903  0.909
     eigenvectors (columns):
      -0.000  0.000 -0.026 -0.025  0.999
      -0.800  0.185  0.534  0.201  0.019
      -0.184 -0.801  0.201 -0.533 -0.008
       0.556 -0.128  0.768  0.289  0.027
      -0.128 -0.555 -0.289  0.769  0.012
     occupation matrix ns (before diag.):
       0.909  0.000 -0.000  0.000  0.000
       0.000  0.608 -0.000  0.205 -0.000
      -0.000 -0.000  0.609  0.000 -0.204
       0.000  0.205  0.000  0.760  0.000
       0.000 -0.000 -0.204  0.000  0.762
     SPIN  2
     eigenvalues:
       0.085  0.093  0.094  0.272  0.273
     eigenvectors (columns):
      -0.999  0.036 -0.030  0.001 -0.000
      -0.023 -0.541  0.134  0.802 -0.216
       0.011 -0.135 -0.539  0.216  0.803
      -0.036 -0.805  0.200 -0.538  0.144
      -0.017  0.201  0.807  0.145  0.536
     occupation matrix ns (before diag.):
       0.085 -0.000  0.000 -0.000 -0.000
      -0.000  0.216 -0.000 -0.083 -0.000
       0.000 -0.000  0.218 -0.000  0.083
      -0.000 -0.083 -0.000  0.148  0.000
      -0.000 -0.000  0.083  0.000  0.149

     Number of occupied Hubbard levels =    4.4634

     Threshold (ethr) on eigenvalues was too large:
     Diagonalizing with lowered threshold

     Davidson diagonalization with overlap
     ethr =  6.67E-07,  avg # of iterations =  2.0

     negative rho (up, down):  1.304E-01 1.474E-01

     total cpu time spent up to now is      595.1 secs

     total energy              =  -24931.24129296 Ry
     estimated scf accuracy    <       0.00420669 Ry

     total magnetization       =    54.00 Bohr mag/cell
     absolute magnetization    =    65.40 Bohr mag/cell

     iteration #  2     ecut=    90.00 Ry     beta= 0.30
     Davidson diagonalization with overlap
     ethr =  6.68E-07,  avg # of iterations =  9.6

     negative rho (up, down):  1.304E-01 1.474E-01

     total cpu time spent up to now is      760.3 secs

     total energy              =  -24931.24177956 Ry
     estimated scf accuracy    <       0.01318371 Ry

     total magnetization       =    54.00 Bohr mag/cell
     absolute magnetization    =    65.36 Bohr mag/cell

     iteration #  3     ecut=    90.00 Ry     beta= 0.30
     Davidson diagonalization with overlap
     ethr =  6.68E-07,  avg # of iterations =  6.6

     negative rho (up, down):  1.304E-01 1.474E-01

     total cpu time spent up to now is      896.2 secs

     total energy              =  -24931.24305379 Ry
     estimated scf accuracy    <       0.00001378 Ry

     total magnetization       =    54.00 Bohr mag/cell
     absolute magnetization    =    65.38 Bohr mag/cell

     iteration #  4     ecut=    90.00 Ry     beta= 0.30
     Davidson diagonalization with overlap
     ethr =  2.19E-09,  avg # of iterations =  5.2

     negative rho (up, down):  1.304E-01 1.474E-01

     total cpu time spent up to now is     1041.4 secs

     total energy              =  -24931.24306089 Ry
     estimated scf accuracy    <       0.00000646 Ry

     total magnetization       =    54.00 Bohr mag/cell
     absolute magnetization    =    65.39 Bohr mag/cell

     iteration #  5     ecut=    90.00 Ry     beta= 0.30
     Davidson diagonalization with overlap
     ethr =  1.03E-09,  avg # of iterations =  2.5

     negative rho (up, down):  1.304E-01 1.474E-01

     total cpu time spent up to now is     1146.2 secs

     total energy              =  -24931.24306172 Ry
     estimated scf accuracy    <       0.00000246 Ry

     total magnetization       =    54.00 Bohr mag/cell
     absolute magnetization    =    65.38 Bohr mag/cell

     iteration #  6     ecut=    90.00 Ry     beta= 0.30
     Davidson diagonalization with overlap
     ethr =  3.90E-10,  avg # of iterations =  3.0

     negative rho (up, down):  1.304E-01 1.474E-01

     total cpu time spent up to now is     1248.3 secs

     total energy              =  -24931.24306206 Ry
     estimated scf accuracy    <       0.00000045 Ry

     total magnetization       =    54.00 Bohr mag/cell
     absolute magnetization    =    65.38 Bohr mag/cell

     iteration #  7     ecut=    90.00 Ry     beta= 0.30
     Davidson diagonalization with overlap
     ethr =  7.14E-11,  avg # of iterations =  4.0

     negative rho (up, down):  1.304E-01 1.474E-01

     total cpu time spent up to now is     1367.7 secs

     total energy              =  -24931.24306219 Ry
     estimated scf accuracy    <       0.00000019 Ry

     total magnetization       =    54.00 Bohr mag/cell
     absolute magnetization    =    65.38 Bohr mag/cell

     iteration #  8     ecut=    90.00 Ry     beta= 0.30
     Davidson diagonalization with overlap
     ethr =  3.08E-11,  avg # of iterations =  2.8

     negative rho (up, down):  1.304E-01 1.474E-01

     total cpu time spent up to now is     1464.9 secs

     total energy              =  -24931.24306223 Ry
     estimated scf accuracy    <       0.00000006 Ry

     total magnetization       =    54.00 Bohr mag/cell
     absolute magnetization    =    65.38 Bohr mag/cell

     iteration #  9     ecut=    90.00 Ry     beta= 0.30
     Davidson diagonalization with overlap
     ethr =  8.75E-12,  avg # of iterations =  4.2

     negative rho (up, down):  1.304E-01 1.474E-01

     total cpu time spent up to now is     1576.7 secs

     total energy              =  -24931.24306224 Ry
     estimated scf accuracy    <       0.00000003 Ry

     total magnetization       =    54.00 Bohr mag/cell
     absolute magnetization    =    65.38 Bohr mag/cell

     iteration # 10     ecut=    90.00 Ry     beta= 0.30
     Davidson diagonalization with overlap
     ethr =  4.13E-12,  avg # of iterations =  3.1

     negative rho (up, down):  1.304E-01 1.474E-01

     total cpu time spent up to now is     1680.7 secs

     total energy              =  -24931.24306225 Ry
     estimated scf accuracy    <          6.8E-09 Ry

     total magnetization       =    54.00 Bohr mag/cell
     absolute magnetization    =    65.38 Bohr mag/cell

     iteration # 11     ecut=    90.00 Ry     beta= 0.30
     Davidson diagonalization with overlap
     ethr =  1.08E-12,  avg # of iterations =  5.1

     negative rho (up, down):  1.304E-01 1.474E-01

     total cpu time spent up to now is     1816.1 secs

     total energy              =  -24931.24306225 Ry
     estimated scf accuracy    <          2.9E-09 Ry

     total magnetization       =    54.00 Bohr mag/cell
     absolute magnetization    =    65.38 Bohr mag/cell

     iteration # 12     ecut=    90.00 Ry     beta= 0.30
     Davidson diagonalization with overlap
     ethr =  4.59E-13,  avg # of iterations =  3.0

     negative rho (up, down):  1.304E-01 1.474E-01

     total cpu time spent up to now is     1917.5 secs

     total energy              =  -24931.24306225 Ry
     estimated scf accuracy    <          9.2E-10 Ry

     total magnetization       =    54.00 Bohr mag/cell
     absolute magnetization    =    65.38 Bohr mag/cell

     iteration # 13     ecut=    90.00 Ry     beta= 0.30
     Davidson diagonalization with overlap
     ethr =  1.47E-13,  avg # of iterations =  5.1

     negative rho (up, down):  1.304E-01 1.474E-01

     total cpu time spent up to now is     2047.5 secs

     total energy              =  -24931.24306226 Ry
     estimated scf accuracy    <          4.4E-10 Ry

     total magnetization       =    54.00 Bohr mag/cell
     absolute magnetization    =    65.38 Bohr mag/cell

     iteration # 14     ecut=    90.00 Ry     beta= 0.30
     Davidson diagonalization with overlap
     ethr =  1.00E-13,  avg # of iterations =  4.1

     negative rho (up, down):  1.304E-01 1.474E-01

     Magnetic moment per site  (integrated on atomic sphere of radius R)
     atom   1 (R=0.053)  charge= 12.4256  magn=  2.9108
     atom   2 (R=0.053)  charge= 12.4086  magn=  2.9136
     atom   3 (R=0.053)  charge= 12.4086  magn=  2.9136
     atom   4 (R=0.053)  charge=  4.0328  magn= -0.0666
     atom   5 (R=0.053)  charge=  4.0497  magn= -0.0522
     atom   6 (R=0.053)  charge=  4.0328  magn= -0.0666
     atom   7 (R=0.053)  charge=  4.0248  magn= -0.0723
     atom   8 (R=0.053)  charge=  4.0502  magn= -0.0558
     atom   9 (R=0.053)  charge=  4.0248  magn= -0.0723
     atom  10 (R=0.053)  charge= 12.4124  magn=  2.9203
     atom  11 (R=0.053)  charge= 12.4091  magn=  2.9162
     atom  12 (R=0.053)  charge=  4.0513  magn= -0.0516
     atom  13 (R=0.053)  charge=  4.0498  magn= -0.0517
     atom  14 (R=0.053)  charge=  4.0336  magn= -0.0637
     atom  15 (R=0.053)  charge=  4.0500  magn= -0.0523
     atom  16 (R=0.053)  charge=  4.0513  magn= -0.0523
     atom  17 (R=0.053)  charge=  4.0253  magn= -0.0709
     atom  18 (R=0.053)  charge= 12.4122  magn=  2.9227
     atom  19 (R=0.053)  charge= 12.3252  magn=  3.0168
     atom  20 (R=0.053)  charge=  4.0507  magn= -0.0525
     atom  21 (R=0.053)  charge=  4.0444  magn= -0.0604
     atom  22 (R=0.053)  charge=  4.0303  magn= -0.0695
     atom  23 (R=0.053)  charge=  4.0499  magn= -0.0520
     atom  24 (R=0.053)  charge=  4.0486  magn= -0.0515
     atom  25 (R=0.053)  charge=  4.0214  magn= -0.0769
     atom  26 (R=0.053)  charge= 12.4090  magn=  2.9162
     atom  27 (R=0.053)  charge= 12.4124  magn=  2.9203
     atom  28 (R=0.053)  charge=  4.0336  magn= -0.0637
     atom  29 (R=0.053)  charge=  4.0497  magn= -0.0517
     atom  30 (R=0.053)  charge=  4.0513  magn= -0.0515
     atom  31 (R=0.053)  charge=  4.0253  magn= -0.0709
     atom  32 (R=0.053)  charge=  4.0513  magn= -0.0522
     atom  33 (R=0.053)  charge=  4.0499  magn= -0.0523
     atom  34 (R=0.053)  charge= 12.4127  magn=  2.9233
     atom  35 (R=0.053)  charge=  4.0508  magn= -0.0484
     atom  36 (R=0.053)  charge=  4.0488  magn= -0.0500
     atom  37 (R=0.053)  charge=  4.0520  magn= -0.0494
     atom  38 (R=0.053)  charge=  4.0494  magn= -0.0496
     atom  39 (R=0.053)  charge=  4.0512  magn= -0.0476
     atom  40 (R=0.053)  charge=  4.0506  magn= -0.0506
     atom  41 (R=0.053)  charge= 12.4124  magn=  2.9258
     atom  42 (R=0.053)  charge= 12.3292  magn=  3.0258
     atom  43 (R=0.053)  charge=  4.0514  magn= -0.0504
     atom  44 (R=0.053)  charge=  4.0448  magn= -0.0597
     atom  45 (R=0.053)  charge=  4.0486  magn= -0.0544
     atom  46 (R=0.053)  charge=  4.0507  magn= -0.0504
     atom  47 (R=0.053)  charge=  4.0495  magn= -0.0482
     atom  48 (R=0.053)  charge=  4.0467  magn= -0.0568
     atom  49 (R=0.053)  charge= 12.3252  magn=  3.0168
     atom  50 (R=0.053)  charge= 12.4122  magn=  2.9227
     atom  51 (R=0.053)  charge=  4.0302  magn= -0.0695
     atom  52 (R=0.053)  charge=  4.0444  magn= -0.0604
     atom  53 (R=0.053)  charge=  4.0507  magn= -0.0525
     atom  54 (R=0.053)  charge=  4.0214  magn= -0.0769
     atom  55 (R=0.053)  charge=  4.0486  magn= -0.0515
     atom  56 (R=0.053)  charge=  4.0499  magn= -0.0520
     atom  57 (R=0.053)  charge= 12.3292  magn=  3.0259
     atom  58 (R=0.053)  charge= 12.4124  magn=  2.9257
     atom  59 (R=0.053)  charge=  4.0486  magn= -0.0544
     atom  60 (R=0.053)  charge=  4.0448  magn= -0.0597
     atom  61 (R=0.053)  charge=  4.0502  magn= -0.0494
     atom  62 (R=0.053)  charge=  4.0467  magn= -0.0568
     atom  63 (R=0.053)  charge=  4.0495  magn= -0.0482
     atom  64 (R=0.053)  charge=  4.0495  magn= -0.0494
     atom  65 (R=0.053)  charge= 12.3290  magn=  3.0299
     atom  66 (R=0.053)  charge= 12.3290  magn=  3.0298
     atom  67 (R=0.053)  charge=  4.0479  magn= -0.0555
     atom  68 (R=0.053)  charge=  4.0397  magn= -0.0675
     atom  69 (R=0.053)  charge=  4.0479  magn= -0.0555
     atom  70 (R=0.053)  charge=  4.0471  magn= -0.0559
     atom  71 (R=0.053)  charge=  4.0465  magn= -0.0471
     atom  72 (R=0.053)  charge=  4.0471  magn= -0.0559

     total cpu time spent up to now is     2156.9 secs

     End of self-consistent calculation

     =================== HUBBARD OCCUPATIONS ===================
     ------------------------ ATOM    1 ------------------------
     Tr[ns(  1)] (up, down, total) =   3.61151  0.78731  4.39881
     Atomic magnetic moment for atom   1 =   2.82420
     SPIN  1
     eigenvalues:
       0.449  0.451  0.901  0.902  0.908
     eigenvectors (columns):
      -0.000  0.000 -0.031 -0.030  0.999
      -0.800  0.188  0.536  0.195  0.022
      -0.187 -0.801  0.195 -0.534 -0.010
       0.556 -0.130  0.771  0.281  0.032
      -0.130 -0.554 -0.281  0.773  0.014
     occupation matrix ns (before diag.):
       0.908  0.000 -0.000  0.000  0.000
       0.000  0.597 -0.000  0.212 -0.000
      -0.000 -0.000  0.597  0.000 -0.211
       0.000  0.212  0.000  0.754  0.000
       0.000 -0.000 -0.211  0.000  0.756
     SPIN  2
     eigenvalues:
       0.082  0.089  0.090  0.263  0.264
     eigenvectors (columns):
      -0.999  0.035 -0.029  0.001 -0.000
      -0.022 -0.541  0.133  0.801 -0.218
       0.011 -0.134 -0.539  0.218  0.802
      -0.034 -0.805  0.198 -0.539  0.146
      -0.016  0.199  0.807  0.146  0.536
     occupation matrix ns (before diag.):
       0.082 -0.000  0.000 -0.000 -0.000
      -0.000  0.209 -0.000 -0.080 -0.000
       0.000 -0.000  0.210 -0.000  0.080
      -0.000 -0.080 -0.000  0.143  0.000
      -0.000 -0.000  0.080  0.000  0.144

     Number of occupied Hubbard levels =    4.3988

 ------ SPIN UP ------------


          k = 0.0000 0.0000 0.0000 (****** PWs)   bands (ev):

   -76.1372 -76.1371 -76.0611 -76.0610 -76.0128 -76.0118 -75.9810 -75.9810
   -75.9320 -75.9303 -75.9302 -75.8510 -75.8509 -75.8506 -75.8500 -75.7728
   -75.7727 -75.7552 -47.4877 -47.4868 -47.4633 -47.4622 -47.4580 -47.4576
   -47.4087 -47.4086 -47.3882 -47.3882 -47.3825 -47.3824 -47.3522 -47.3513
   -47.3457 -47.3448 -47.3396 -47.3386 -47.3275 -47.3275 -47.3062 -47.3062
   -47.3016 -47.3016 -47.2704 -47.2699 -47.2699 -47.2639 -47.2634 -47.2634
   -47.2612 -47.2562 -47.2562 -47.1891 -47.1891 -47.1887 -47.1881 -47.1837
   -47.1837 -47.1818 -47.1813 -47.1798 -47.1793 -47.1766 -47.1765 -47.1106
   -47.1103 -47.1067 -47.1047 -47.0990 -47.0976 -47.0974 -47.0928 -47.0901
   -16.2034 -16.0673 -16.0166 -15.9894 -15.9550 -15.8949 -15.8618 -15.7100
   -15.6637 -15.6335 -15.6067 -15.4952 -15.4791 -15.4545 -15.4245 -15.4086
   -15.3805 -15.3554 -15.3458 -15.3332 -15.3313 -15.3102 -15.2944 -15.2750
   -15.2698 -15.2475 -15.2385 -15.2362 -15.2036 -15.1898 -15.1763 -15.1717
   -15.1654 -15.1540 -15.1269 -15.1217 -15.1138 -15.1070 -15.0994 -15.0832
   -15.0768 -15.0654 -15.0316 -15.0227 -15.0071 -14.9961 -14.9863 -14.9103
   -14.8809 -14.8796 -14.8186 -14.8161 -14.7423 -14.7138  -7.9454  -7.8747
    -7.8352  -7.7910  -7.7811  -7.7422  -7.6955  -7.4068  -7.3793  -7.3745
    -7.3663  -7.3285  -7.2914  -7.2645  -7.2346  -7.2199  -7.1430  -7.1361
    -6.9820  -6.9451  -6.9418  -6.8985  -6.8812  -6.8594  -6.8508  -6.8427
    -6.8138  -6.8113  -6.7737  -6.7491  -6.7295  -6.7242  -6.7063  -6.6908
    -6.6848  -6.6733  -6.6496  -6.6418  -6.6299  -6.6039  -6.5889  -6.5888
    -6.5653  -6.5402  -6.5059  -6.4951  -6.4741  -6.4691  -6.4336  -6.4052
    -6.3976  -6.3781  -6.3435  -6.3417  -6.3364  -6.3009  -6.2838  -6.2706
    -6.2553  -6.2362  -6.1938  -6.1670  -6.1532  -6.1228  -6.1182  -6.0869
    -6.0543  -6.0303  -6.0258  -5.9907  -5.9884  -5.9861  -5.9759  -5.9386
    -5.9295  -5.9196  -5.8895  -5.8864  -5.8586  -5.8439  -5.8062  -5.7745
    -5.6841  -5.6521  -5.6274  -5.6253  -5.5810  -5.5175  -5.4996  -5.4727
    -5.4611  -5.4305  -5.3877  -5.3657  -5.3488  -5.3214  -5.2898  -5.2675
    -5.2506  -5.2352  -5.2128  -5.1991  -5.1768  -5.1739  -5.1516  -5.1408
    -5.1268  -5.1218  -5.0641  -5.0469  -5.0275  -5.0205  -5.0199  -5.0075
    -4.9910  -4.9804  -4.9529  -4.9477  -4.9295  -4.9137  -4.8757  -4.8671
    -4.8548  -4.8408  -4.8188  -4.7868  -4.7796  -4.7666  -4.7378  -4.7181
    -4.7070  -4.6938  -4.6852  -4.6783  -4.6775  -4.6262  -4.6102  -4.5548
    -4.5389  -4.5160  -4.4883  -4.4482  -4.4451  -4.4332  -4.4021  -4.3961
    -4.3738  -4.3702  -4.3555  -4.3488  -4.3473  -4.3239  -4.3170  -4.2882
    -4.2861  -4.2411  -4.2204  -4.2164  -4.1924  -4.1844  -4.1545  -4.1292
    -4.1064  -4.0841  -4.0813  -4.0517  -4.0138  -4.0115  -4.0027  -3.9852
    -3.9537  -3.9511  -3.9321  -3.9262  -3.9214  -3.9136  -3.8983  -3.8929
    -3.8857  -3.8841  -3.8814  -3.8534  -3.8401  -3.8376  -3.8293  -3.8288
    -3.8185  -3.8168  -3.7935  -3.7859  -3.7679  -3.7655  -3.7495  -3.7295
    -3.7230  -3.7027  -3.6957  -3.6853  -3.6363  -3.6288  -3.6166  -3.6010
    -3.5971  -3.5787  -3.5043  -3.4972  -3.4893  -3.4714  -3.4408  -3.4347
    -3.4185  -3.3964  -3.3518  -3.3491  -3.3402  -3.3257

          k = 0.0000-0.5774 0.0000 (****** PWs)   bands (ev):

   -76.1372 -76.1371 -76.0611 -76.0610 -76.0128 -76.0118 -75.9810 -75.9810
   -75.9320 -75.9303 -75.9302 -75.8510 -75.8509 -75.8506 -75.8500 -75.7728
   -75.7727 -75.7552 -47.4877 -47.4868 -47.4633 -47.4622 -47.4580 -47.4576
   -47.4087 -47.4086 -47.3882 -47.3882 -47.3825 -47.3824 -47.3522 -47.3513
   -47.3457 -47.3448 -47.3396 -47.3386 -47.3275 -47.3275 -47.3062 -47.3062
   -47.3016 -47.3016 -47.2704 -47.2699 -47.2699 -47.2639 -47.2634 -47.2634
   -47.2612 -47.2562 -47.2562 -47.1891 -47.1891 -47.1887 -47.1881 -47.1837
   -47.1837 -47.1818 -47.1813 -47.1798 -47.1793 -47.1766 -47.1765 -47.1106
   -47.1103 -47.1067 -47.1047 -47.0990 -47.0976 -47.0974 -47.0928 -47.0901
   -16.1920 -16.0982 -16.0245 -15.9975 -15.9268 -15.8635 -15.8450 -15.7597
   -15.6899 -15.5924 -15.5686 -15.5202 -15.5160 -15.4633 -15.4508 -15.3951
   -15.3752 -15.3604 -15.3510 -15.3226 -15.3121 -15.3096 -15.2929 -15.2752
   -15.2506 -15.2410 -15.2306 -15.2177 -15.2063 -15.1966 -15.1821 -15.1728
   -15.1607 -15.1493 -15.1426 -15.1264 -15.1227 -15.1040 -15.1030 -15.0846
   -15.0761 -15.0639 -15.0341 -15.0286 -15.0045 -14.9962 -14.9874 -14.9090
   -14.8802 -14.8792 -14.8172 -14.8169 -14.7423 -14.7137  -7.9301  -7.8805
    -7.8186  -7.7813  -7.7670  -7.7036  -7.6415  -7.5973  -7.5260  -7.3733
    -7.3400  -7.2833  -7.2734  -7.2607  -7.2140  -7.1991  -7.1365  -7.1304
    -6.9739  -6.9452  -6.9351  -6.8986  -6.8735  -6.8681  -6.8416  -6.8375
    -6.8231  -6.8091  -6.7840  -6.7655  -6.7355  -6.7297  -6.7256  -6.7062
    -6.6988  -6.6765  -6.6529  -6.6458  -6.6288  -6.5976  -6.5641  -6.5497
    -6.5267  -6.5140  -6.4896  -6.4867  -6.4602  -6.4437  -6.4271  -6.4143
    -6.4010  -6.3904  -6.3826  -6.3340  -6.3228  -6.2934  -6.2809  -6.2707
    -6.2498  -6.2242  -6.1904  -6.1850  -6.1590  -6.1134  -6.0850  -6.0761
    -6.0629  -6.0438  -6.0222  -6.0045  -5.9839  -5.9822  -5.9607  -5.9193
    -5.9091  -5.8976  -5.8633  -5.8454  -5.8251  -5.8016  -5.7781  -5.7191
    -5.6497  -5.6222  -5.6005  -5.5943  -5.5759  -5.5541  -5.5339  -5.5259
    -5.5083  -5.4929  -5.4703  -5.4480  -5.4384  -5.4095  -5.3892  -5.3660
    -5.3466  -5.3224  -5.3042  -5.2665  -5.2442  -5.2273  -5.2005  -5.1490
    -5.1350  -5.1181  -5.0935  -5.0743  -5.0518  -5.0250  -5.0061  -4.9726
    -4.9515  -4.9169  -4.9057  -4.8944  -4.8764  -4.8529  -4.8132  -4.8030
    -4.7832  -4.7671  -4.7458  -4.7339  -4.7084  -4.6913  -4.6876  -4.6751
    -4.6676  -4.6432  -4.6189  -4.6048  -4.5969  -4.5671  -4.5540  -4.5459
    -4.5347  -4.5244  -4.5093  -4.4908  -4.4703  -4.4490  -4.4425  -4.4350
    -4.4137  -4.4059  -4.3828  -4.3764  -4.3459  -4.3055  -4.2918  -4.2754
    -4.2610  -4.2534  -4.2264  -4.2060  -4.1938  -4.1790  -4.1733  -4.1677
    -4.1597  -4.1477  -4.1193  -4.1127  -4.0846  -4.0631  -4.0420  -4.0042
    -3.9800  -3.9689  -3.9509  -3.9324  -3.9229  -3.9089  -3.8960  -3.8840
    -3.8820  -3.8696  -3.8557  -3.8538  -3.8460  -3.8377  -3.8326  -3.8194
    -3.8114  -3.7905  -3.7861  -3.7786  -3.7698  -3.7522  -3.7268  -3.7127
    -3.6898  -3.6826  -3.6614  -3.6461  -3.6372  -3.6299  -3.6165  -3.6042
    -3.5992  -3.5803  -3.5709  -3.5330  -3.4766  -3.4661  -3.4248  -3.4228
    -3.4106  -3.3963  -3.3714  -3.3519  -3.3431  -3.3294

          k = 0.5000-0.2887 0.0000 (****** PWs)   bands (ev):

   -76.1372 -76.1371 -76.0611 -76.0610 -76.0128 -76.0118 -75.9810 -75.9810
   -75.9320 -75.9303 -75.9302 -75.8510 -75.8509 -75.8506 -75.8500 -75.7728
   -75.7727 -75.7552 -47.4877 -47.4868 -47.4633 -47.4622 -47.4580 -47.4576
   -47.4087 -47.4086 -47.3882 -47.3882 -47.3825 -47.3824 -47.3522 -47.3513
   -47.3457 -47.3448 -47.3396 -47.3386 -47.3275 -47.3275 -47.3062 -47.3062
   -47.3016 -47.3016 -47.2704 -47.2699 -47.2699 -47.2639 -47.2634 -47.2634
   -47.2612 -47.2562 -47.2562 -47.1891 -47.1891 -47.1887 -47.1881 -47.1837
   -47.1837 -47.1818 -47.1813 -47.1798 -47.1793 -47.1766 -47.1765 -47.1106
   -47.1103 -47.1067 -47.1047 -47.0990 -47.0976 -47.0974 -47.0928 -47.0901
   -16.1856 -16.1183 -16.0217 -15.9705 -15.9335 -15.8676 -15.8511 -15.7684
   -15.6570 -15.6291 -15.5552 -15.5247 -15.5191 -15.4708 -15.4489 -15.3967
   -15.3639 -15.3546 -15.3492 -15.3123 -15.3079 -15.2999 -15.2967 -15.2774
   -15.2509 -15.2482 -15.2278 -15.2208 -15.2177 -15.2031 -15.1954 -15.1645
   -15.1628 -15.1447 -15.1392 -15.1267 -15.1225 -15.1058 -15.1035 -15.0781
   -15.0750 -15.0694 -15.0313 -15.0302 -15.0030 -14.9984 -14.9852 -14.9076
   -14.8805 -14.8799 -14.8186 -14.8157 -14.7424 -14.7136  -7.9237  -7.8933
    -7.7950  -7.7912  -7.7452  -7.7061  -7.6970  -7.5591  -7.5437  -7.3736
    -7.3319  -7.2910  -7.2489  -7.2443  -7.2254  -7.2196  -7.1425  -7.1248
    -6.9712  -6.9437  -6.9397  -6.8959  -6.8793  -6.8718  -6.8484  -6.8349
    -6.8269  -6.8139  -6.8035  -6.7682  -6.7648  -6.7539  -6.7110  -6.6991
    -6.6706  -6.6681  -6.6236  -6.6212  -6.6023  -6.5892  -6.5629  -6.5228
    -6.5209  -6.5095  -6.5031  -6.5020  -6.4722  -6.4548  -6.4341  -6.4084
    -6.3927  -6.3769  -6.3734  -6.3606  -6.3109  -6.3083  -6.2888  -6.2814
    -6.2675  -6.2487  -6.1952  -6.1907  -6.1270  -6.1170  -6.0819  -6.0675
    -6.0429  -6.0372  -6.0227  -6.0014  -5.9959  -5.9696  -5.9476  -5.9161
    -5.9142  -5.8993  -5.8992  -5.8730  -5.8631  -5.8435  -5.7934  -5.6735
    -5.6486  -5.6116  -5.5776  -5.5566  -5.5494  -5.5276  -5.5271  -5.5098
    -5.5080  -5.4907  -5.4798  -5.4659  -5.4492  -5.4345  -5.3955  -5.3799
    -5.3652  -5.3475  -5.3322  -5.2656  -5.2288  -5.2025  -5.1829  -5.1577
    -5.1267  -5.0849  -5.0811  -5.0650  -5.0484  -5.0248  -5.0023  -4.9978
    -4.9450  -4.9389  -4.9143  -4.8756  -4.8744  -4.8392  -4.8123  -4.8007
    -4.7881  -4.7799  -4.7363  -4.7355  -4.7183  -4.7058  -4.6869  -4.6682
    -4.6639  -4.6308  -4.6295  -4.6050  -4.5959  -4.5817  -4.5681  -4.5632
    -4.5482  -4.5098  -4.4732  -4.4713  -4.4594  -4.4589  -4.4415  -4.4295
    -4.4233  -4.4067  -4.4053  -4.3905  -4.3631  -4.2930  -4.2854  -4.2747
    -4.2661  -4.2344  -4.2211  -4.2133  -4.2001  -4.1857  -4.1741  -4.1612
    -4.1506  -4.1362  -4.1284  -4.0960  -4.0809  -4.0785  -4.0263  -4.0104
    -3.9921  -3.9696  -3.9407  -3.9314  -3.9135  -3.9126  -3.9069  -3.8930
    -3.8831  -3.8801  -3.8686  -3.8617  -3.8501  -3.8360  -3.8260  -3.8243
    -3.8065  -3.7980  -3.7900  -3.7724  -3.7644  -3.7396  -3.7264  -3.7096
    -3.6914  -3.6913  -3.6666  -3.6514  -3.6302  -3.6256  -3.6228  -3.6121
    -3.5758  -3.5752  -3.5558  -3.5309  -3.4978  -3.4502  -3.4491  -3.4249
    -3.4217  -3.3864  -3.3600  -3.3578  -3.3347  -3.3261

          k =-0.5000-0.2887 0.0000 (****** PWs)   bands (ev):

   -76.1372 -76.1371 -76.0611 -76.0610 -76.0128 -76.0118 -75.9810 -75.9810
   -75.9320 -75.9303 -75.9302 -75.8510 -75.8509 -75.8506 -75.8500 -75.7728
   -75.7727 -75.7552 -47.4877 -47.4868 -47.4633 -47.4622 -47.4580 -47.4576
   -47.4087 -47.4086 -47.3882 -47.3882 -47.3825 -47.3824 -47.3522 -47.3513
   -47.3457 -47.3448 -47.3396 -47.3386 -47.3275 -47.3275 -47.3062 -47.3062
   -47.3016 -47.3016 -47.2704 -47.2699 -47.2699 -47.2639 -47.2634 -47.2634
   -47.2612 -47.2562 -47.2562 -47.1891 -47.1891 -47.1887 -47.1881 -47.1837
   -47.1837 -47.1818 -47.1813 -47.1798 -47.1793 -47.1766 -47.1765 -47.1106
   -47.1103 -47.1067 -47.1047 -47.0990 -47.0976 -47.0974 -47.0928 -47.0901
   -16.1920 -16.0984 -16.0240 -15.9973 -15.9273 -15.8638 -15.8448 -15.7594
   -15.6900 -15.5927 -15.5686 -15.5199 -15.5159 -15.4636 -15.4508 -15.3951
   -15.3756 -15.3602 -15.3507 -15.3227 -15.3117 -15.3096 -15.2931 -15.2750
   -15.2511 -15.2409 -15.2304 -15.2175 -15.2064 -15.1968 -15.1819 -15.1727
   -15.1609 -15.1485 -15.1427 -15.1265 -15.1233 -15.1038 -15.1035 -15.0840
   -15.0759 -15.0642 -15.0344 -15.0286 -15.0043 -14.9963 -14.9874 -14.9090
   -14.8802 -14.8792 -14.8172 -14.8169 -14.7423 -14.7137  -7.9301  -7.8816
    -7.8154  -7.7827  -7.7665  -7.7047  -7.6425  -7.5970  -7.5253  -7.3720
    -7.3397  -7.2848  -7.2739  -7.2603  -7.2137  -7.1995  -7.1365  -7.1301
    -6.9741  -6.9461  -6.9342  -6.8974  -6.8754  -6.8669  -6.8435  -6.8376
    -6.8226  -6.8076  -6.7842  -6.7653  -6.7352  -6.7296  -6.7258  -6.7062
    -6.6986  -6.6767  -6.6527  -6.6452  -6.6295  -6.5983  -6.5639  -6.5498
    -6.5290  -6.5134  -6.4915  -6.4851  -6.4585  -6.4434  -6.4265  -6.4152
    -6.4009  -6.3906  -6.3817  -6.3338  -6.3224  -6.2939  -6.2804  -6.2703
    -6.2505  -6.2244  -6.1903  -6.1857  -6.1585  -6.1114  -6.0847  -6.0787
    -6.0662  -6.0437  -6.0226  -6.0039  -5.9828  -5.9807  -5.9602  -5.9200
    -5.9090  -5.8979  -5.8632  -5.8450  -5.8254  -5.8011  -5.7776  -5.7199
    -5.6501  -5.6218  -5.5988  -5.5954  -5.5750  -5.5535  -5.5354  -5.5257
    -5.5085  -5.4936  -5.4703  -5.4481  -5.4381  -5.4097  -5.3896  -5.3657
    -5.3468  -5.3218  -5.3040  -5.2657  -5.2439  -5.2289  -5.2002  -5.1494
    -5.1335  -5.1178  -5.0936  -5.0749  -5.0521  -5.0263  -5.0058  -4.9728
    -4.9510  -4.9171  -4.9052  -4.8941  -4.8768  -4.8545  -4.8131  -4.8026
    -4.7846  -4.7662  -4.7454  -4.7344  -4.7090  -4.6924  -4.6868  -4.6731
    -4.6665  -4.6424  -4.6197  -4.6044  -4.5969  -4.5667  -4.5536  -4.5470
    -4.5341  -4.5242  -4.5081  -4.4912  -4.4705  -4.4472  -4.4423  -4.4362
    -4.4156  -4.4070  -4.3836  -4.3754  -4.3469  -4.3058  -4.2918  -4.2732
    -4.2614  -4.2528  -4.2270  -4.2061  -4.1937  -4.1786  -4.1733  -4.1681
    -4.1599  -4.1468  -4.1192  -4.1127  -4.0859  -4.0630  -4.0415  -4.0046
    -3.9802  -3.9698  -3.9501  -3.9314  -3.9232  -3.9093  -3.8949  -3.8849
    -3.8814  -3.8696  -3.8563  -3.8544  -3.8461  -3.8377  -3.8324  -3.8179
    -3.8116  -3.7908  -3.7861  -3.7791  -3.7700  -3.7519  -3.7265  -3.7125
    -3.6903  -3.6828  -3.6614  -3.6457  -3.6375  -3.6298  -3.6167  -3.6042
    -3.5992  -3.5806  -3.5707  -3.5327  -3.4766  -3.4661  -3.4248  -3.4229
    -3.4105  -3.3962  -3.3713  -3.3520  -3.3432  -3.3293

 ------ SPIN DOWN ----------


          k = 0.0000 0.0000 0.0000 (****** PWs)   bands (ev):

   -72.9792 -72.9791 -72.9725 -72.9716 -72.9070 -72.9069 -72.8941 -72.8931
   -72.8930 -72.8345 -72.8345 -72.8188 -72.8188 -72.8158 -72.8152 -72.7432
   -72.7431 -72.7327 -44.3884 -44.3872 -44.3783 -44.3775 -44.3623 -44.3606
   -44.3477 -44.3470 -44.3348 -44.3338 -44.3320 -44.3316 -44.3124 -44.3123
   -44.2995 -44.2984 -44.2984 -44.2842 -44.2841 -44.2694 -44.2694 -44.2675
   -44.2674 -44.2649 -44.2616 -44.2545 -44.2545 -44.2350 -44.2350 -44.2203
   -44.2198 -44.2190 -44.2190 -44.2125 -44.2125 -44.1956 -44.1956 -44.1932
   -44.1932 -44.1869 -44.1862 -44.1839 -44.1839 -44.1829 -44.1824 -44.1433
   -44.1431 -44.1426 -44.1183 -44.1163 -44.1090 -44.1086 -44.1079 -44.1057
   -16.2114 -16.0790 -16.0319 -16.0019 -15.9703 -15.9092 -15.8814 -15.7342
   -15.6898 -15.6625 -15.6380 -15.5369 -15.5156 -15.5032 -15.4614 -15.4505
   -15.4285 -15.4035 -15.3925 -15.3737 -15.3730 -15.3578 -15.3433 -15.3209
   -15.3179 -15.2952 -15.2871 -15.2850 -15.2518 -15.2367 -15.2268 -15.2205
   -15.2132 -15.2021 -15.1751 -15.1746 -15.1638 -15.1516 -15.1453 -15.1334
   -15.1281 -15.1100 -15.0900 -15.0744 -15.0630 -15.0441 -15.0354 -14.9693
   -14.9511 -14.9449 -14.8864 -14.8834 -14.8114 -14.7846  -7.6608  -7.6170
    -7.5745  -7.5330  -7.5257  -7.4861  -7.4406  -7.1616  -7.1315  -7.1285
    -7.1179  -7.0809  -7.0439  -7.0187  -6.9959  -6.9770  -6.9053  -6.9025
    -6.8568  -6.8475  -6.8105  -6.7784  -6.7579  -6.7253  -6.6717  -6.6427
    -6.6287  -6.6097  -6.5998  -6.5553  -6.5457  -6.5453  -6.5274  -6.5245
    -6.4726  -6.4657  -6.4503  -6.4221  -6.4160  -6.4044  -6.3771  -6.3508
    -6.3433  -6.2981  -6.2965  -6.2933  -6.2537  -6.1862  -6.1478  -6.1359
    -6.1304  -6.0565  -6.0447  -6.0243  -6.0011  -5.9938  -5.9459  -5.9372
    -5.9358  -5.9271  -5.8850  -5.8801  -5.8562  -5.8121  -5.7948  -5.6195
    -5.6051  -5.5931  -5.5779  -5.5694  -5.5521  -5.5487  -5.5313  -5.5037
    -5.5006  -5.4976  -5.4847  -5.4540  -5.4003  -5.3976  -5.3846  -5.3630
    -5.3085  -5.2770  -5.2260  -5.2107  -5.1871  -5.1460  -5.1069  -5.1056
    -5.0955  -5.0614  -5.0247  -5.0176  -4.9820  -4.9786  -4.9653  -4.9589
    -4.9451  -4.9228  -4.9089  -4.8774  -4.8603  -4.8478  -4.8192  -4.8185
    -4.8003  -4.7858  -4.7720  -4.7711  -4.7479  -4.7463  -4.7218  -4.7148
    -4.6932  -4.6765  -4.6762  -4.6325  -4.6309  -4.5721  -4.5615  -4.5539
    -4.5503  -4.5454  -4.4740  -4.4576  -4.4480  -4.4472  -4.4077  -4.3775
    -4.3659  -4.3481  -4.3222  -4.3158  -4.3021  -4.2894  -4.2560  -4.2457
    -4.2339  -4.2194  -4.2094  -4.1722  -4.1106  -4.0731  -4.0684  -4.0560
    -4.0549  -3.9983  -3.9968  -3.9813  -3.9803  -3.9676  -3.9192  -3.8957
    -3.8677  -3.8329  -3.8146  -3.7655  -3.7236  -3.6871  -3.6149  -3.5913
    -1.5508  -1.5448  -1.5194  -1.5090  -1.4994  -1.4816  -1.4660  -1.4578
    -1.4302  -1.4166  -1.4090  -1.4051  -1.3792  -1.3747  -1.3483  -1.3376
    -1.3288  -1.3213  -1.3191  -1.2924  -1.2859  -1.2691  -1.2557  -1.2538
    -1.2474  -1.2286  -1.2073  -1.2034  -1.1937  -1.1727  -1.1416  -1.1255
    -1.1219  -1.1104  -1.1084  -1.0947  -1.0780  -1.0776  -1.0637  -1.0565
    -1.0511  -1.0482  -1.0300  -1.0291  -1.0244  -1.0146  -1.0119  -1.0077
    -0.9904  -0.9845  -0.9732  -0.9662  -0.9524  -0.9300

          k = 0.0000-0.5774 0.0000 (****** PWs)   bands (ev):

   -72.9792 -72.9791 -72.9725 -72.9716 -72.9070 -72.9069 -72.8941 -72.8931
   -72.8930 -72.8345 -72.8345 -72.8188 -72.8188 -72.8158 -72.8152 -72.7432
   -72.7431 -72.7327 -44.3884 -44.3872 -44.3783 -44.3775 -44.3623 -44.3606
   -44.3477 -44.3470 -44.3348 -44.3338 -44.3320 -44.3316 -44.3124 -44.3123
   -44.2995 -44.2984 -44.2984 -44.2842 -44.2841 -44.2694 -44.2694 -44.2675
   -44.2674 -44.2649 -44.2616 -44.2545 -44.2545 -44.2350 -44.2350 -44.2203
   -44.2198 -44.2190 -44.2190 -44.2125 -44.2125 -44.1956 -44.1956 -44.1932
   -44.1932 -44.1869 -44.1862 -44.1839 -44.1839 -44.1829 -44.1824 -44.1433
   -44.1431 -44.1426 -44.1183 -44.1163 -44.1090 -44.1086 -44.1079 -44.1057
   -16.2003 -16.1092 -16.0388 -16.0109 -15.9422 -15.8786 -15.8639 -15.7817
   -15.7186 -15.6241 -15.6027 -15.5558 -15.5492 -15.5022 -15.4971 -15.4449
   -15.4196 -15.4047 -15.3992 -15.3650 -15.3582 -15.3566 -15.3414 -15.3231
   -15.2949 -15.2862 -15.2765 -15.2668 -15.2558 -15.2431 -15.2336 -15.2225
   -15.2101 -15.1967 -15.1950 -15.1760 -15.1712 -15.1503 -15.1485 -15.1341
   -15.1263 -15.1085 -15.0918 -15.0839 -15.0592 -15.0456 -15.0343 -14.9685
   -14.9504 -14.9438 -14.8848 -14.8844 -14.8114 -14.7845  -7.6520  -7.6133
    -7.5567  -7.5197  -7.5131  -7.4513  -7.3895  -7.3483  -7.2764  -7.1226
    -7.0922  -7.0389  -7.0262  -7.0178  -6.9712  -6.9646  -6.9040  -6.8958
    -6.8575  -6.8316  -6.8104  -6.7650  -6.7286  -6.7148  -6.6858  -6.6605
    -6.6531  -6.6328  -6.6172  -6.5944  -6.5586  -6.5503  -6.5225  -6.4916
    -6.4900  -6.4670  -6.4565  -6.4295  -6.4239  -6.3862  -6.3350  -6.3219
    -6.3119  -6.2694  -6.2500  -6.2285  -6.1960  -6.1934  -6.1661  -6.1512
    -6.1307  -6.1106  -6.0957  -6.0802  -6.0443  -6.0273  -5.9750  -5.9619
    -5.9422  -5.8975  -5.8543  -5.8029  -5.8010  -5.6627  -5.6556  -5.6330
    -5.6249  -5.6049  -5.5811  -5.5723  -5.5499  -5.5340  -5.5174  -5.5067
    -5.4803  -5.4672  -5.4512  -5.4242  -5.4166  -5.3759  -5.3520  -5.3214
    -5.2996  -5.2839  -5.2450  -5.2386  -5.2241  -5.2134  -5.1892  -5.1681
    -5.1537  -5.1272  -5.1190  -5.0961  -5.0818  -5.0788  -5.0587  -5.0312
    -5.0067  -4.9543  -4.9365  -4.9320  -4.9222  -4.8896  -4.8746  -4.8597
    -4.8421  -4.8242  -4.8147  -4.7920  -4.7029  -4.6876  -4.6723  -4.6715
    -4.6427  -4.6243  -4.5891  -4.5751  -4.5627  -4.5412  -4.4960  -4.4937
    -4.4852  -4.4688  -4.4453  -4.4437  -4.4245  -4.4094  -4.3942  -4.3439
    -4.3240  -4.3058  -4.2967  -4.2831  -4.2648  -4.2498  -4.2345  -4.2133
    -4.1745  -4.1587  -4.1525  -4.1258  -4.1061  -4.0883  -4.0828  -4.0608
    -4.0587  -4.0331  -4.0075  -3.9837  -3.9604  -3.9526  -3.9475  -3.9090
    -3.9024  -3.8664  -3.8337  -3.8103  -3.7741  -3.7674  -3.7054  -3.6396
    -1.5591  -1.5527  -1.5359  -1.5207  -1.5002  -1.4877  -1.4711  -1.4553
    -1.4439  -1.4229  -1.4057  -1.4004  -1.3792  -1.3641  -1.3568  -1.3369
    -1.3187  -1.3068  -1.2856  -1.2824  -1.2709  -1.2594  -1.2518  -1.2386
    -1.2227  -1.2039  -1.1963  -1.1865  -1.1729  -1.1641  -1.1595  -1.1408
    -1.1363  -1.1330  -1.1229  -1.1096  -1.0990  -1.0866  -1.0791  -1.0728
    -1.0629  -1.0500  -1.0401  -1.0343  -1.0276  -1.0222  -1.0097  -1.0030
    -0.9979  -0.9825  -0.9752  -0.9600  -0.9400  -0.9274

          k = 0.5000-0.2887 0.0000 (****** PWs)   bands (ev):

   -72.9792 -72.9791 -72.9725 -72.9716 -72.9070 -72.9069 -72.8941 -72.8931
   -72.8930 -72.8345 -72.8345 -72.8188 -72.8188 -72.8158 -72.8152 -72.7432
   -72.7431 -72.7327 -44.3884 -44.3872 -44.3783 -44.3775 -44.3623 -44.3606
   -44.3477 -44.3470 -44.3348 -44.3338 -44.3320 -44.3316 -44.3124 -44.3123
   -44.2995 -44.2984 -44.2984 -44.2842 -44.2841 -44.2694 -44.2694 -44.2675
   -44.2674 -44.2649 -44.2616 -44.2545 -44.2545 -44.2350 -44.2350 -44.2203
   -44.2198 -44.2190 -44.2190 -44.2125 -44.2125 -44.1956 -44.1956 -44.1932
   -44.1932 -44.1869 -44.1862 -44.1839 -44.1839 -44.1829 -44.1824 -44.1433
   -44.1431 -44.1426 -44.1183 -44.1163 -44.1090 -44.1086 -44.1079 -44.1057
   -16.1941 -16.1289 -16.0357 -15.9851 -15.9487 -15.8854 -15.8652 -15.7917
   -15.6907 -15.6593 -15.5858 -15.5609 -15.5504 -15.5058 -15.4981 -15.4464
   -15.4122 -15.3983 -15.3979 -15.3566 -15.3534 -15.3463 -15.3434 -15.3247
   -15.2979 -15.2940 -15.2740 -15.2684 -15.2678 -15.2500 -15.2458 -15.2159
   -15.2142 -15.1906 -15.1859 -15.1763 -15.1723 -15.1519 -15.1515 -15.1266
   -15.1228 -15.1157 -15.0891 -15.0850 -15.0594 -15.0469 -15.0319 -14.9677
   -14.9511 -14.9438 -14.8865 -14.8829 -14.8115 -14.7844  -7.6476  -7.6210
    -7.5385  -7.5339  -7.4844  -7.4550  -7.4438  -7.3112  -7.2943  -7.1231
    -7.0829  -7.0465  -7.0066  -7.0049  -6.9818  -6.9720  -6.9072  -6.8926
    -6.8478  -6.8346  -6.8208  -6.7544  -6.7257  -6.7102  -6.7041  -6.6845
    -6.6564  -6.6460  -6.6340  -6.5750  -6.5746  -6.5646  -6.5356  -6.4943
    -6.4612  -6.4437  -6.4180  -6.4087  -6.3872  -6.3690  -6.3549  -6.3251
    -6.2975  -6.2928  -6.2740  -6.2301  -6.2250  -6.1913  -6.1591  -6.1497
    -6.1416  -6.1171  -6.0833  -6.0584  -5.9955  -5.9903  -5.9870  -5.9729
    -5.9501  -5.9329  -5.9207  -5.8111  -5.7690  -5.6950  -5.6702  -5.6551
    -5.6290  -5.5907  -5.5617  -5.5608  -5.5574  -5.5311  -5.5034  -5.4873
    -5.4851  -5.4718  -5.4657  -5.4375  -5.4094  -5.4059  -5.3687  -5.2985
    -5.2892  -5.2638  -5.2482  -5.2230  -5.2191  -5.2048  -5.1833  -5.1771
    -5.1561  -5.1419  -5.1289  -5.0992  -5.0730  -5.0719  -5.0348  -5.0234
    -5.0068  -4.9666  -4.9565  -4.9357  -4.9162  -4.9102  -4.8591  -4.8465
    -4.8353  -4.8192  -4.8190  -4.7021  -4.7017  -4.6959  -4.6766  -4.6603
    -4.6519  -4.6374  -4.6214  -4.6067  -4.5628  -4.5378  -4.5184  -4.5171
    -4.4982  -4.4534  -4.4305  -4.4256  -4.4037  -4.3904  -4.3739  -4.3470
    -4.3331  -4.3189  -4.2882  -4.2836  -4.2719  -4.2415  -4.2387  -4.2341
    -4.2114  -4.1883  -4.1567  -4.1190  -4.0961  -4.0832  -4.0732  -4.0447
    -4.0359  -4.0344  -4.0234  -3.9892  -3.9604  -3.9534  -3.9477  -3.9258
    -3.9077  -3.8397  -3.8394  -3.8285  -3.8162  -3.6939  -3.6884  -3.6635
    -1.5673  -1.5601  -1.5334  -1.5156  -1.4996  -1.4976  -1.4711  -1.4519
    -1.4385  -1.4215  -1.3999  -1.3987  -1.3862  -1.3645  -1.3545  -1.3368
    -1.3097  -1.2975  -1.2876  -1.2743  -1.2653  -1.2481  -1.2465  -1.2369
    -1.2310  -1.2134  -1.1992  -1.1934  -1.1763  -1.1711  -1.1600  -1.1493
    -1.1376  -1.1183  -1.1140  -1.1087  -1.1012  -1.0897  -1.0876  -1.0843
    -1.0786  -1.0527  -1.0397  -1.0285  -1.0250  -1.0231  -1.0188  -1.0053
    -0.9974  -0.9773  -0.9702  -0.9659  -0.9370  -0.9193

          k =-0.5000-0.2887 0.0000 (****** PWs)   bands (ev):

   -72.9792 -72.9791 -72.9725 -72.9716 -72.9070 -72.9069 -72.8941 -72.8931
   -72.8930 -72.8345 -72.8345 -72.8188 -72.8188 -72.8158 -72.8152 -72.7432
   -72.7431 -72.7327 -44.3884 -44.3872 -44.3783 -44.3775 -44.3623 -44.3606
   -44.3477 -44.3470 -44.3348 -44.3338 -44.3320 -44.3316 -44.3124 -44.3123
   -44.2995 -44.2984 -44.2984 -44.2842 -44.2841 -44.2694 -44.2694 -44.2675
   -44.2674 -44.2649 -44.2616 -44.2545 -44.2545 -44.2350 -44.2350 -44.2203
   -44.2198 -44.2190 -44.2190 -44.2125 -44.2125 -44.1956 -44.1956 -44.1932
   -44.1932 -44.1869 -44.1862 -44.1839 -44.1839 -44.1829 -44.1824 -44.1433
   -44.1431 -44.1426 -44.1183 -44.1163 -44.1090 -44.1086 -44.1079 -44.1057
   -16.2003 -16.1095 -16.0383 -16.0108 -15.9426 -15.8790 -15.8636 -15.7813
   -15.7186 -15.6244 -15.6028 -15.5554 -15.5491 -15.5023 -15.4974 -15.4448
   -15.4201 -15.4044 -15.3988 -15.3652 -15.3578 -15.3568 -15.3416 -15.3229
   -15.2955 -15.2863 -15.2763 -15.2666 -15.2559 -15.2432 -15.2334 -15.2225
   -15.2100 -15.1965 -15.1949 -15.1764 -15.1712 -15.1505 -15.1485 -15.1338
   -15.1261 -15.1085 -15.0919 -15.0839 -15.0592 -15.0456 -15.0343 -14.9685
   -14.9504 -14.9438 -14.8848 -14.8844 -14.8114 -14.7845  -7.6522  -7.6138
    -7.5546  -7.5207  -7.5127  -7.4524  -7.3901  -7.3481  -7.2759  -7.1215
    -7.0918  -7.0403  -7.0268  -7.0175  -6.9705  -6.9650  -6.9041  -6.8956
    -6.8574  -6.8315  -6.8106  -6.7642  -6.7296  -6.7156  -6.6853  -6.6613
    -6.6533  -6.6313  -6.6175  -6.5938  -6.5586  -6.5505  -6.5225  -6.4921
    -6.4889  -6.4658  -6.4565  -6.4299  -6.4256  -6.3865  -6.3349  -6.3213
    -6.3127  -6.2694  -6.2508  -6.2274  -6.1960  -6.1932  -6.1662  -6.1513
    -6.1303  -6.1103  -6.0958  -6.0796  -6.0439  -6.0282  -5.9755  -5.9620
    -5.9419  -5.8973  -5.8541  -5.8028  -5.8012  -5.6634  -5.6552  -5.6327
    -5.6244  -5.6068  -5.5827  -5.5724  -5.5496  -5.5336  -5.5159  -5.5051
    -5.4800  -5.4674  -5.4523  -5.4242  -5.4163  -5.3759  -5.3518  -5.3215
    -5.2994  -5.2846  -5.2457  -5.2383  -5.2230  -5.2136  -5.1888  -5.1685
    -5.1531  -5.1271  -5.1194  -5.0962  -5.0819  -5.0790  -5.0588  -5.0310
    -5.0066  -4.9545  -4.9366  -4.9322  -4.9221  -4.8895  -4.8746  -4.8594
    -4.8418  -4.8248  -4.8152  -4.7920  -4.7027  -4.6871  -4.6724  -4.6710
    -4.6428  -4.6244  -4.5889  -4.5748  -4.5628  -4.5412  -4.4965  -4.4941
    -4.4855  -4.4686  -4.4455  -4.4435  -4.4247  -4.4096  -4.3946  -4.3436
    -4.3237  -4.3056  -4.2966  -4.2836  -4.2647  -4.2498  -4.2346  -4.2130
    -4.1742  -4.1587  -4.1527  -4.1259  -4.1058  -4.0883  -4.0830  -4.0607
    -4.0587  -4.0330  -4.0075  -3.9838  -3.9605  -3.9526  -3.9476  -3.9091
    -3.9020  -3.8664  -3.8338  -3.8103  -3.7741  -3.7676  -3.7052  -3.6397
    -1.5586  -1.5549  -1.5313  -1.5275  -1.5008  -1.4792  -1.4703  -1.4549
    -1.4439  -1.4234  -1.4123  -1.3980  -1.3780  -1.3690  -1.3564  -1.3346
    -1.3204  -1.3094  -1.2859  -1.2800  -1.2710  -1.2523  -1.2521  -1.2413
    -1.2230  -1.2076  -1.1957  -1.1873  -1.1721  -1.1621  -1.1576  -1.1386
    -1.1375  -1.1318  -1.1235  -1.1109  -1.1010  -1.0853  -1.0785  -1.0722
    -1.0654  -1.0492  -1.0404  -1.0356  -1.0274  -1.0214  -1.0097  -1.0041
    -0.9977  -0.9824  -0.9757  -0.9592  -0.9395  -0.9277

     highest occupied, lowest unoccupied level (ev):    -3.3257   -1.5673

!    total energy              =  -24931.24306226 Ry
     total all-electron energy =    -24931.243062 Ry
     estimated scf accuracy    <          8.7E-11 Ry

     The total energy is the sum of the following terms:
     one-electron contribution =  -25177.47192732 Ry
     hartree contribution      =   12523.96506495 Ry
     xc contribution           =    -743.78689727 Ry
     ewald contribution        =    8913.20911809 Ry
     Hubbard energy            =      -0.06466139 Ry
     one-center paw contrib.   =  -20447.09375932 Ry

     total magnetization       =    54.00 Bohr mag/cell
     absolute magnetization    =    65.38 Bohr mag/cell

     convergence has been achieved in  14 iterations

     negative rho (up, down):  1.304E-01 1.474E-01

     Forces acting on atoms (cartesian axes, Ry/au):

     atom    1 type  1   force =    -0.00112019   -0.00196314    0.00011958
     atom    2 type  3   force =    -0.00245877   -0.00777597    0.00226534
     atom    3 type  3   force =    -0.00550906   -0.00601902    0.00226473
     atom    4 type  2   force =     0.00487173   -0.02270150   -0.00065660
     atom    5 type  2   force =    -0.00320356   -0.00555821   -0.00949162
     atom    6 type  2   force =    -0.02210221   -0.00713533   -0.00065807
     atom    7 type  2   force =     0.00731107   -0.02442532   -0.00194414
     atom    8 type  2   force =     0.00247725    0.00427736    0.00889013
     atom    9 type  2   force =    -0.02481057   -0.00588317   -0.00194306
     atom   10 type  3   force =    -0.00176568   -0.00209390    0.00022762
     atom   11 type  3   force =    -0.00562269   -0.00546496    0.00214584
     atom   12 type  2   force =     0.00495111    0.00062637   -0.00970906
     atom   13 type  2   force =    -0.00290115   -0.00482930   -0.00926381
     atom   14 type  2   force =    -0.02182033   -0.00648092   -0.00078117
     atom   15 type  2   force =    -0.00560871    0.00087565    0.00924576
     atom   16 type  2   force =     0.00235918    0.00469203    0.00945663
     atom   17 type  2   force =    -0.02497203   -0.00541868   -0.00195833
     atom   18 type  3   force =    -0.00134540   -0.00139045   -0.00052546
     atom   19 type  3   force =    -0.01444309    0.02876583    0.00308828
     atom   20 type  2   force =     0.00466542    0.00073125   -0.00975810
     atom   21 type  2   force =    -0.00418152    0.00236457   -0.00760066
     atom   22 type  2   force =    -0.01976957   -0.00451508    0.00137754
     atom   23 type  2   force =    -0.00560567    0.00077186    0.00953182
     atom   24 type  2   force =    -0.00279656    0.01174666    0.00748505
     atom   25 type  2   force =    -0.02316216    0.00011997   -0.00335659
     atom   26 type  3   force =    -0.00192058   -0.00759849    0.00214460
     atom   27 type  3   force =    -0.00092810   -0.00266263    0.00022668
     atom   28 type  2   force =     0.00529797   -0.02213294   -0.00078116
     atom   29 type  2   force =    -0.00272332   -0.00491087   -0.00927183
     atom   30 type  2   force =    -0.00193264    0.00459919   -0.00970381
     atom   31 type  2   force =     0.00779426   -0.02433106   -0.00196018
     atom   32 type  2   force =     0.00288453    0.00439117    0.00945258
     atom   33 type  2   force =     0.00355414   -0.00440519    0.00925535
     atom   34 type  3   force =    -0.00120933   -0.00191823    0.00012341
     atom   35 type  2   force =     0.00524457    0.00157170   -0.00950833
     atom   36 type  2   force =    -0.00204680   -0.00434028   -0.00883778
     atom   37 type  2   force =    -0.00171105    0.00531761   -0.00987358
     atom   38 type  2   force =    -0.00490096    0.00136815    0.00893061
     atom   39 type  2   force =     0.00301913    0.00444018    0.00963626
     atom   40 type  2   force =     0.00341146   -0.00395471    0.00928201
     atom   41 type  3   force =    -0.00067490   -0.00121549   -0.00063874
     atom   42 type  3   force =    -0.00990593    0.03240237    0.00109783
     atom   43 type  2   force =     0.00517361    0.00122631   -0.00989896
     atom   44 type  2   force =    -0.00376739    0.00280790   -0.00757566
     atom   45 type  2   force =    -0.00022059    0.00755312   -0.00794270
     atom   46 type  2   force =    -0.00511979    0.00081244    0.00957507
     atom   47 type  2   force =    -0.00238238    0.01193165    0.00802176
     atom   48 type  2   force =     0.00497985    0.00145612    0.00795517
     atom   49 type  3   force =     0.03213078    0.00187455    0.00308775
     atom   50 type  3   force =    -0.00052827   -0.00185992   -0.00052464
     atom   51 type  2   force =     0.00597353   -0.01937502    0.00137895
     atom   52 type  2   force =     0.00414429   -0.00244365   -0.00760155
     atom   53 type  2   force =    -0.00171113    0.00440417   -0.00975867
     atom   54 type  2   force =     0.01168520   -0.01999470   -0.00335700
     atom   55 type  2   force =     0.01157657    0.00344853    0.00748515
     atom   56 type  2   force =     0.00346361   -0.00447192    0.00953192
     atom   57 type  3   force =     0.03300518    0.00762176    0.00109735
     atom   58 type  3   force =    -0.00065315   -0.00115651   -0.00064134
     atom   59 type  2   force =     0.00665057    0.00359295   -0.00794241
     atom   60 type  2   force =     0.00431496   -0.00186052   -0.00757140
     atom   61 type  2   force =    -0.00174414    0.00469530   -0.00955129
     atom   62 type  2   force =    -0.00123303    0.00504870    0.00795537
     atom   63 type  2   force =     0.01151910    0.00388815    0.00803027
     atom   64 type  2   force =     0.00281476   -0.00403931    0.00921430
     atom   65 type  3   force =     0.03345530    0.00836712    0.00038772
     atom   66 type  3   force =    -0.00947676    0.03316712    0.00038830
     atom   67 type  2   force =     0.00634447    0.00364936   -0.00800201
     atom   68 type  2   force =     0.00304565    0.00526530   -0.00612796
     atom   69 type  2   force =    -0.00002259    0.00732765   -0.00799346
     atom   70 type  2   force =    -0.00131414    0.00477526    0.00825964
     atom   71 type  2   force =     0.00641394    0.01110403    0.00583059
     atom   72 type  2   force =     0.00479271    0.00124696    0.00826419

     Total force =     0.137203     Total SCF correction =     0.000015


     Computing stress (Cartesian axis) and pressure


     negative rho (up, down):  1.304E-01 1.474E-01
          total   stress  (Ry/bohr**3)                   (kbar)     P=        1.83
   0.00001231  -0.00000121   0.00000070            1.81       -0.18        0.10
  -0.00000121   0.00001090   0.00000121           -0.18        1.60        0.18
   0.00000070   0.00000121   0.00001409            0.10        0.18        2.07


     Writing all to output data dir ./Cr_-0.2_0/Cr_0_0.save/ :
     XML data file, charge density, pseudopotentials, collected wavefunctions

     init_run     :    206.51s CPU    125.91s WALL (       1 calls)
     electrons    :   3762.34s CPU   2031.26s WALL (       1 calls)
     forces       :   2452.91s CPU   1643.31s WALL (       1 calls)
     stress       :   6102.55s CPU   5044.87s WALL (       1 calls)

     Called by init_run:
     wfcinit      :    187.63s CPU    105.75s WALL (       1 calls)
     potinit      :      3.76s CPU      4.22s WALL (       1 calls)
     hinit0       :      2.57s CPU      2.88s WALL (       1 calls)

     Called by electrons:
     c_bands      :   3246.26s CPU   1722.81s WALL (      15 calls)
     sum_band     :    458.02s CPU    258.23s WALL (      15 calls)
     v_of_rho     :     19.25s CPU     15.86s WALL (      15 calls)
     newd         :     27.19s CPU     26.90s WALL (      15 calls)
     PAW_pot      :      9.82s CPU      6.91s WALL (      15 calls)
     mix_rho      :      2.90s CPU      2.27s WALL (      15 calls)

     Called by c_bands:
     init_us_2    :     25.25s CPU     13.05s WALL (     288 calls)
     init_us_2:cp :     25.24s CPU     13.05s WALL (     288 calls)
     cegterg      :   3215.89s CPU   1704.51s WALL (     120 calls)

     Called by *egterg:
     cdiaghg      :    342.02s CPU    195.09s WALL (     665 calls)
     h_psi        :   1927.32s CPU    993.76s WALL (     681 calls)
     s_psi        :    250.83s CPU    126.73s WALL (     721 calls)
     g_psi        :      6.48s CPU      3.31s WALL (     553 calls)

     Called by h_psi:
     h_psi:calbec :    243.14s CPU    125.40s WALL (     681 calls)
     vloc_psi     :   1440.14s CPU    736.90s WALL (     681 calls)
     add_vuspsi   :    211.20s CPU    106.75s WALL (     681 calls)
     vhpsi        :     27.31s CPU     14.64s WALL (     681 calls)

     General routines
     calbec       :   2441.97s CPU   1263.18s WALL (   57066 calls)
     fft          :     21.44s CPU     21.57s WALL (     415 calls)
     ffts         :      2.39s CPU      2.13s WALL (      60 calls)
     fftw         :   1286.24s CPU    660.58s WALL (  286788 calls)
     interpolate  :      2.88s CPU      2.49s WALL (      30 calls)

     Parallel routines

     Hubbard U routines
     new_ns       :      6.86s CPU      4.83s WALL (      15 calls)
     vhpsi        :     27.31s CPU     14.64s WALL (     681 calls)
     force_hub    :   2420.37s CPU   1624.71s WALL (       1 calls)
                                        0.00s GPU  (       1 calls)
     stres_hub    :   5568.68s CPU   4762.90s WALL (       1 calls)
                                        0.00s GPU  (       1 calls)

     PWSCF        :      3h29m CPU      2h28m WALL


   This run was terminated on:  11:50:25  27Sep2025            

=------------------------------------------------------------------------------=
   JOB DONE.
=------------------------------------------------------------------------------=
