
     Program PWSCF v.7.3 starts on 26Sep2025 at 20: 4:30 

     This program is part of the open-source Quantum ESPRESSO suite
     for quantum simulation of materials; please cite
         "P. Giannozzi et al., J. Phys.:Condens. Matter 21 395502 (2009);
         "P. Giannozzi et al., J. Phys.:Condens. Matter 29 465901 (2017);
         "P. Giannozzi et al., J. Chem. Phys. 152 154105 (2020);
          URL http://www.quantum-espresso.org", 
     in publications or presentations arising from this work. More details at
     http://www.quantum-espresso.org/quote

     Parallel version (MPI & OpenMP), running on     256 processor cores
     Number of MPI processes:               128
     Threads/MPI process:                     2

     MPI processes distributed on     2 nodes
     434766 MiB available memory on the printing compute node when the environment starts

     Reading input from Cr_-0.05_0.in
Warning: card &CELL ignored
Warning: card / ignored
Warning: card &FCP ignored
Warning: card / ignored
Warning: card &RISM ignored
Warning: card / ignored

     Current dimensions of program PWSCF are:
     Max number of different atomic species (ntypx) = 10
     Max number of k-points (npk) =  40000
     Max angular momentum in pseudopotentials (lmaxx) =  4
read_pp_mesh; mismatch in mesh size, discarding the one in header
read_pp_mesh; mismatch in mesh size, discarding the one in header
read_pp_mesh; mismatch in mesh size, discarding the one in header
     file Cr.GGA-PBE-paw.UPF: wavefunction(s)  3S 4S 3P 4P 3D 4D renormalized
     file I.GGA-PBE-paw.UPF: wavefunction(s)  6S 6P renormalized
     file Cr.GGA-PBE-paw.UPF: wavefunction(s)  3S 4S 3P 4P 3D 4D renormalized

     IMPORTANT: XC functional enforced from input :
     Exchange-correlation= PBE
                           (   1   4   3   4   0   0   0)
     Any further DFT definition will be discarded
     Please, verify this is what you really want


     R & G space division:  proc/nbgrp/npool/nimage =     128
     Subspace diagonalization in iterative solution of the eigenvalue problem:
     one sub-group per band group will be used
     ELPA distributed-memory algorithm (size of sub-group:  3*  3 procs)


     Parallelization info
     --------------------
     sticks:   dense  smooth     PW     G-vecs:    dense   smooth      PW
     Min         509     305     78               140391    65241    8388
     Max         510     306     79               140404    65254    8400
     Sum       65263   39121   9985             17971031  8351671 1074593

     Using Slab Decomposition



     bravais-lattice index     =            0
     lattice parameter (alat)  =      39.7293  a.u.
     unit-cell volume          =   72410.5124 (a.u.)^3
     number of atoms/cell      =           72
     number of atomic types    =            3
     number of electrons       =       630.00 (up: 342.00, down: 288.00)
     number of Kohn-Sham states=          342
     kinetic-energy cutoff     =      90.0000  Ry
     charge density cutoff     =     600.0000  Ry
     scf convergence threshold =      1.0E-10
     mixing beta               =       0.3000
     number of iterations used =            8  plain     mixing
     Exchange-correlation= PBE
                           (   1   4   3   4   0   0   0)
     Hubbard projectors: ortho-atomic
     Hubbard parameters of DFT+U (Dudarev formulation) in eV:
     U(Cr1-3d) =  0.0000
     J0(Cr1-3d) =  0.0000
     alpha(Cr1-3d) = -0.0500

     Internal variables: lda_plus_u =T, lda_plus_u_kind = 0

     celldm(1)=  39.729285  celldm(2)=   0.000000  celldm(3)=   0.000000
     celldm(4)=   0.000000  celldm(5)=   0.000000  celldm(6)=   0.000000

     crystal axes: (cart. coord. in units of alat)
               a(1) = (   1.000000   0.000000   0.000000 )  
               a(2) = (  -0.500000   0.866025   0.000000 )  
               a(3) = (   0.000000   0.000000   1.333333 )  

     reciprocal axes: (cart. coord. in units 2 pi/alat)
               b(1) = (  1.000000  0.577350 -0.000000 )  
               b(2) = (  0.000000  1.154701  0.000000 )  
               b(3) = (  0.000000 -0.000000  0.750000 )  


     PseudoPot. # 1 for Cr read from file:
     ./Cr.GGA-PBE-paw.UPF
     MD5 check sum: 389087661106aa6caf57455f2e439c97
     Pseudo is Projector augmented-wave + core cor, Zval = 14.0
     Generated using ATOMPAW code
     Shape of augmentation charge: SINC**2
     Using radial grid of 2342 points,  6 beta functions with: 
                l(1) =   0
                l(2) =   0
                l(3) =   1
                l(4) =   1
                l(5) =   2
                l(6) =   2
     Q(r) pseudized with 0 coefficients 


     PseudoPot. # 2 for I  read from file:
     ./I.GGA-PBE-paw.UPF
     MD5 check sum: 736bb4145856fa7ed29d0984862794a4
     Pseudo is Projector augmented-wave + core cor, Zval =  7.0
     Generated using ATOMPAW code
     Shape of augmentation charge: SINC**2
     Using radial grid of 2342 points,  4 beta functions with: 
                l(1) =   0
                l(2) =   0
                l(3) =   1
                l(4) =   1
     Q(r) pseudized with 0 coefficients 


     PseudoPot. # 3 for Cr read from file:
     ./Cr.GGA-PBE-paw.UPF
     MD5 check sum: 389087661106aa6caf57455f2e439c97
     Pseudo is Projector augmented-wave + core cor, Zval = 14.0
     Generated using ATOMPAW code
     Shape of augmentation charge: SINC**2
     Using radial grid of 2342 points,  6 beta functions with: 
                l(1) =   0
                l(2) =   0
                l(3) =   1
                l(4) =   1
                l(5) =   2
                l(6) =   2
     Q(r) pseudized with 0 coefficients 


     atomic species   valence    mass     pseudopotential
     Cr1              14.00    51.99610     Cr( 1.00)
     I                 7.00   126.90447     I ( 1.00)
     Cr               14.00    51.99610     Cr( 1.00)

     Starting magnetic structure 
     atomic species   magnetization
     Cr1             0.214
     I               0.000
     Cr              0.214

     No symmetry found



   Cartesian axes

     site n.     atom                  positions (alat units)
         1        Cr1    tau(   1) = (   0.3271041   0.3777073   0.4295967  )
         2        Cr     tau(   2) = (   0.1635521   0.0944268   0.4295967  )
         3        Cr     tau(   3) = (   0.0000000   0.1888536   0.4295967  )
         4        I      tau(   4) = (   0.2103614  -0.0000006   0.3558127  )
         5        I      tau(   5) = (   0.0583708   0.1011024   0.3558127  )
         6        I      tau(   6) = (  -0.1051802   0.1821787   0.3558127  )
         7        I      tau(   7) = (   0.1167427  -0.0000005   0.5033806  )
         8        I      tau(   8) = (   0.1051802   0.1821786   0.5033806  )
         9        I      tau(   9) = (  -0.0583709   0.1011024   0.5033806  )
        10        Cr     tau(  10) = (  -0.0000000   0.3777073   0.4295967  )
        11        Cr     tau(  11) = (  -0.1635521   0.4721341   0.4295967  )
        12        I      tau(  12) = (   0.0468094   0.2832798   0.3558127  )
        13        I      tau(  13) = (  -0.1051813   0.3843829   0.3558127  )
        14        I      tau(  14) = (  -0.2687322   0.4654591   0.3558127  )
        15        I      tau(  15) = (  -0.0468094   0.2832799   0.5033806  )
        16        I      tau(  16) = (  -0.0583718   0.4654591   0.5033806  )
        17        I      tau(  17) = (  -0.2219229   0.3843829   0.5033806  )
        18        Cr     tau(  18) = (  -0.1635521   0.6609878   0.4295967  )
        19        Cr     tau(  19) = (  -0.3271041   0.7554146   0.4295967  )
        20        I      tau(  20) = (  -0.1167427   0.5665603   0.3558127  )
        21        I      tau(  21) = (  -0.2687333   0.6676634   0.3558127  )
        22        I      tau(  22) = (  -0.4322843   0.7487396   0.3558127  )
        23        I      tau(  23) = (  -0.2103614   0.5665604   0.5033806  )
        24        I      tau(  24) = (  -0.2219239   0.7487396   0.5033806  )
        25        I      tau(  25) = (  -0.3854750   0.6676633   0.5033806  )
        26        Cr     tau(  26) = (   0.4906562   0.0944268   0.4295967  )
        27        Cr     tau(  27) = (   0.3271041   0.1888536   0.4295967  )
        28        I      tau(  28) = (   0.5374655  -0.0000006   0.3558127  )
        29        I      tau(  29) = (   0.3854749   0.1011024   0.3558127  )
        30        I      tau(  30) = (   0.2219239   0.1821787   0.3558127  )
        31        I      tau(  31) = (   0.4438468  -0.0000005   0.5033806  )
        32        I      tau(  32) = (   0.4322844   0.1821786   0.5033806  )
        33        I      tau(  33) = (   0.2687332   0.1011024   0.5033806  )
        34        Cr     tau(  34) = (   0.1635521   0.4721341   0.4295967  )
        35        I      tau(  35) = (   0.3739135   0.2832798   0.3558127  )
        36        I      tau(  36) = (   0.2219229   0.3843829   0.3558127  )
        37        I      tau(  37) = (   0.0583719   0.4654591   0.3558127  )
        38        I      tau(  38) = (   0.2802947   0.2832799   0.5033806  )
        39        I      tau(  39) = (   0.2687323   0.4654591   0.5033806  )
        40        I      tau(  40) = (   0.1051812   0.3843829   0.5033806  )
        41        Cr     tau(  41) = (   0.1635521   0.6609878   0.4295967  )
        42        Cr     tau(  42) = (   0.0000000   0.7554146   0.4295967  )
        43        I      tau(  43) = (   0.2103614   0.5665603   0.3558127  )
        44        I      tau(  44) = (   0.0583708   0.6676634   0.3558127  )
        45        I      tau(  45) = (  -0.1051802   0.7487396   0.3558127  )
        46        I      tau(  46) = (   0.1167427   0.5665604   0.5033806  )
        47        I      tau(  47) = (   0.1051802   0.7487396   0.5033806  )
        48        I      tau(  48) = (  -0.0583709   0.6676633   0.5033806  )
        49        Cr     tau(  49) = (   0.8177603   0.0944268   0.4295967  )
        50        Cr     tau(  50) = (   0.6542082   0.1888536   0.4295967  )
        51        I      tau(  51) = (   0.8645697  -0.0000006   0.3558127  )
        52        I      tau(  52) = (   0.7125790   0.1011024   0.3558127  )
        53        I      tau(  53) = (   0.5490281   0.1821787   0.3558127  )
        54        I      tau(  54) = (   0.7709509  -0.0000005   0.5033806  )
        55        I      tau(  55) = (   0.7593885   0.1821786   0.5033806  )
        56        I      tau(  56) = (   0.5958374   0.1011024   0.5033806  )
        57        Cr     tau(  57) = (   0.6542082   0.3777073   0.4295967  )
        58        Cr     tau(  58) = (   0.4906562   0.4721341   0.4295967  )
        59        I      tau(  59) = (   0.7010176   0.2832798   0.3558127  )
        60        I      tau(  60) = (   0.5490270   0.3843829   0.3558127  )
        61        I      tau(  61) = (   0.3854760   0.4654591   0.3558127  )
        62        I      tau(  62) = (   0.6073989   0.2832799   0.5033806  )
        63        I      tau(  63) = (   0.5958364   0.4654591   0.5033806  )
        64        I      tau(  64) = (   0.4322853   0.3843829   0.5033806  )
        65        Cr     tau(  65) = (   0.4906562   0.6609878   0.4295967  )
        66        Cr     tau(  66) = (   0.3271041   0.7554146   0.4295967  )
        67        I      tau(  67) = (   0.5374655   0.5665603   0.3558127  )
        68        I      tau(  68) = (   0.3854749   0.6676634   0.3558127  )
        69        I      tau(  69) = (   0.2219239   0.7487396   0.3558127  )
        70        I      tau(  70) = (   0.4438468   0.5665604   0.5033806  )
        71        I      tau(  71) = (   0.4322844   0.7487396   0.5033806  )
        72        I      tau(  72) = (   0.2687332   0.6676633   0.5033806  )

     number of k points=     4
                       cart. coord. in units 2pi/alat
        k(    1) = (   0.0000000   0.0000000   0.0000000), wk =   0.2500000
        k(    2) = (   0.0000000  -0.5773503   0.0000000), wk =   0.2500000
        k(    3) = (   0.5000000  -0.2886751   0.0000000), wk =   0.2500000
        k(    4) = (  -0.5000000  -0.2886751   0.0000000), wk =   0.2500000

     Dense  grid: 17971031 G-vectors     FFT dimensions: ( 320, 320, 432)

     Smooth grid:  8351671 G-vectors     FFT dimensions: ( 240, 240, 320)

     Estimated max dynamical RAM per process >       1.67 GB

     Estimated total dynamical RAM >     213.14 GB

     Atomic positions and unit cell read from directory:
     ./Cr_-0.05_0/Cr_0_0.save/

     Generating pointlists ...
     new r_m :   0.0531 (alat units)  2.1084 (a.u.) for type    1
     new r_m :   0.0531 (alat units)  2.1084 (a.u.) for type    2
     new r_m :   0.0531 (alat units)  2.1084 (a.u.) for type    3

     The initial density is read from file :
     ./Cr_-0.05_0/Cr_0_0.save/charge-density


     negative rho (up, down):  1.304E-01 1.474E-01

     STARTING HUBBARD OCCUPATIONS:

     =================== HUBBARD OCCUPATIONS ===================
     ------------------------ ATOM    1 ------------------------
     Tr[ns(  1)] (up, down, total) =   3.59974  0.76815  4.36789
     Atomic magnetic moment for atom   1 =   2.83159
     SPIN  1
     eigenvalues:
       0.445  0.446  0.901  0.901  0.907
     eigenvectors (columns):
      -0.000  0.000 -0.031 -0.030  0.999
      -0.800  0.188  0.535  0.197  0.022
      -0.188 -0.801  0.197 -0.534 -0.010
       0.556 -0.130  0.770  0.283  0.032
      -0.130 -0.554 -0.284  0.772  0.014
     occupation matrix ns (before diag.):
       0.907  0.000 -0.000  0.000  0.000
       0.000  0.593 -0.000  0.214 -0.000
      -0.000 -0.000  0.594  0.000 -0.213
       0.000  0.214  0.000  0.752  0.000
       0.000 -0.000 -0.213  0.000  0.754
     SPIN  2
     eigenvalues:
       0.078  0.086  0.087  0.258  0.259
     eigenvectors (columns):
      -0.999  0.034 -0.028  0.001 -0.000
      -0.022 -0.542  0.133  0.800 -0.218
       0.011 -0.133 -0.540  0.218  0.802
      -0.033 -0.805  0.197 -0.539  0.146
      -0.016  0.198  0.807  0.146  0.537
     occupation matrix ns (before diag.):
       0.078 -0.000  0.000 -0.000 -0.000
      -0.000  0.204 -0.000 -0.080 -0.000
       0.000 -0.000  0.206 -0.000  0.080
      -0.000 -0.080 -0.000  0.140  0.000
      -0.000 -0.000  0.080  0.000  0.140

     Number of occupied Hubbard levels =    4.3679

     Atomic wfc used for Hubbard projectors are orthogonalized

     Starting wfcs from file
     Checking if some PAW data can be deallocated... 

     total cpu time spent up to now is       97.0 secs

     Self-consistent Calculation

     iteration #  1     ecut=    90.00 Ry     beta= 0.30
     Davidson diagonalization with overlap
     ethr =  1.00E-05,  avg # of iterations =  2.0

     =================== HUBBARD OCCUPATIONS ===================
     ------------------------ ATOM    1 ------------------------
     Tr[ns(  1)] (up, down, total) =   3.60926  0.77888  4.38814
     Atomic magnetic moment for atom   1 =   2.83038
     SPIN  1
     eigenvalues:
       0.449  0.451  0.901  0.901  0.908
     eigenvectors (columns):
      -0.000  0.000 -0.030 -0.030  0.999
      -0.800  0.186  0.533  0.202  0.022
      -0.185 -0.801  0.203 -0.532 -0.010
       0.556 -0.128  0.767  0.291  0.032
      -0.128 -0.555 -0.292  0.768  0.014
     occupation matrix ns (before diag.):
       0.908  0.000 -0.000  0.000  0.000
       0.000  0.596 -0.000  0.212 -0.000
      -0.000 -0.000  0.597  0.000 -0.211
       0.000  0.212  0.000  0.754  0.000
       0.000 -0.000 -0.211  0.000  0.755
     SPIN  2
     eigenvalues:
       0.080  0.087  0.088  0.261  0.262
     eigenvectors (columns):
      -0.999  0.034 -0.028  0.001 -0.000
      -0.022 -0.542  0.133  0.801 -0.217
       0.011 -0.133 -0.540  0.217  0.802
      -0.034 -0.805  0.197 -0.539  0.145
      -0.016  0.198  0.807  0.145  0.537
     occupation matrix ns (before diag.):
       0.080 -0.000  0.000 -0.000 -0.000
      -0.000  0.207 -0.000 -0.081 -0.000
       0.000 -0.000  0.208 -0.000  0.080
      -0.000 -0.081 -0.000  0.142  0.000
      -0.000 -0.000  0.080  0.000  0.142

     Number of occupied Hubbard levels =    4.3881

     Threshold (ethr) on eigenvalues was too large:
     Diagonalizing with lowered threshold

     Davidson diagonalization with overlap
     ethr =  2.88E-08,  avg # of iterations =  3.5

     negative rho (up, down):  1.304E-01 1.474E-01

     total cpu time spent up to now is      275.5 secs

     total energy              =  -24931.19460391 Ry
     estimated scf accuracy    <       0.00022496 Ry

     total magnetization       =    54.00 Bohr mag/cell
     absolute magnetization    =    65.40 Bohr mag/cell

     iteration #  2     ecut=    90.00 Ry     beta= 0.30
     Davidson diagonalization with overlap
     ethr =  3.57E-08,  avg # of iterations =  5.9

     negative rho (up, down):  1.304E-01 1.474E-01

     total cpu time spent up to now is      417.7 secs

     total energy              =  -24931.19462647 Ry
     estimated scf accuracy    <       0.00065652 Ry

     total magnetization       =    54.00 Bohr mag/cell
     absolute magnetization    =    65.39 Bohr mag/cell

     iteration #  3     ecut=    90.00 Ry     beta= 0.30
     Davidson diagonalization with overlap
     ethr =  3.57E-08,  avg # of iterations =  4.9

     negative rho (up, down):  1.304E-01 1.474E-01

     total cpu time spent up to now is      534.8 secs

     total energy              =  -24931.19469344 Ry
     estimated scf accuracy    <       0.00000067 Ry

     total magnetization       =    54.00 Bohr mag/cell
     absolute magnetization    =    65.39 Bohr mag/cell

     iteration #  4     ecut=    90.00 Ry     beta= 0.30
     Davidson diagonalization with overlap
     ethr =  1.07E-10,  avg # of iterations =  6.1

     negative rho (up, down):  1.304E-01 1.474E-01

     total cpu time spent up to now is      704.8 secs

     total energy              =  -24931.19469414 Ry
     estimated scf accuracy    <       0.00000047 Ry

     total magnetization       =    54.00 Bohr mag/cell
     absolute magnetization    =    65.39 Bohr mag/cell

     iteration #  5     ecut=    90.00 Ry     beta= 0.30
     Davidson diagonalization with overlap
     ethr =  7.43E-11,  avg # of iterations =  2.5

     negative rho (up, down):  1.304E-01 1.474E-01

     total cpu time spent up to now is      806.1 secs

     total energy              =  -24931.19469420 Ry
     estimated scf accuracy    <       0.00000016 Ry

     total magnetization       =    54.00 Bohr mag/cell
     absolute magnetization    =    65.39 Bohr mag/cell

     iteration #  6     ecut=    90.00 Ry     beta= 0.30
     Davidson diagonalization with overlap
     ethr =  2.50E-11,  avg # of iterations =  3.9

     negative rho (up, down):  1.304E-01 1.474E-01

     total cpu time spent up to now is      922.3 secs

     total energy              =  -24931.19469422 Ry
     estimated scf accuracy    <       0.00000013 Ry

     total magnetization       =    54.00 Bohr mag/cell
     absolute magnetization    =    65.39 Bohr mag/cell

     iteration #  7     ecut=    90.00 Ry     beta= 0.30
     Davidson diagonalization with overlap
     ethr =  1.99E-11,  avg # of iterations =  2.1

     negative rho (up, down):  1.304E-01 1.474E-01

     total cpu time spent up to now is     1016.2 secs

     total energy              =  -24931.19469422 Ry
     estimated scf accuracy    <       0.00000004 Ry

     total magnetization       =    54.00 Bohr mag/cell
     absolute magnetization    =    65.39 Bohr mag/cell

     iteration #  8     ecut=    90.00 Ry     beta= 0.30
     Davidson diagonalization with overlap
     ethr =  6.20E-12,  avg # of iterations =  4.2

     negative rho (up, down):  1.304E-01 1.474E-01

     total cpu time spent up to now is     1123.0 secs

     total energy              =  -24931.19469423 Ry
     estimated scf accuracy    <          4.6E-09 Ry

     total magnetization       =    54.00 Bohr mag/cell
     absolute magnetization    =    65.39 Bohr mag/cell

     iteration #  9     ecut=    90.00 Ry     beta= 0.30
     Davidson diagonalization with overlap
     ethr =  7.25E-13,  avg # of iterations =  3.6

     negative rho (up, down):  1.304E-01 1.474E-01

     total cpu time spent up to now is     1235.6 secs

     total energy              =  -24931.19469423 Ry
     estimated scf accuracy    <          1.7E-09 Ry

     total magnetization       =    54.00 Bohr mag/cell
     absolute magnetization    =    65.39 Bohr mag/cell

     iteration # 10     ecut=    90.00 Ry     beta= 0.30
     Davidson diagonalization with overlap
     ethr =  2.63E-13,  avg # of iterations =  4.0

     negative rho (up, down):  1.304E-01 1.474E-01

     total cpu time spent up to now is     1351.6 secs

     total energy              =  -24931.19469423 Ry
     estimated scf accuracy    <          1.0E-09 Ry

     total magnetization       =    54.00 Bohr mag/cell
     absolute magnetization    =    65.39 Bohr mag/cell

     iteration # 11     ecut=    90.00 Ry     beta= 0.30
     Davidson diagonalization with overlap
     ethr =  1.61E-13,  avg # of iterations =  4.0

     negative rho (up, down):  1.304E-01 1.474E-01

     total cpu time spent up to now is     1454.0 secs

     total energy              =  -24931.19469423 Ry
     estimated scf accuracy    <          1.2E-10 Ry

     total magnetization       =    54.00 Bohr mag/cell
     absolute magnetization    =    65.39 Bohr mag/cell

     iteration # 12     ecut=    90.00 Ry     beta= 0.30
     Davidson diagonalization with overlap
     ethr =  1.00E-13,  avg # of iterations =  2.2

     negative rho (up, down):  1.304E-01 1.474E-01

     Magnetic moment per site  (integrated on atomic sphere of radius R)
     atom   1 (R=0.053)  charge= 12.4160  magn=  2.9203
     atom   2 (R=0.053)  charge= 12.4086  magn=  2.9136
     atom   3 (R=0.053)  charge= 12.4086  magn=  2.9136
     atom   4 (R=0.053)  charge=  4.0328  magn= -0.0666
     atom   5 (R=0.053)  charge=  4.0497  magn= -0.0522
     atom   6 (R=0.053)  charge=  4.0328  magn= -0.0666
     atom   7 (R=0.053)  charge=  4.0248  magn= -0.0723
     atom   8 (R=0.053)  charge=  4.0502  magn= -0.0558
     atom   9 (R=0.053)  charge=  4.0248  magn= -0.0723
     atom  10 (R=0.053)  charge= 12.4124  magn=  2.9203
     atom  11 (R=0.053)  charge= 12.4091  magn=  2.9162
     atom  12 (R=0.053)  charge=  4.0513  magn= -0.0516
     atom  13 (R=0.053)  charge=  4.0498  magn= -0.0517
     atom  14 (R=0.053)  charge=  4.0336  magn= -0.0637
     atom  15 (R=0.053)  charge=  4.0500  magn= -0.0523
     atom  16 (R=0.053)  charge=  4.0513  magn= -0.0523
     atom  17 (R=0.053)  charge=  4.0253  magn= -0.0709
     atom  18 (R=0.053)  charge= 12.4122  magn=  2.9227
     atom  19 (R=0.053)  charge= 12.3252  magn=  3.0168
     atom  20 (R=0.053)  charge=  4.0507  magn= -0.0525
     atom  21 (R=0.053)  charge=  4.0444  magn= -0.0604
     atom  22 (R=0.053)  charge=  4.0302  magn= -0.0695
     atom  23 (R=0.053)  charge=  4.0499  magn= -0.0520
     atom  24 (R=0.053)  charge=  4.0486  magn= -0.0515
     atom  25 (R=0.053)  charge=  4.0214  magn= -0.0769
     atom  26 (R=0.053)  charge= 12.4090  magn=  2.9162
     atom  27 (R=0.053)  charge= 12.4124  magn=  2.9203
     atom  28 (R=0.053)  charge=  4.0336  magn= -0.0637
     atom  29 (R=0.053)  charge=  4.0498  magn= -0.0517
     atom  30 (R=0.053)  charge=  4.0513  magn= -0.0516
     atom  31 (R=0.053)  charge=  4.0253  magn= -0.0709
     atom  32 (R=0.053)  charge=  4.0513  magn= -0.0523
     atom  33 (R=0.053)  charge=  4.0499  magn= -0.0523
     atom  34 (R=0.053)  charge= 12.4128  magn=  2.9233
     atom  35 (R=0.053)  charge=  4.0517  magn= -0.0492
     atom  36 (R=0.053)  charge=  4.0497  magn= -0.0508
     atom  37 (R=0.053)  charge=  4.0520  magn= -0.0495
     atom  38 (R=0.053)  charge=  4.0503  magn= -0.0504
     atom  39 (R=0.053)  charge=  4.0522  magn= -0.0484
     atom  40 (R=0.053)  charge=  4.0506  magn= -0.0507
     atom  41 (R=0.053)  charge= 12.4124  magn=  2.9258
     atom  42 (R=0.053)  charge= 12.3292  magn=  3.0258
     atom  43 (R=0.053)  charge=  4.0514  magn= -0.0504
     atom  44 (R=0.053)  charge=  4.0448  magn= -0.0597
     atom  45 (R=0.053)  charge=  4.0486  magn= -0.0544
     atom  46 (R=0.053)  charge=  4.0507  magn= -0.0504
     atom  47 (R=0.053)  charge=  4.0495  magn= -0.0482
     atom  48 (R=0.053)  charge=  4.0467  magn= -0.0568
     atom  49 (R=0.053)  charge= 12.3252  magn=  3.0168
     atom  50 (R=0.053)  charge= 12.4122  magn=  2.9227
     atom  51 (R=0.053)  charge=  4.0302  magn= -0.0695
     atom  52 (R=0.053)  charge=  4.0444  magn= -0.0604
     atom  53 (R=0.053)  charge=  4.0507  magn= -0.0525
     atom  54 (R=0.053)  charge=  4.0214  magn= -0.0769
     atom  55 (R=0.053)  charge=  4.0486  magn= -0.0515
     atom  56 (R=0.053)  charge=  4.0499  magn= -0.0520
     atom  57 (R=0.053)  charge= 12.3291  magn=  3.0259
     atom  58 (R=0.053)  charge= 12.4125  magn=  2.9257
     atom  59 (R=0.053)  charge=  4.0486  magn= -0.0544
     atom  60 (R=0.053)  charge=  4.0448  magn= -0.0597
     atom  61 (R=0.053)  charge=  4.0511  magn= -0.0502
     atom  62 (R=0.053)  charge=  4.0467  magn= -0.0568
     atom  63 (R=0.053)  charge=  4.0495  magn= -0.0482
     atom  64 (R=0.053)  charge=  4.0504  magn= -0.0501
     atom  65 (R=0.053)  charge= 12.3290  magn=  3.0299
     atom  66 (R=0.053)  charge= 12.3290  magn=  3.0298
     atom  67 (R=0.053)  charge=  4.0479  magn= -0.0555
     atom  68 (R=0.053)  charge=  4.0397  magn= -0.0675
     atom  69 (R=0.053)  charge=  4.0479  magn= -0.0555
     atom  70 (R=0.053)  charge=  4.0471  magn= -0.0559
     atom  71 (R=0.053)  charge=  4.0465  magn= -0.0471
     atom  72 (R=0.053)  charge=  4.0471  magn= -0.0559

     total cpu time spent up to now is     1543.8 secs

     End of self-consistent calculation

     =================== HUBBARD OCCUPATIONS ===================
     ------------------------ ATOM    1 ------------------------
     Tr[ns(  1)] (up, down, total) =   3.60272  0.77289  4.37561
     Atomic magnetic moment for atom   1 =   2.82984
     SPIN  1
     eigenvalues:
       0.446  0.448  0.901  0.901  0.907
     eigenvectors (columns):
      -0.000  0.000 -0.031 -0.030  0.999
      -0.800  0.188  0.535  0.196  0.022
      -0.188 -0.801  0.197 -0.534 -0.010
       0.556 -0.130  0.771  0.282  0.032
      -0.130 -0.554 -0.283  0.772  0.014
     occupation matrix ns (before diag.):
       0.907  0.000 -0.000  0.000  0.000
       0.000  0.594 -0.000  0.213 -0.000
      -0.000 -0.000  0.594  0.000 -0.212
       0.000  0.213  0.000  0.753  0.000
       0.000 -0.000 -0.212  0.000  0.754
     SPIN  2
     eigenvalues:
       0.079  0.086  0.088  0.259  0.260
     eigenvectors (columns):
      -0.999  0.034 -0.028  0.001 -0.000
      -0.022 -0.542  0.133  0.800 -0.218
       0.011 -0.133 -0.540  0.218  0.802
      -0.034 -0.805  0.197 -0.539  0.146
      -0.016  0.198  0.807  0.146  0.537
     occupation matrix ns (before diag.):
       0.079 -0.000  0.000 -0.000 -0.000
      -0.000  0.205 -0.000 -0.080 -0.000
       0.000 -0.000  0.207 -0.000  0.080
      -0.000 -0.080 -0.000  0.140  0.000
      -0.000 -0.000  0.080  0.000  0.141

     Number of occupied Hubbard levels =    4.3756

 ------ SPIN UP ------------


          k = 0.0000 0.0000 0.0000 (****** PWs)   bands (ev):

   -76.1371 -76.1370 -76.0609 -76.0609 -76.0126 -76.0124 -75.9808 -75.9808
   -75.9324 -75.9301 -75.9301 -75.8883 -75.8508 -75.8508 -75.8505 -75.8503
   -75.7726 -75.7725 -47.4876 -47.4866 -47.4632 -47.4621 -47.4579 -47.4575
   -47.4085 -47.4085 -47.3881 -47.3881 -47.3823 -47.3823 -47.3520 -47.3518
   -47.3456 -47.3454 -47.3394 -47.3391 -47.3273 -47.3273 -47.3060 -47.3060
   -47.3014 -47.3014 -47.2708 -47.2697 -47.2697 -47.2643 -47.2632 -47.2632
   -47.2616 -47.2560 -47.2560 -47.2281 -47.2217 -47.2190 -47.1889 -47.1889
   -47.1885 -47.1884 -47.1836 -47.1836 -47.1816 -47.1815 -47.1796 -47.1795
   -47.1764 -47.1763 -47.1103 -47.1100 -47.1065 -47.1045 -47.0974 -47.0972
   -16.2041 -16.0675 -16.0165 -15.9902 -15.9549 -15.8950 -15.8619 -15.7101
   -15.6637 -15.6336 -15.6070 -15.4952 -15.4790 -15.4546 -15.4248 -15.4086
   -15.3804 -15.3554 -15.3461 -15.3332 -15.3317 -15.3105 -15.2943 -15.2751
   -15.2696 -15.2476 -15.2383 -15.2360 -15.2035 -15.1894 -15.1760 -15.1717
   -15.1653 -15.1539 -15.1267 -15.1215 -15.1129 -15.1060 -15.0989 -15.0830
   -15.0766 -15.0643 -15.0314 -15.0224 -15.0069 -14.9959 -14.9861 -14.9101
   -14.8808 -14.8794 -14.8184 -14.8159 -14.7421 -14.7136  -7.9478  -7.8748
    -7.8369  -7.7910  -7.7810  -7.7424  -7.6953  -7.4070  -7.3797  -7.3756
    -7.3659  -7.3300  -7.2912  -7.2646  -7.2342  -7.2196  -7.1429  -7.1359
    -6.9821  -6.9467  -6.9419  -6.8983  -6.8809  -6.8589  -6.8497  -6.8417
    -6.8129  -6.8111  -6.7738  -6.7492  -6.7292  -6.7236  -6.7054  -6.6894
    -6.6844  -6.6728  -6.6493  -6.6414  -6.6295  -6.6037  -6.5885  -6.5885
    -6.5649  -6.5398  -6.5058  -6.4950  -6.4737  -6.4680  -6.4314  -6.4051
    -6.3973  -6.3774  -6.3425  -6.3418  -6.3363  -6.2998  -6.2834  -6.2692
    -6.2550  -6.2354  -6.1934  -6.1659  -6.1529  -6.1224  -6.1182  -6.0849
    -6.0537  -6.0297  -6.0247  -5.9891  -5.9881  -5.9844  -5.9749  -5.9378
    -5.9288  -5.9188  -5.8892  -5.8862  -5.8578  -5.8436  -5.8059  -5.7742
    -5.6831  -5.6517  -5.6271  -5.6240  -5.5794  -5.5171  -5.4988  -5.4721
    -5.4603  -5.4297  -5.3869  -5.3647  -5.3484  -5.3206  -5.2888  -5.2666
    -5.2491  -5.2328  -5.2125  -5.1989  -5.1766  -5.1735  -5.1518  -5.1409
    -5.1262  -5.1214  -5.0635  -5.0464  -5.0269  -5.0205  -5.0195  -5.0074
    -4.9902  -4.9799  -4.9523  -4.9469  -4.9293  -4.9130  -4.8755  -4.8672
    -4.8542  -4.8404  -4.8188  -4.7866  -4.7789  -4.7667  -4.7377  -4.7165
    -4.7066  -4.6937  -4.6849  -4.6777  -4.6771  -4.6262  -4.6098  -4.5543
    -4.5385  -4.5156  -4.4869  -4.4475  -4.4432  -4.4330  -4.4010  -4.3959
    -4.3733  -4.3703  -4.3554  -4.3478  -4.3472  -4.3229  -4.3170  -4.2882
    -4.2852  -4.2402  -4.2201  -4.2158  -4.1911  -4.1843  -4.1544  -4.1290
    -4.1062  -4.0840  -4.0809  -4.0515  -4.0137  -4.0107  -4.0026  -3.9850
    -3.9533  -3.9508  -3.9317  -3.9261  -3.9212  -3.9130  -3.8978  -3.8922
    -3.8846  -3.8836  -3.8811  -3.8530  -3.8397  -3.8372  -3.8288  -3.8285
    -3.8184  -3.8161  -3.7930  -3.7854  -3.7677  -3.7652  -3.7494  -3.7292
    -3.7224  -3.7025  -3.6954  -3.6851  -3.6360  -3.6282  -3.6163  -3.6008
    -3.5969  -3.5784  -3.5041  -3.4970  -3.4890  -3.4712  -3.4408  -3.4346
    -3.4183  -3.3961  -3.3516  -3.3490  -3.3402  -3.3255

          k = 0.0000-0.5774 0.0000 (****** PWs)   bands (ev):

   -76.1371 -76.1370 -76.0609 -76.0609 -76.0126 -76.0124 -75.9808 -75.9808
   -75.9324 -75.9301 -75.9301 -75.8883 -75.8508 -75.8508 -75.8505 -75.8503
   -75.7726 -75.7725 -47.4876 -47.4866 -47.4632 -47.4621 -47.4579 -47.4575
   -47.4085 -47.4085 -47.3881 -47.3881 -47.3823 -47.3823 -47.3520 -47.3518
   -47.3456 -47.3454 -47.3394 -47.3391 -47.3273 -47.3273 -47.3060 -47.3060
   -47.3014 -47.3014 -47.2708 -47.2697 -47.2697 -47.2643 -47.2632 -47.2632
   -47.2616 -47.2560 -47.2560 -47.2281 -47.2217 -47.2190 -47.1889 -47.1889
   -47.1885 -47.1884 -47.1836 -47.1836 -47.1816 -47.1815 -47.1796 -47.1795
   -47.1764 -47.1763 -47.1103 -47.1100 -47.1065 -47.1045 -47.0974 -47.0972
   -16.1929 -16.0984 -16.0244 -15.9977 -15.9271 -15.8637 -15.8451 -15.7597
   -15.6899 -15.5927 -15.5686 -15.5202 -15.5161 -15.4634 -15.4510 -15.3950
   -15.3753 -15.3603 -15.3510 -15.3230 -15.3120 -15.3097 -15.2929 -15.2749
   -15.2510 -15.2410 -15.2303 -15.2175 -15.2063 -15.1963 -15.1818 -15.1726
   -15.1607 -15.1487 -15.1425 -15.1261 -15.1223 -15.1030 -15.1026 -15.0840
   -15.0758 -15.0631 -15.0339 -15.0284 -15.0041 -14.9960 -14.9872 -14.9088
   -14.8801 -14.8790 -14.8171 -14.8168 -14.7421 -14.7135  -7.9329  -7.8811
    -7.8185  -7.7820  -7.7666  -7.7046  -7.6418  -7.5971  -7.5258  -7.3741
    -7.3400  -7.2842  -7.2736  -7.2605  -7.2137  -7.1993  -7.1364  -7.1302
    -6.9741  -6.9470  -6.9356  -6.8978  -6.8740  -6.8670  -6.8403  -6.8371
    -6.8224  -6.8077  -6.7838  -6.7644  -6.7349  -6.7294  -6.7252  -6.7058
    -6.6983  -6.6762  -6.6525  -6.6454  -6.6290  -6.5976  -6.5637  -6.5492
    -6.5270  -6.5135  -6.4895  -6.4851  -6.4588  -6.4430  -6.4267  -6.4139
    -6.3998  -6.3902  -6.3817  -6.3335  -6.3224  -6.2930  -6.2802  -6.2700
    -6.2492  -6.2241  -6.1901  -6.1846  -6.1586  -6.1111  -6.0839  -6.0757
    -6.0614  -6.0427  -6.0216  -6.0028  -5.9828  -5.9810  -5.9602  -5.9192
    -5.9088  -5.8970  -5.8627  -5.8446  -5.8246  -5.8008  -5.7775  -5.7187
    -5.6494  -5.6213  -5.5989  -5.5935  -5.5743  -5.5536  -5.5333  -5.5257
    -5.5081  -5.4920  -5.4696  -5.4474  -5.4380  -5.4088  -5.3888  -5.3651
    -5.3464  -5.3210  -5.3038  -5.2659  -5.2437  -5.2276  -5.2001  -5.1488
    -5.1340  -5.1167  -5.0930  -5.0744  -5.0514  -5.0249  -5.0057  -4.9724
    -4.9512  -4.9165  -4.9053  -4.8941  -4.8763  -4.8529  -4.8128  -4.8021
    -4.7827  -4.7661  -4.7452  -4.7338  -4.7085  -4.6913  -4.6862  -4.6729
    -4.6666  -4.6423  -4.6187  -4.6043  -4.5968  -4.5667  -4.5536  -4.5449
    -4.5345  -4.5244  -4.5076  -4.4907  -4.4703  -4.4475  -4.4422  -4.4347
    -4.4131  -4.4059  -4.3826  -4.3756  -4.3458  -4.3052  -4.2917  -4.2738
    -4.2610  -4.2524  -4.2264  -4.2060  -4.1937  -4.1786  -4.1732  -4.1677
    -4.1593  -4.1469  -4.1188  -4.1122  -4.0846  -4.0629  -4.0415  -4.0037
    -3.9798  -3.9687  -3.9502  -3.9315  -3.9226  -3.9087  -3.8948  -3.8838
    -3.8815  -3.8693  -3.8555  -3.8537  -3.8457  -3.8372  -3.8320  -3.8183
    -3.8111  -3.7902  -3.7857  -3.7784  -3.7693  -3.7518  -3.7265  -3.7124
    -3.6897  -3.6825  -3.6611  -3.6457  -3.6370  -3.6295  -3.6164  -3.6039
    -3.5990  -3.5802  -3.5705  -3.5326  -3.4765  -3.4658  -3.4246  -3.4226
    -3.4104  -3.3962  -3.3712  -3.3518  -3.3431  -3.3292

          k = 0.5000-0.2887 0.0000 (****** PWs)   bands (ev):

   -76.1371 -76.1370 -76.0609 -76.0609 -76.0126 -76.0124 -75.9808 -75.9808
   -75.9324 -75.9301 -75.9301 -75.8883 -75.8508 -75.8508 -75.8505 -75.8503
   -75.7726 -75.7725 -47.4876 -47.4866 -47.4632 -47.4621 -47.4579 -47.4575
   -47.4085 -47.4085 -47.3881 -47.3881 -47.3823 -47.3823 -47.3520 -47.3518
   -47.3456 -47.3454 -47.3394 -47.3391 -47.3273 -47.3273 -47.3060 -47.3060
   -47.3014 -47.3014 -47.2708 -47.2697 -47.2697 -47.2643 -47.2632 -47.2632
   -47.2616 -47.2560 -47.2560 -47.2281 -47.2217 -47.2190 -47.1889 -47.1889
   -47.1885 -47.1884 -47.1836 -47.1836 -47.1816 -47.1815 -47.1796 -47.1795
   -47.1764 -47.1763 -47.1103 -47.1100 -47.1065 -47.1045 -47.0974 -47.0972
   -16.1865 -16.1184 -16.0219 -15.9705 -15.9336 -15.8680 -15.8513 -15.7684
   -15.6569 -15.6291 -15.5554 -15.5247 -15.5193 -15.4710 -15.4490 -15.3966
   -15.3640 -15.3545 -15.3495 -15.3123 -15.3083 -15.3000 -15.2966 -15.2773
   -15.2513 -15.2480 -15.2276 -15.2208 -15.2176 -15.2027 -15.1952 -15.1644
   -15.1627 -15.1444 -15.1390 -15.1260 -15.1223 -15.1047 -15.1033 -15.0773
   -15.0747 -15.0688 -15.0309 -15.0300 -15.0028 -14.9981 -14.9850 -14.9074
   -14.8803 -14.8797 -14.8184 -14.8155 -14.7422 -14.7134  -7.9266  -7.8936
    -7.7954  -7.7919  -7.7451  -7.7056  -7.6978  -7.5590  -7.5436  -7.3750
    -7.3320  -7.2918  -7.2487  -7.2442  -7.2253  -7.2195  -7.1424  -7.1248
    -6.9712  -6.9451  -6.9406  -6.8954  -6.8790  -6.8716  -6.8464  -6.8341
    -6.8266  -6.8129  -6.8025  -6.7676  -6.7650  -6.7537  -6.7108  -6.6984
    -6.6703  -6.6679  -6.6234  -6.6212  -6.6016  -6.5889  -6.5622  -6.5230
    -6.5205  -6.5077  -6.5020  -6.5018  -6.4711  -6.4546  -6.4333  -6.4083
    -6.3924  -6.3762  -6.3732  -6.3603  -6.3101  -6.3078  -6.2886  -6.2811
    -6.2671  -6.2485  -6.1952  -6.1884  -6.1259  -6.1166  -6.0798  -6.0666
    -6.0403  -6.0369  -6.0224  -5.9995  -5.9954  -5.9690  -5.9470  -5.9157
    -5.9126  -5.8991  -5.8987  -5.8726  -5.8630  -5.8430  -5.7932  -5.6728
    -5.6481  -5.6106  -5.5759  -5.5558  -5.5484  -5.5269  -5.5259  -5.5095
    -5.5069  -5.4903  -5.4791  -5.4657  -5.4485  -5.4337  -5.3952  -5.3793
    -5.3652  -5.3468  -5.3315  -5.2651  -5.2282  -5.2022  -5.1828  -5.1564
    -5.1267  -5.0846  -5.0806  -5.0637  -5.0481  -5.0248  -5.0017  -4.9969
    -4.9449  -4.9389  -4.9142  -4.8755  -4.8737  -4.8388  -4.8121  -4.8003
    -4.7869  -4.7794  -4.7353  -4.7351  -4.7177  -4.7042  -4.6866  -4.6673
    -4.6637  -4.6302  -4.6296  -4.6046  -4.5958  -4.5813  -4.5680  -4.5628
    -4.5476  -4.5092  -4.4727  -4.4711  -4.4590  -4.4588  -4.4400  -4.4282
    -4.4226  -4.4067  -4.4051  -4.3894  -4.3618  -4.2930  -4.2853  -4.2747
    -4.2660  -4.2339  -4.2208  -4.2127  -4.1999  -4.1852  -4.1739  -4.1603
    -4.1504  -4.1356  -4.1281  -4.0959  -4.0808  -4.0784  -4.0257  -4.0102
    -3.9913  -3.9691  -3.9405  -3.9313  -3.9129  -3.9122  -3.9067  -3.8928
    -3.8827  -3.8797  -3.8679  -3.8610  -3.8494  -3.8353  -3.8256  -3.8236
    -3.8063  -3.7976  -3.7898  -3.7719  -3.7641  -3.7395  -3.7261  -3.7092
    -3.6912  -3.6907  -3.6664  -3.6512  -3.6300  -3.6252  -3.6226  -3.6117
    -3.5755  -3.5750  -3.5556  -3.5308  -3.4973  -3.4500  -3.4487  -3.4248
    -3.4216  -3.3862  -3.3598  -3.3577  -3.3346  -3.3260

          k =-0.5000-0.2887 0.0000 (****** PWs)   bands (ev):

   -76.1371 -76.1370 -76.0609 -76.0609 -76.0126 -76.0124 -75.9808 -75.9808
   -75.9324 -75.9301 -75.9301 -75.8883 -75.8508 -75.8508 -75.8505 -75.8503
   -75.7726 -75.7725 -47.4876 -47.4866 -47.4632 -47.4621 -47.4579 -47.4575
   -47.4085 -47.4085 -47.3881 -47.3881 -47.3823 -47.3823 -47.3520 -47.3518
   -47.3456 -47.3454 -47.3394 -47.3391 -47.3273 -47.3273 -47.3060 -47.3060
   -47.3014 -47.3014 -47.2708 -47.2697 -47.2697 -47.2643 -47.2632 -47.2632
   -47.2616 -47.2560 -47.2560 -47.2281 -47.2217 -47.2190 -47.1889 -47.1889
   -47.1885 -47.1884 -47.1836 -47.1836 -47.1816 -47.1815 -47.1796 -47.1795
   -47.1764 -47.1763 -47.1103 -47.1100 -47.1065 -47.1045 -47.0974 -47.0972
   -16.1929 -16.0985 -16.0243 -15.9976 -15.9273 -15.8638 -15.8450 -15.7596
   -15.6899 -15.5928 -15.5686 -15.5201 -15.5161 -15.4635 -15.4510 -15.3950
   -15.3754 -15.3603 -15.3509 -15.3231 -15.3119 -15.3097 -15.2930 -15.2749
   -15.2512 -15.2410 -15.2303 -15.2175 -15.2063 -15.1963 -15.1818 -15.1726
   -15.1607 -15.1485 -15.1425 -15.1261 -15.1224 -15.1030 -15.1026 -15.0839
   -15.0757 -15.0632 -15.0340 -15.0284 -15.0041 -14.9960 -14.9872 -14.9088
   -14.8801 -14.8790 -14.8171 -14.8168 -14.7421 -14.7135  -7.9329  -7.8814
    -7.8177  -7.7824  -7.7665  -7.7048  -7.6421  -7.5970  -7.5256  -7.3737
    -7.3400  -7.2846  -7.2737  -7.2604  -7.2137  -7.1994  -7.1364  -7.1301
    -6.9742  -6.9472  -6.9353  -6.8974  -6.8745  -6.8668  -6.8408  -6.8372
    -6.8222  -6.8074  -6.7839  -6.7644  -6.7348  -6.7294  -6.7252  -6.7058
    -6.6982  -6.6763  -6.6524  -6.6452  -6.6292  -6.5977  -6.5637  -6.5493
    -6.5275  -6.5133  -6.4900  -6.4847  -6.4583  -6.4430  -6.4265  -6.4141
    -6.3998  -6.3902  -6.3815  -6.3334  -6.3223  -6.2932  -6.2801  -6.2699
    -6.2494  -6.2242  -6.1900  -6.1848  -6.1585  -6.1106  -6.0838  -6.0763
    -6.0623  -6.0427  -6.0217  -6.0027  -5.9825  -5.9805  -5.9600  -5.9193
    -5.9088  -5.8971  -5.8627  -5.8445  -5.8247  -5.8007  -5.7774  -5.7189
    -5.6495  -5.6212  -5.5985  -5.5938  -5.5740  -5.5534  -5.5337  -5.5257
    -5.5082  -5.4922  -5.4696  -5.4475  -5.4379  -5.4088  -5.3889  -5.3650
    -5.3464  -5.3208  -5.3037  -5.2656  -5.2436  -5.2280  -5.2000  -5.1489
    -5.1336  -5.1166  -5.0931  -5.0746  -5.0515  -5.0252  -5.0056  -4.9724
    -4.9510  -4.9166  -4.9051  -4.8940  -4.8764  -4.8533  -4.8128  -4.8020
    -4.7831  -4.7659  -4.7451  -4.7339  -4.7086  -4.6915  -4.6860  -4.6725
    -4.6663  -4.6421  -4.6189  -4.6042  -4.5968  -4.5666  -4.5535  -4.5451
    -4.5343  -4.5243  -4.5073  -4.4908  -4.4704  -4.4471  -4.4421  -4.4350
    -4.4135  -4.4062  -4.3828  -4.3753  -4.3461  -4.3052  -4.2917  -4.2733
    -4.2611  -4.2522  -4.2266  -4.2061  -4.1937  -4.1785  -4.1732  -4.1678
    -4.1593  -4.1467  -4.1188  -4.1122  -4.0850  -4.0628  -4.0414  -4.0038
    -3.9799  -3.9690  -3.9500  -3.9313  -3.9226  -3.9088  -3.8945  -3.8841
    -3.8813  -3.8693  -3.8557  -3.8538  -3.8457  -3.8372  -3.8319  -3.8179
    -3.8112  -3.7903  -3.7857  -3.7785  -3.7694  -3.7517  -3.7264  -3.7124
    -3.6899  -3.6825  -3.6611  -3.6456  -3.6370  -3.6294  -3.6164  -3.6039
    -3.5990  -3.5803  -3.5705  -3.5325  -3.4765  -3.4658  -3.4247  -3.4226
    -3.4103  -3.3962  -3.3712  -3.3518  -3.3431  -3.3292

 ------ SPIN DOWN ----------


          k = 0.0000 0.0000 0.0000 (****** PWs)   bands (ev):

   -72.9791 -72.9790 -72.9723 -72.9721 -72.9068 -72.9068 -72.8946 -72.8929
   -72.8929 -72.8542 -72.8343 -72.8343 -72.8186 -72.8186 -72.8157 -72.8155
   -72.7429 -72.7429 -44.3883 -44.3871 -44.3782 -44.3780 -44.3622 -44.3605
   -44.3476 -44.3474 -44.3347 -44.3344 -44.3319 -44.3316 -44.3122 -44.3122
   -44.2998 -44.2983 -44.2982 -44.2841 -44.2840 -44.2693 -44.2693 -44.2673
   -44.2673 -44.2653 -44.2621 -44.2608 -44.2543 -44.2543 -44.2348 -44.2348
   -44.2264 -44.2231 -44.2202 -44.2201 -44.2189 -44.2189 -44.2123 -44.2123
   -44.1955 -44.1955 -44.1931 -44.1931 -44.1867 -44.1865 -44.1837 -44.1837
   -44.1828 -44.1827 -44.1429 -44.1424 -44.1181 -44.1161 -44.1084 -44.1077
   -16.2122 -16.0793 -16.0318 -16.0028 -15.9702 -15.9094 -15.8815 -15.7343
   -15.6899 -15.6626 -15.6384 -15.5370 -15.5156 -15.5034 -15.4618 -15.4506
   -15.4285 -15.4035 -15.3929 -15.3744 -15.3732 -15.3583 -15.3432 -15.3210
   -15.3178 -15.2954 -15.2871 -15.2850 -15.2518 -15.2365 -15.2266 -15.2206
   -15.2132 -15.2021 -15.1749 -15.1744 -15.1635 -15.1507 -15.1450 -15.1332
   -15.1279 -15.1094 -15.0897 -15.0742 -15.0628 -15.0439 -15.0353 -14.9691
   -14.9509 -14.9447 -14.8863 -14.8833 -14.8112 -14.7844  -7.6635  -7.6174
    -7.5756  -7.5330  -7.5259  -7.4863  -7.4405  -7.1619  -7.1314  -7.1304
    -7.1177  -7.0826  -7.0439  -7.0188  -6.9957  -6.9769  -6.9053  -6.9026
    -6.8572  -6.8494  -6.8120  -6.7785  -6.7582  -6.7255  -6.6712  -6.6428
    -6.6290  -6.6094  -6.6002  -6.5553  -6.5458  -6.5452  -6.5272  -6.5245
    -6.4730  -6.4657  -6.4504  -6.4216  -6.4159  -6.4043  -6.3770  -6.3507
    -6.3432  -6.2984  -6.2964  -6.2933  -6.2535  -6.1860  -6.1476  -6.1357
    -6.1302  -6.0565  -6.0445  -6.0241  -6.0007  -5.9937  -5.9457  -5.9369
    -5.9350  -5.9272  -5.8850  -5.8797  -5.8555  -5.8116  -5.7946  -5.6192
    -5.6049  -5.5932  -5.5776  -5.5689  -5.5500  -5.5485  -5.5309  -5.5034
    -5.4987  -5.4970  -5.4845  -5.4538  -5.4000  -5.3974  -5.3846  -5.3628
    -5.3079  -5.2768  -5.2257  -5.2102  -5.1870  -5.1453  -5.1064  -5.1055
    -5.0955  -5.0612  -5.0250  -5.0175  -4.9819  -4.9786  -4.9656  -4.9587
    -4.9450  -4.9227  -4.9091  -4.8772  -4.8602  -4.8477  -4.8196  -4.8186
    -4.8006  -4.7854  -4.7718  -4.7713  -4.7481  -4.7461  -4.7218  -4.7146
    -4.6932  -4.6765  -4.6762  -4.6325  -4.6308  -4.5719  -4.5614  -4.5539
    -4.5502  -4.5453  -4.4741  -4.4574  -4.4479  -4.4470  -4.4077  -4.3774
    -4.3661  -4.3481  -4.3220  -4.3157  -4.3020  -4.2893  -4.2563  -4.2454
    -4.2337  -4.2193  -4.2093  -4.1720  -4.1105  -4.0732  -4.0686  -4.0561
    -4.0548  -3.9981  -3.9966  -3.9812  -3.9804  -3.9676  -3.9190  -3.8956
    -3.8676  -3.8327  -3.8149  -3.7654  -3.7238  -3.6874  -3.6150  -3.5913
    -1.5497  -1.5417  -1.5131  -1.5066  -1.4869  -1.4802  -1.4614  -1.4576
    -1.4234  -1.4131  -1.4057  -1.4034  -1.3787  -1.3726  -1.3473  -1.3358
    -1.3285  -1.3192  -1.3169  -1.2915  -1.2822  -1.2674  -1.2553  -1.2512
    -1.2446  -1.2271  -1.2062  -1.2024  -1.1920  -1.1695  -1.1402  -1.1220
    -1.1211  -1.1083  -1.1059  -1.0933  -1.0759  -1.0758  -1.0588  -1.0561
    -1.0499  -1.0475  -1.0298  -1.0270  -1.0241  -1.0133  -1.0107  -1.0061
    -0.9900  -0.9838  -0.9726  -0.9655  -0.9518  -0.9286

          k = 0.0000-0.5774 0.0000 (****** PWs)   bands (ev):

   -72.9791 -72.9790 -72.9723 -72.9721 -72.9068 -72.9068 -72.8946 -72.8929
   -72.8929 -72.8542 -72.8343 -72.8343 -72.8186 -72.8186 -72.8157 -72.8155
   -72.7429 -72.7429 -44.3883 -44.3871 -44.3782 -44.3780 -44.3622 -44.3605
   -44.3476 -44.3474 -44.3347 -44.3344 -44.3319 -44.3316 -44.3122 -44.3122
   -44.2998 -44.2983 -44.2982 -44.2841 -44.2840 -44.2693 -44.2693 -44.2673
   -44.2673 -44.2653 -44.2621 -44.2608 -44.2543 -44.2543 -44.2348 -44.2348
   -44.2264 -44.2231 -44.2202 -44.2201 -44.2189 -44.2189 -44.2123 -44.2123
   -44.1955 -44.1955 -44.1931 -44.1931 -44.1867 -44.1865 -44.1837 -44.1837
   -44.1828 -44.1827 -44.1429 -44.1424 -44.1181 -44.1161 -44.1084 -44.1077
   -16.2012 -16.1095 -16.0388 -16.0112 -15.9426 -15.8789 -15.8640 -15.7817
   -15.7185 -15.6245 -15.6028 -15.5558 -15.5495 -15.5024 -15.4975 -15.4448
   -15.4199 -15.4047 -15.3993 -15.3657 -15.3582 -15.3570 -15.3414 -15.3230
   -15.2955 -15.2864 -15.2764 -15.2667 -15.2558 -15.2429 -15.2334 -15.2223
   -15.2101 -15.1964 -15.1949 -15.1760 -15.1709 -15.1501 -15.1478 -15.1337
   -15.1260 -15.1079 -15.0916 -15.0837 -15.0590 -15.0454 -15.0341 -14.9683
   -14.9503 -14.9437 -14.8847 -14.8843 -14.8112 -14.7843  -7.6549  -7.6139
    -7.5570  -7.5202  -7.5129  -7.4523  -7.3898  -7.3482  -7.2762  -7.1238
    -7.0925  -7.0400  -7.0266  -7.0177  -6.9711  -6.9648  -6.9040  -6.8958
    -6.8582  -6.8331  -6.8119  -6.7649  -6.7293  -6.7151  -6.6856  -6.6607
    -6.6533  -6.6325  -6.6170  -6.5942  -6.5586  -6.5502  -6.5223  -6.4915
    -6.4896  -6.4668  -6.4562  -6.4294  -6.4248  -6.3861  -6.3348  -6.3216
    -6.3123  -6.2694  -6.2502  -6.2280  -6.1963  -6.1929  -6.1658  -6.1512
    -6.1303  -6.1102  -6.0956  -6.0796  -6.0440  -6.0272  -5.9750  -5.9618
    -5.9419  -5.8974  -5.8538  -5.8024  -5.8010  -5.6627  -5.6548  -5.6322
    -5.6244  -5.6046  -5.5808  -5.5721  -5.5493  -5.5337  -5.5158  -5.5050
    -5.4798  -5.4671  -5.4510  -5.4241  -5.4162  -5.3758  -5.3518  -5.3214
    -5.2996  -5.2837  -5.2452  -5.2383  -5.2231  -5.2131  -5.1892  -5.1682
    -5.1532  -5.1271  -5.1190  -5.0958  -5.0817  -5.0787  -5.0584  -5.0309
    -5.0066  -4.9543  -4.9365  -4.9318  -4.9221  -4.8895  -4.8745  -4.8599
    -4.8419  -4.8242  -4.8147  -4.7917  -4.7028  -4.6875  -4.6724  -4.6712
    -4.6428  -4.6242  -4.5892  -4.5750  -4.5627  -4.5412  -4.4960  -4.4938
    -4.4855  -4.4687  -4.4452  -4.4436  -4.4244  -4.4093  -4.3943  -4.3437
    -4.3239  -4.3057  -4.2967  -4.2833  -4.2647  -4.2501  -4.2345  -4.2132
    -4.1744  -4.1587  -4.1526  -4.1259  -4.1059  -4.0883  -4.0831  -4.0607
    -4.0588  -4.0331  -4.0073  -3.9838  -3.9605  -3.9524  -3.9474  -3.9089
    -3.9021  -3.8663  -3.8336  -3.8102  -3.7740  -3.7674  -3.7058  -3.6395
    -1.5561  -1.5524  -1.5280  -1.5172  -1.4952  -1.4773  -1.4694  -1.4534
    -1.4410  -1.4218  -1.4047  -1.3945  -1.3780  -1.3631  -1.3550  -1.3339
    -1.3181  -1.3065  -1.2847  -1.2798  -1.2678  -1.2535  -1.2515  -1.2369
    -1.2220  -1.2032  -1.1928  -1.1841  -1.1711  -1.1606  -1.1553  -1.1387
    -1.1351  -1.1317  -1.1225  -1.1070  -1.0980  -1.0848  -1.0783  -1.0717
    -1.0616  -1.0489  -1.0385  -1.0327  -1.0272  -1.0213  -1.0082  -1.0021
    -0.9975  -0.9820  -0.9744  -0.9585  -0.9391  -0.9269

          k = 0.5000-0.2887 0.0000 (****** PWs)   bands (ev):

   -72.9791 -72.9790 -72.9723 -72.9721 -72.9068 -72.9068 -72.8946 -72.8929
   -72.8929 -72.8542 -72.8343 -72.8343 -72.8186 -72.8186 -72.8157 -72.8155
   -72.7429 -72.7429 -44.3883 -44.3871 -44.3782 -44.3780 -44.3622 -44.3605
   -44.3476 -44.3474 -44.3347 -44.3344 -44.3319 -44.3316 -44.3122 -44.3122
   -44.2998 -44.2983 -44.2982 -44.2841 -44.2840 -44.2693 -44.2693 -44.2673
   -44.2673 -44.2653 -44.2621 -44.2608 -44.2543 -44.2543 -44.2348 -44.2348
   -44.2264 -44.2231 -44.2202 -44.2201 -44.2189 -44.2189 -44.2123 -44.2123
   -44.1955 -44.1955 -44.1931 -44.1931 -44.1867 -44.1865 -44.1837 -44.1837
   -44.1828 -44.1827 -44.1429 -44.1424 -44.1181 -44.1161 -44.1084 -44.1077
   -16.1950 -16.1290 -16.0360 -15.9851 -15.9488 -15.8859 -15.8655 -15.7917
   -15.6905 -15.6594 -15.5861 -15.5610 -15.5506 -15.5061 -15.4983 -15.4464
   -15.4124 -15.3984 -15.3980 -15.3567 -15.3540 -15.3466 -15.3436 -15.3247
   -15.2984 -15.2939 -15.2740 -15.2685 -15.2678 -15.2498 -15.2457 -15.2158
   -15.2141 -15.1905 -15.1857 -15.1762 -15.1719 -15.1514 -15.1511 -15.1262
   -15.1226 -15.1151 -15.0889 -15.0848 -15.0592 -15.0466 -15.0317 -14.9675
   -14.9510 -14.9437 -14.8863 -14.8828 -14.8113 -14.7842  -7.6504  -7.6216
    -7.5385  -7.5350  -7.4842  -7.4551  -7.4443  -7.3112  -7.2942  -7.1248
    -7.0833  -7.0474  -7.0065  -7.0048  -6.9818  -6.9721  -6.9072  -6.8929
    -6.8485  -6.8364  -6.8217  -6.7547  -6.7261  -6.7101  -6.7038  -6.6849
    -6.6564  -6.6466  -6.6342  -6.5750  -6.5744  -6.5640  -6.5354  -6.4940
    -6.4614  -6.4435  -6.4176  -6.4090  -6.3870  -6.3693  -6.3547  -6.3254
    -6.2975  -6.2928  -6.2740  -6.2298  -6.2249  -6.1909  -6.1590  -6.1495
    -6.1414  -6.1170  -6.0831  -6.0583  -5.9954  -5.9900  -5.9868  -5.9727
    -5.9499  -5.9330  -5.9205  -5.8099  -5.7689  -5.6948  -5.6696  -5.6548
    -5.6282  -5.5905  -5.5615  -5.5603  -5.5559  -5.5297  -5.5033  -5.4865
    -5.4847  -5.4716  -5.4656  -5.4373  -5.4091  -5.4056  -5.3689  -5.2983
    -5.2893  -5.2638  -5.2481  -5.2229  -5.2189  -5.2037  -5.1828  -5.1772
    -5.1558  -5.1419  -5.1286  -5.0992  -5.0728  -5.0715  -5.0348  -5.0233
    -5.0064  -4.9663  -4.9564  -4.9356  -4.9163  -4.9100  -4.8594  -4.8465
    -4.8350  -4.8190  -4.8190  -4.7017  -4.7016  -4.6961  -4.6764  -4.6604
    -4.6519  -4.6377  -4.6214  -4.6067  -4.5628  -4.5378  -4.5183  -4.5176
    -4.4982  -4.4532  -4.4304  -4.4255  -4.4035  -4.3901  -4.3738  -4.3469
    -4.3330  -4.3191  -4.2882  -4.2836  -4.2718  -4.2415  -4.2391  -4.2339
    -4.2114  -4.1883  -4.1568  -4.1191  -4.0961  -4.0833  -4.0732  -4.0448
    -4.0359  -4.0344  -4.0235  -3.9890  -3.9602  -3.9533  -3.9477  -3.9258
    -3.9076  -3.8395  -3.8395  -3.8283  -3.8161  -3.6941  -3.6883  -3.6635
    -1.5659  -1.5568  -1.5257  -1.5119  -1.4972  -1.4898  -1.4707  -1.4457
    -1.4343  -1.4205  -1.3996  -1.3966  -1.3825  -1.3608  -1.3526  -1.3351
    -1.3064  -1.2960  -1.2859  -1.2732  -1.2633  -1.2474  -1.2459  -1.2336
    -1.2302  -1.2116  -1.1966  -1.1905  -1.1714  -1.1680  -1.1577  -1.1479
    -1.1364  -1.1171  -1.1133  -1.1064  -1.1006  -1.0887  -1.0860  -1.0836
    -1.0767  -1.0515  -1.0384  -1.0258  -1.0248  -1.0217  -1.0185  -1.0031
    -0.9969  -0.9767  -0.9693  -0.9655  -0.9361  -0.9130

          k =-0.5000-0.2887 0.0000 (****** PWs)   bands (ev):

   -72.9791 -72.9790 -72.9723 -72.9721 -72.9068 -72.9068 -72.8946 -72.8929
   -72.8929 -72.8542 -72.8343 -72.8343 -72.8186 -72.8186 -72.8157 -72.8155
   -72.7429 -72.7429 -44.3883 -44.3871 -44.3782 -44.3780 -44.3622 -44.3605
   -44.3476 -44.3474 -44.3347 -44.3344 -44.3319 -44.3316 -44.3122 -44.3122
   -44.2998 -44.2983 -44.2982 -44.2841 -44.2840 -44.2693 -44.2693 -44.2673
   -44.2673 -44.2653 -44.2621 -44.2608 -44.2543 -44.2543 -44.2348 -44.2348
   -44.2264 -44.2231 -44.2202 -44.2201 -44.2189 -44.2189 -44.2123 -44.2123
   -44.1955 -44.1955 -44.1931 -44.1931 -44.1867 -44.1865 -44.1837 -44.1837
   -44.1828 -44.1827 -44.1429 -44.1424 -44.1181 -44.1161 -44.1084 -44.1077
   -16.2012 -16.1096 -16.0387 -16.0111 -15.9427 -15.8790 -15.8640 -15.7816
   -15.7185 -15.6246 -15.6028 -15.5557 -15.5495 -15.5024 -15.4976 -15.4448
   -15.4200 -15.4046 -15.3992 -15.3657 -15.3581 -15.3570 -15.3415 -15.3229
   -15.2957 -15.2865 -15.2764 -15.2666 -15.2559 -15.2430 -15.2334 -15.2223
   -15.2101 -15.1964 -15.1949 -15.1760 -15.1709 -15.1501 -15.1478 -15.1337
   -15.1260 -15.1079 -15.0917 -15.0837 -15.0590 -15.0454 -15.0341 -14.9683
   -14.9503 -14.9437 -14.8847 -14.8843 -14.8112 -14.7843  -7.6549  -7.6140
    -7.5564  -7.5205  -7.5128  -7.4526  -7.3899  -7.3481  -7.2761  -7.1236
    -7.0924  -7.0403  -7.0268  -7.0176  -6.9709  -6.9649  -6.9041  -6.8958
    -6.8582  -6.8331  -6.8120  -6.7647  -6.7295  -6.7153  -6.6855  -6.6609
    -6.6534  -6.6321  -6.6171  -6.5940  -6.5587  -6.5503  -6.5223  -6.4916
    -6.4893  -6.4666  -6.4562  -6.4295  -6.4252  -6.3862  -6.3348  -6.3214
    -6.3125  -6.2694  -6.2504  -6.2277  -6.1963  -6.1929  -6.1658  -6.1512
    -6.1302  -6.1102  -6.0956  -6.0794  -6.0440  -6.0274  -5.9751  -5.9619
    -5.9418  -5.8974  -5.8538  -5.8023  -5.8010  -5.6629  -5.6547  -5.6321
    -5.6243  -5.6051  -5.5812  -5.5721  -5.5492  -5.5336  -5.5154  -5.5046
    -5.4797  -5.4672  -5.4512  -5.4241  -5.4161  -5.3758  -5.3517  -5.3215
    -5.2996  -5.2839  -5.2453  -5.2382  -5.2229  -5.2132  -5.1890  -5.1683
    -5.1531  -5.1271  -5.1191  -5.0958  -5.0817  -5.0788  -5.0584  -5.0309
    -5.0066  -4.9544  -4.9365  -4.9318  -4.9221  -4.8895  -4.8745  -4.8598
    -4.8418  -4.8243  -4.8148  -4.7918  -4.7028  -4.6874  -4.6724  -4.6711
    -4.6428  -4.6243  -4.5892  -4.5749  -4.5627  -4.5412  -4.4962  -4.4939
    -4.4856  -4.4686  -4.4453  -4.4435  -4.4245  -4.4094  -4.3943  -4.3436
    -4.3238  -4.3056  -4.2966  -4.2834  -4.2647  -4.2500  -4.2345  -4.2132
    -4.1743  -4.1587  -4.1527  -4.1259  -4.1058  -4.0883  -4.0832  -4.0607
    -4.0588  -4.0331  -4.0073  -3.9838  -3.9606  -3.9525  -3.9474  -3.9089
    -3.9020  -3.8663  -3.8337  -3.8102  -3.7741  -3.7675  -3.7057  -3.6395
    -1.5557  -1.5531  -1.5274  -1.5184  -1.4956  -1.4754  -1.4688  -1.4533
    -1.4412  -1.4217  -1.4060  -1.3943  -1.3777  -1.3642  -1.3549  -1.3334
    -1.3185  -1.3072  -1.2849  -1.2793  -1.2681  -1.2520  -1.2508  -1.2375
    -1.2221  -1.2041  -1.1930  -1.1841  -1.1710  -1.1608  -1.1540  -1.1382
    -1.1353  -1.1313  -1.1227  -1.1073  -1.0985  -1.0845  -1.0782  -1.0715
    -1.0623  -1.0487  -1.0386  -1.0330  -1.0271  -1.0211  -1.0082  -1.0024
    -0.9975  -0.9820  -0.9745  -0.9583  -0.9390  -0.9270

     highest occupied, lowest unoccupied level (ev):    -3.3255   -1.5659

!    total energy              =  -24931.19469423 Ry
     total all-electron energy =    -24931.194694 Ry
     estimated scf accuracy    <          4.0E-11 Ry

     The total energy is the sum of the following terms:
     one-electron contribution =  -25177.35905424 Ry
     hartree contribution      =   12523.86046662 Ry
     xc contribution           =    -743.78341070 Ry
     ewald contribution        =    8913.20911809 Ry
     Hubbard energy            =      -0.01608008 Ry
     one-center paw contrib.   =  -20447.10573392 Ry

     total magnetization       =    54.00 Bohr mag/cell
     absolute magnetization    =    65.39 Bohr mag/cell

     convergence has been achieved in  12 iterations

     negative rho (up, down):  1.304E-01 1.474E-01

     Forces acting on atoms (cartesian axes, Ry/au):

     atom    1 type  1   force =    -0.00112276   -0.00196935    0.00012016
     atom    2 type  3   force =    -0.00245968   -0.00777668    0.00226505
     atom    3 type  3   force =    -0.00550662   -0.00601893    0.00226520
     atom    4 type  2   force =     0.00487125   -0.02270352   -0.00065670
     atom    5 type  2   force =    -0.00320442   -0.00555886   -0.00949201
     atom    6 type  2   force =    -0.02210328   -0.00713587   -0.00065807
     atom    7 type  2   force =     0.00731165   -0.02442488   -0.00194468
     atom    8 type  2   force =     0.00247360    0.00427533    0.00888908
     atom    9 type  2   force =    -0.02481157   -0.00588349   -0.00194328
     atom   10 type  3   force =    -0.00176843   -0.00209578    0.00022871
     atom   11 type  3   force =    -0.00562219   -0.00546386    0.00214608
     atom   12 type  2   force =     0.00494767    0.00062524   -0.00970834
     atom   13 type  2   force =    -0.00289950   -0.00482906   -0.00926312
     atom   14 type  2   force =    -0.02182081   -0.00648085   -0.00078140
     atom   15 type  2   force =    -0.00560957    0.00087633    0.00924570
     atom   16 type  2   force =     0.00235787    0.00469239    0.00945634
     atom   17 type  2   force =    -0.02497365   -0.00541900   -0.00195917
     atom   18 type  3   force =    -0.00134557   -0.00139005   -0.00052507
     atom   19 type  3   force =    -0.01444204    0.02876683    0.00308867
     atom   20 type  2   force =     0.00466534    0.00073105   -0.00975794
     atom   21 type  2   force =    -0.00418143    0.00236438   -0.00760096
     atom   22 type  2   force =    -0.01977113   -0.00451642    0.00137796
     atom   23 type  2   force =    -0.00560579    0.00077170    0.00953171
     atom   24 type  2   force =    -0.00279662    0.01174678    0.00748459
     atom   25 type  2   force =    -0.02316255    0.00011950   -0.00335645
     atom   26 type  3   force =    -0.00192112   -0.00760001    0.00214564
     atom   27 type  3   force =    -0.00092980   -0.00260074    0.00022866
     atom   28 type  2   force =     0.00529739   -0.02213214   -0.00078049
     atom   29 type  2   force =    -0.00272498   -0.00492456   -0.00926513
     atom   30 type  2   force =    -0.00193767    0.00459359   -0.00970700
     atom   31 type  2   force =     0.00779498   -0.02433262   -0.00196079
     atom   32 type  2   force =     0.00288982    0.00438553    0.00945539
     atom   33 type  2   force =     0.00355674   -0.00441902    0.00924805
     atom   34 type  3   force =    -0.00116134   -0.00194887    0.00012146
     atom   35 type  2   force =     0.00541829    0.00127900   -0.00977451
     atom   36 type  2   force =    -0.00238715   -0.00433983   -0.00910352
     atom   37 type  2   force =    -0.00171934    0.00532633   -0.00986613
     atom   38 type  2   force =    -0.00507131    0.00107403    0.00919644
     atom   39 type  2   force =     0.00285312    0.00473874    0.00990086
     atom   40 type  2   force =     0.00340474   -0.00395621    0.00928465
     atom   41 type  3   force =    -0.00067653   -0.00121243   -0.00063888
     atom   42 type  3   force =    -0.00990712    0.03240266    0.00109825
     atom   43 type  2   force =     0.00517197    0.00123254   -0.00990225
     atom   44 type  2   force =    -0.00376780    0.00280845   -0.00757541
     atom   45 type  2   force =    -0.00022040    0.00755320   -0.00794243
     atom   46 type  2   force =    -0.00513077    0.00081601    0.00956830
     atom   47 type  2   force =    -0.00238137    0.01192993    0.00802065
     atom   48 type  2   force =     0.00497973    0.00145625    0.00795479
     atom   49 type  3   force =     0.03213197    0.00187529    0.00308806
     atom   50 type  3   force =    -0.00052995   -0.00186022   -0.00052450
     atom   51 type  2   force =     0.00597341   -0.01937552    0.00137929
     atom   52 type  2   force =     0.00414416   -0.00244310   -0.00760108
     atom   53 type  2   force =    -0.00170732    0.00440219   -0.00975788
     atom   54 type  2   force =     0.01168540   -0.01999544   -0.00335758
     atom   55 type  2   force =     0.01157649    0.00344816    0.00748451
     atom   56 type  2   force =     0.00346477   -0.00447215    0.00953150
     atom   57 type  3   force =     0.03301092    0.00762110    0.00109763
     atom   58 type  3   force =    -0.00069599   -0.00118290   -0.00063905
     atom   59 type  2   force =     0.00665118    0.00359309   -0.00794227
     atom   60 type  2   force =     0.00432085   -0.00186231   -0.00757454
     atom   61 type  2   force =    -0.00157908    0.00499263   -0.00981502
     atom   62 type  2   force =    -0.00122988    0.00504735    0.00795478
     atom   63 type  2   force =     0.01152518    0.00389654    0.00802294
     atom   64 type  2   force =     0.00315496   -0.00404099    0.00947779
     atom   65 type  3   force =     0.03345821    0.00837250    0.00038812
     atom   66 type  3   force =    -0.00947684    0.03316666    0.00038868
     atom   67 type  2   force =     0.00635496    0.00365123   -0.00799562
     atom   68 type  2   force =     0.00304602    0.00526871   -0.00612864
     atom   69 type  2   force =    -0.00002294    0.00732836   -0.00799321
     atom   70 type  2   force =    -0.00131289    0.00478073    0.00826307
     atom   71 type  2   force =     0.00641436    0.01110476    0.00583050
     atom   72 type  2   force =     0.00479221    0.00125059    0.00826390

     Total force =     0.137352     Total SCF correction =     0.000008


     Computing stress (Cartesian axis) and pressure


     negative rho (up, down):  1.304E-01 1.474E-01
          total   stress  (Ry/bohr**3)                   (kbar)     P=        1.84
   0.00001237  -0.00000122   0.00000070            1.82       -0.18        0.10
  -0.00000122   0.00001096   0.00000121           -0.18        1.61        0.18
   0.00000070   0.00000121   0.00001415            0.10        0.18        2.08


     Writing all to output data dir ./Cr_-0.05_0/Cr_0_0.save/ :
     XML data file, charge density, pseudopotentials, collected wavefunctions

     init_run     :    108.56s CPU     95.95s WALL (       1 calls)
     electrons    :   2666.65s CPU   1447.83s WALL (       1 calls)
     forces       :   2453.99s CPU   1645.81s WALL (       1 calls)
     stress       :   6120.71s CPU   5068.32s WALL (       1 calls)

     Called by init_run:
     wfcinit      :     90.16s CPU     75.85s WALL (       1 calls)
     potinit      :      3.68s CPU      4.19s WALL (       1 calls)
     hinit0       :      2.24s CPU      2.88s WALL (       1 calls)

     Called by electrons:
     c_bands      :   2218.01s CPU   1179.17s WALL (      13 calls)
     sum_band     :    397.30s CPU    223.76s WALL (      13 calls)
     v_of_rho     :     17.15s CPU     14.37s WALL (      13 calls)
     newd         :     24.51s CPU     24.51s WALL (      13 calls)
     PAW_pot      :      8.60s CPU      6.07s WALL (      13 calls)
     mix_rho      :      2.40s CPU      1.89s WALL (      13 calls)

     Called by c_bands:
     init_us_2    :     21.47s CPU     11.09s WALL (     248 calls)
     init_us_2:cp :     21.47s CPU     11.09s WALL (     248 calls)
     cegterg      :   2190.67s CPU   1161.28s WALL (     104 calls)

     Called by *egterg:
     cdiaghg      :    138.22s CPU     77.00s WALL (     480 calls)
     h_psi        :   1379.14s CPU    716.80s WALL (     496 calls)
     s_psi        :    188.73s CPU     95.36s WALL (     536 calls)
     g_psi        :      4.90s CPU      2.50s WALL (     392 calls)

     Called by h_psi:
     h_psi:calbec :    173.33s CPU     90.40s WALL (     496 calls)
     vloc_psi     :   1031.49s CPU    531.62s WALL (     496 calls)
     add_vuspsi   :    149.03s CPU     75.47s WALL (     496 calls)
     vhpsi        :     21.64s CPU     11.95s WALL (     496 calls)

     General routines
     calbec       :   2380.61s CPU   1249.64s WALL (   56664 calls)
     fft          :     18.22s CPU     18.91s WALL (     365 calls)
     ffts         :      2.43s CPU      2.14s WALL (      52 calls)
     fftw         :    941.88s CPU    486.87s WALL (  209330 calls)
     interpolate  :      2.64s CPU      2.34s WALL (      26 calls)

     Parallel routines

     Hubbard U routines
     new_ns       :      5.93s CPU      4.25s WALL (      13 calls)
     vhpsi        :     21.64s CPU     11.95s WALL (     496 calls)
     force_hub    :   2421.79s CPU   1627.50s WALL (       1 calls)
                                        0.00s GPU  (       1 calls)
     stres_hub    :   5581.63s CPU   4783.33s WALL (       1 calls)
                                        0.00s GPU  (       1 calls)

     PWSCF        :      3h 9m CPU      2h18m WALL


   This run was terminated on:  22:22:49  26Sep2025            

=------------------------------------------------------------------------------=
   JOB DONE.
=------------------------------------------------------------------------------=
[1758921769.727108] [node165:4117479:0]          mpool.c:43   UCX  WARN  object 0x7847840 was not returned to mpool ucp_requests
[1758921769.727137] [node165:4117479:0]          mpool.c:43   UCX  WARN  object 0x784d180 was not returned to mpool ucp_requests
[1758921769.727139] [node165:4117479:0]          mpool.c:43   UCX  WARN  object 0x4bc2d80 was not returned to mpool ucp_requests
[1758921769.727141] [node165:4117479:0]          mpool.c:43   UCX  WARN  object 0x4bc3800 was not returned to mpool ucp_requests
[1758921769.727142] [node165:4117479:0]          mpool.c:43   UCX  WARN  object 0x4bc4b40 was not returned to mpool ucp_requests
[1758921769.727143] [node165:4117479:0]          mpool.c:43   UCX  WARN  object 0x4bcb600 was not returned to mpool ucp_requests
[1758921769.727144] [node165:4117479:0]          mpool.c:43   UCX  WARN  object 0x4bcd900 was not returned to mpool ucp_requests
[1758921769.729731] [node165:4117467:0]          mpool.c:43   UCX  WARN  object 0x60ae080 was not returned to mpool ucp_requests
[1758921769.729753] [node165:4117467:0]          mpool.c:43   UCX  WARN  object 0x6096d00 was not returned to mpool ucp_requests
[1758921769.729754] [node165:4117467:0]          mpool.c:43   UCX  WARN  object 0x6097080 was not returned to mpool ucp_requests
[1758921769.729756] [node165:4117467:0]          mpool.c:43   UCX  WARN  object 0x6097780 was not returned to mpool ucp_requests
[1758921769.729757] [node165:4117467:0]          mpool.c:43   UCX  WARN  object 0x6097cc0 was not returned to mpool ucp_requests
[1758921769.729758] [node165:4117467:0]          mpool.c:43   UCX  WARN  object 0x6097e80 was not returned to mpool ucp_requests
[1758921769.729759] [node165:4117467:0]          mpool.c:43   UCX  WARN  object 0x60983c0 was not returned to mpool ucp_requests
[1758921769.729760] [node165:4117467:0]          mpool.c:43   UCX  WARN  object 0x609a340 was not returned to mpool ucp_requests
[1758921769.729761] [node165:4117467:0]          mpool.c:43   UCX  WARN  object 0x60a0540 was not returned to mpool ucp_requests
[1758921769.729762] [node165:4117467:0]          mpool.c:43   UCX  WARN  object 0x340e100 was not returned to mpool ucp_requests
[1758921769.729764] [node165:4117467:0]          mpool.c:43   UCX  WARN  object 0x3411040 was not returned to mpool ucp_requests
[1758921769.729765] [node165:4117467:0]          mpool.c:43   UCX  WARN  object 0x3411200 was not returned to mpool ucp_requests
[1758921769.729766] [node165:4117467:0]          mpool.c:43   UCX  WARN  object 0x3415100 was not returned to mpool ucp_requests
[1758921769.729767] [node165:4117467:0]          mpool.c:43   UCX  WARN  object 0x3416d00 was not returned to mpool ucp_requests
[1758921769.729768] [node165:4117467:0]          mpool.c:43   UCX  WARN  object 0x3419e00 was not returned to mpool ucp_requests
[1758921769.729620] [node165:4117483:0]          mpool.c:43   UCX  WARN  object 0x68be580 was not returned to mpool ucp_requests
[1758921769.729639] [node165:4117483:0]          mpool.c:43   UCX  WARN  object 0x68c1a00 was not returned to mpool ucp_requests
[1758921769.729641] [node165:4117483:0]          mpool.c:43   UCX  WARN  object 0x68c4080 was not returned to mpool ucp_requests
[1758921769.729642] [node165:4117483:0]          mpool.c:43   UCX  WARN  object 0x68c45c0 was not returned to mpool ucp_requests
[1758921769.729643] [node165:4117483:0]          mpool.c:43   UCX  WARN  object 0x68ae400 was not returned to mpool ucp_requests
[1758921769.729644] [node165:4117483:0]          mpool.c:43   UCX  WARN  object 0x68af580 was not returned to mpool ucp_requests
[1758921769.729646] [node165:4117483:0]          mpool.c:43   UCX  WARN  object 0x68b4980 was not returned to mpool ucp_requests
[1758921769.729647] [node165:4117483:0]          mpool.c:43   UCX  WARN  object 0x68b6740 was not returned to mpool ucp_requests
[1758921769.729648] [node165:4117483:0]          mpool.c:43   UCX  WARN  object 0x3c240c0 was not returned to mpool ucp_requests
[1758921769.729649] [node165:4117483:0]          mpool.c:43   UCX  WARN  object 0x3c27fc0 was not returned to mpool ucp_requests
[1758921769.729650] [node165:4117483:0]          mpool.c:43   UCX  WARN  object 0x3c28a40 was not returned to mpool ucp_requests
[1758921769.729651] [node165:4117483:0]          mpool.c:43   UCX  WARN  object 0x3c2bb40 was not returned to mpool ucp_requests
