
     Program PWSCF v.7.3 starts on 26Sep2025 at 20: 7: 1 

     This program is part of the open-source Quantum ESPRESSO suite
     for quantum simulation of materials; please cite
         "P. Giannozzi et al., J. Phys.:Condens. Matter 21 395502 (2009);
         "P. Giannozzi et al., J. Phys.:Condens. Matter 29 465901 (2017);
         "P. Giannozzi et al., J. Chem. Phys. 152 154105 (2020);
          URL http://www.quantum-espresso.org", 
     in publications or presentations arising from this work. More details at
     http://www.quantum-espresso.org/quote

     Parallel version (MPI & OpenMP), running on     256 processor cores
     Number of MPI processes:               128
     Threads/MPI process:                     2

     MPI processes distributed on     2 nodes
     438212 MiB available memory on the printing compute node when the environment starts

     Reading input from Cr_0.05_0.in
Warning: card &CELL ignored
Warning: card / ignored
Warning: card &FCP ignored
Warning: card / ignored
Warning: card &RISM ignored
Warning: card / ignored

     Current dimensions of program PWSCF are:
     Max number of different atomic species (ntypx) = 10
     Max number of k-points (npk) =  40000
     Max angular momentum in pseudopotentials (lmaxx) =  4
read_pp_mesh; mismatch in mesh size, discarding the one in header
read_pp_mesh; mismatch in mesh size, discarding the one in header
read_pp_mesh; mismatch in mesh size, discarding the one in header
     file Cr.GGA-PBE-paw.UPF: wavefunction(s)  3S 4S 3P 4P 3D 4D renormalized
     file I.GGA-PBE-paw.UPF: wavefunction(s)  6S 6P renormalized
     file Cr.GGA-PBE-paw.UPF: wavefunction(s)  3S 4S 3P 4P 3D 4D renormalized

     IMPORTANT: XC functional enforced from input :
     Exchange-correlation= PBE
                           (   1   4   3   4   0   0   0)
     Any further DFT definition will be discarded
     Please, verify this is what you really want


     R & G space division:  proc/nbgrp/npool/nimage =     128
     Subspace diagonalization in iterative solution of the eigenvalue problem:
     one sub-group per band group will be used
     ELPA distributed-memory algorithm (size of sub-group:  3*  3 procs)


     Parallelization info
     --------------------
     sticks:   dense  smooth     PW     G-vecs:    dense   smooth      PW
     Min         509     305     78               140391    65241    8388
     Max         510     306     79               140404    65254    8400
     Sum       65263   39121   9985             17971031  8351671 1074593

     Using Slab Decomposition



     bravais-lattice index     =            0
     lattice parameter (alat)  =      39.7293  a.u.
     unit-cell volume          =   72410.5124 (a.u.)^3
     number of atoms/cell      =           72
     number of atomic types    =            3
     number of electrons       =       630.00 (up: 342.00, down: 288.00)
     number of Kohn-Sham states=          342
     kinetic-energy cutoff     =      90.0000  Ry
     charge density cutoff     =     600.0000  Ry
     scf convergence threshold =      1.0E-10
     mixing beta               =       0.3000
     number of iterations used =            8  plain     mixing
     Exchange-correlation= PBE
                           (   1   4   3   4   0   0   0)
     Hubbard projectors: ortho-atomic
     Hubbard parameters of DFT+U (Dudarev formulation) in eV:
     U(Cr1-3d) =  0.0000
     J0(Cr1-3d) =  0.0000
     alpha(Cr1-3d) =  0.0500

     Internal variables: lda_plus_u =T, lda_plus_u_kind = 0

     celldm(1)=  39.729285  celldm(2)=   0.000000  celldm(3)=   0.000000
     celldm(4)=   0.000000  celldm(5)=   0.000000  celldm(6)=   0.000000

     crystal axes: (cart. coord. in units of alat)
               a(1) = (   1.000000   0.000000   0.000000 )  
               a(2) = (  -0.500000   0.866025   0.000000 )  
               a(3) = (   0.000000   0.000000   1.333333 )  

     reciprocal axes: (cart. coord. in units 2 pi/alat)
               b(1) = (  1.000000  0.577350 -0.000000 )  
               b(2) = (  0.000000  1.154701  0.000000 )  
               b(3) = (  0.000000 -0.000000  0.750000 )  


     PseudoPot. # 1 for Cr read from file:
     ./Cr.GGA-PBE-paw.UPF
     MD5 check sum: 389087661106aa6caf57455f2e439c97
     Pseudo is Projector augmented-wave + core cor, Zval = 14.0
     Generated using ATOMPAW code
     Shape of augmentation charge: SINC**2
     Using radial grid of 2342 points,  6 beta functions with: 
                l(1) =   0
                l(2) =   0
                l(3) =   1
                l(4) =   1
                l(5) =   2
                l(6) =   2
     Q(r) pseudized with 0 coefficients 


     PseudoPot. # 2 for I  read from file:
     ./I.GGA-PBE-paw.UPF
     MD5 check sum: 736bb4145856fa7ed29d0984862794a4
     Pseudo is Projector augmented-wave + core cor, Zval =  7.0
     Generated using ATOMPAW code
     Shape of augmentation charge: SINC**2
     Using radial grid of 2342 points,  4 beta functions with: 
                l(1) =   0
                l(2) =   0
                l(3) =   1
                l(4) =   1
     Q(r) pseudized with 0 coefficients 


     PseudoPot. # 3 for Cr read from file:
     ./Cr.GGA-PBE-paw.UPF
     MD5 check sum: 389087661106aa6caf57455f2e439c97
     Pseudo is Projector augmented-wave + core cor, Zval = 14.0
     Generated using ATOMPAW code
     Shape of augmentation charge: SINC**2
     Using radial grid of 2342 points,  6 beta functions with: 
                l(1) =   0
                l(2) =   0
                l(3) =   1
                l(4) =   1
                l(5) =   2
                l(6) =   2
     Q(r) pseudized with 0 coefficients 


     atomic species   valence    mass     pseudopotential
     Cr1              14.00    51.99610     Cr( 1.00)
     I                 7.00   126.90447     I ( 1.00)
     Cr               14.00    51.99610     Cr( 1.00)

     Starting magnetic structure 
     atomic species   magnetization
     Cr1             0.214
     I               0.000
     Cr              0.214

     No symmetry found



   Cartesian axes

     site n.     atom                  positions (alat units)
         1        Cr1    tau(   1) = (   0.3271041   0.3777073   0.4295967  )
         2        Cr     tau(   2) = (   0.1635521   0.0944268   0.4295967  )
         3        Cr     tau(   3) = (   0.0000000   0.1888536   0.4295967  )
         4        I      tau(   4) = (   0.2103614  -0.0000006   0.3558127  )
         5        I      tau(   5) = (   0.0583708   0.1011024   0.3558127  )
         6        I      tau(   6) = (  -0.1051802   0.1821787   0.3558127  )
         7        I      tau(   7) = (   0.1167427  -0.0000005   0.5033806  )
         8        I      tau(   8) = (   0.1051802   0.1821786   0.5033806  )
         9        I      tau(   9) = (  -0.0583709   0.1011024   0.5033806  )
        10        Cr     tau(  10) = (  -0.0000000   0.3777073   0.4295967  )
        11        Cr     tau(  11) = (  -0.1635521   0.4721341   0.4295967  )
        12        I      tau(  12) = (   0.0468094   0.2832798   0.3558127  )
        13        I      tau(  13) = (  -0.1051813   0.3843829   0.3558127  )
        14        I      tau(  14) = (  -0.2687322   0.4654591   0.3558127  )
        15        I      tau(  15) = (  -0.0468094   0.2832799   0.5033806  )
        16        I      tau(  16) = (  -0.0583718   0.4654591   0.5033806  )
        17        I      tau(  17) = (  -0.2219229   0.3843829   0.5033806  )
        18        Cr     tau(  18) = (  -0.1635521   0.6609878   0.4295967  )
        19        Cr     tau(  19) = (  -0.3271041   0.7554146   0.4295967  )
        20        I      tau(  20) = (  -0.1167427   0.5665603   0.3558127  )
        21        I      tau(  21) = (  -0.2687333   0.6676634   0.3558127  )
        22        I      tau(  22) = (  -0.4322843   0.7487396   0.3558127  )
        23        I      tau(  23) = (  -0.2103614   0.5665604   0.5033806  )
        24        I      tau(  24) = (  -0.2219239   0.7487396   0.5033806  )
        25        I      tau(  25) = (  -0.3854750   0.6676633   0.5033806  )
        26        Cr     tau(  26) = (   0.4906562   0.0944268   0.4295967  )
        27        Cr     tau(  27) = (   0.3271041   0.1888536   0.4295967  )
        28        I      tau(  28) = (   0.5374655  -0.0000006   0.3558127  )
        29        I      tau(  29) = (   0.3854749   0.1011024   0.3558127  )
        30        I      tau(  30) = (   0.2219239   0.1821787   0.3558127  )
        31        I      tau(  31) = (   0.4438468  -0.0000005   0.5033806  )
        32        I      tau(  32) = (   0.4322844   0.1821786   0.5033806  )
        33        I      tau(  33) = (   0.2687332   0.1011024   0.5033806  )
        34        Cr     tau(  34) = (   0.1635521   0.4721341   0.4295967  )
        35        I      tau(  35) = (   0.3739135   0.2832798   0.3558127  )
        36        I      tau(  36) = (   0.2219229   0.3843829   0.3558127  )
        37        I      tau(  37) = (   0.0583719   0.4654591   0.3558127  )
        38        I      tau(  38) = (   0.2802947   0.2832799   0.5033806  )
        39        I      tau(  39) = (   0.2687323   0.4654591   0.5033806  )
        40        I      tau(  40) = (   0.1051812   0.3843829   0.5033806  )
        41        Cr     tau(  41) = (   0.1635521   0.6609878   0.4295967  )
        42        Cr     tau(  42) = (   0.0000000   0.7554146   0.4295967  )
        43        I      tau(  43) = (   0.2103614   0.5665603   0.3558127  )
        44        I      tau(  44) = (   0.0583708   0.6676634   0.3558127  )
        45        I      tau(  45) = (  -0.1051802   0.7487396   0.3558127  )
        46        I      tau(  46) = (   0.1167427   0.5665604   0.5033806  )
        47        I      tau(  47) = (   0.1051802   0.7487396   0.5033806  )
        48        I      tau(  48) = (  -0.0583709   0.6676633   0.5033806  )
        49        Cr     tau(  49) = (   0.8177603   0.0944268   0.4295967  )
        50        Cr     tau(  50) = (   0.6542082   0.1888536   0.4295967  )
        51        I      tau(  51) = (   0.8645697  -0.0000006   0.3558127  )
        52        I      tau(  52) = (   0.7125790   0.1011024   0.3558127  )
        53        I      tau(  53) = (   0.5490281   0.1821787   0.3558127  )
        54        I      tau(  54) = (   0.7709509  -0.0000005   0.5033806  )
        55        I      tau(  55) = (   0.7593885   0.1821786   0.5033806  )
        56        I      tau(  56) = (   0.5958374   0.1011024   0.5033806  )
        57        Cr     tau(  57) = (   0.6542082   0.3777073   0.4295967  )
        58        Cr     tau(  58) = (   0.4906562   0.4721341   0.4295967  )
        59        I      tau(  59) = (   0.7010176   0.2832798   0.3558127  )
        60        I      tau(  60) = (   0.5490270   0.3843829   0.3558127  )
        61        I      tau(  61) = (   0.3854760   0.4654591   0.3558127  )
        62        I      tau(  62) = (   0.6073989   0.2832799   0.5033806  )
        63        I      tau(  63) = (   0.5958364   0.4654591   0.5033806  )
        64        I      tau(  64) = (   0.4322853   0.3843829   0.5033806  )
        65        Cr     tau(  65) = (   0.4906562   0.6609878   0.4295967  )
        66        Cr     tau(  66) = (   0.3271041   0.7554146   0.4295967  )
        67        I      tau(  67) = (   0.5374655   0.5665603   0.3558127  )
        68        I      tau(  68) = (   0.3854749   0.6676634   0.3558127  )
        69        I      tau(  69) = (   0.2219239   0.7487396   0.3558127  )
        70        I      tau(  70) = (   0.4438468   0.5665604   0.5033806  )
        71        I      tau(  71) = (   0.4322844   0.7487396   0.5033806  )
        72        I      tau(  72) = (   0.2687332   0.6676633   0.5033806  )

     number of k points=     4
                       cart. coord. in units 2pi/alat
        k(    1) = (   0.0000000   0.0000000   0.0000000), wk =   0.2500000
        k(    2) = (   0.0000000  -0.5773503   0.0000000), wk =   0.2500000
        k(    3) = (   0.5000000  -0.2886751   0.0000000), wk =   0.2500000
        k(    4) = (  -0.5000000  -0.2886751   0.0000000), wk =   0.2500000

     Dense  grid: 17971031 G-vectors     FFT dimensions: ( 320, 320, 432)

     Smooth grid:  8351671 G-vectors     FFT dimensions: ( 240, 240, 320)

     Estimated max dynamical RAM per process >       1.67 GB

     Estimated total dynamical RAM >     213.14 GB
     Generating pointlists ...
     new r_m :   0.0531 (alat units)  2.1084 (a.u.) for type    1
     new r_m :   0.0531 (alat units)  2.1084 (a.u.) for type    2
     new r_m :   0.0531 (alat units)  2.1084 (a.u.) for type    3

     The initial density is read from file :
     ./Cr_0.05_0/Cr_0_0.save/charge-density


     negative rho (up, down):  1.304E-01 1.474E-01

     STARTING HUBBARD OCCUPATIONS:

     =================== HUBBARD OCCUPATIONS ===================
     ------------------------ ATOM    1 ------------------------
     Tr[ns(  1)] (up, down, total) =   3.59974  0.76815  4.36789
     Atomic magnetic moment for atom   1 =   2.83159
     SPIN  1
     eigenvalues:
       0.445  0.446  0.901  0.901  0.907
     eigenvectors (columns):
      -0.000  0.000 -0.031 -0.030  0.999
      -0.800  0.188  0.535  0.197  0.022
      -0.188 -0.801  0.197 -0.534 -0.010
       0.556 -0.130  0.770  0.283  0.032
      -0.130 -0.554 -0.284  0.772  0.014
     occupation matrix ns (before diag.):
       0.907  0.000 -0.000  0.000  0.000
       0.000  0.593 -0.000  0.214 -0.000
      -0.000 -0.000  0.594  0.000 -0.213
       0.000  0.214  0.000  0.752  0.000
       0.000 -0.000 -0.213  0.000  0.754
     SPIN  2
     eigenvalues:
       0.078  0.086  0.087  0.258  0.259
     eigenvectors (columns):
      -0.999  0.034 -0.028  0.001 -0.000
      -0.022 -0.542  0.133  0.800 -0.218
       0.011 -0.133 -0.540  0.218  0.802
      -0.033 -0.805  0.197 -0.539  0.146
      -0.016  0.198  0.807  0.146  0.537
     occupation matrix ns (before diag.):
       0.078 -0.000  0.000 -0.000 -0.000
      -0.000  0.204 -0.000 -0.080 -0.000
       0.000 -0.000  0.206 -0.000  0.080
      -0.000 -0.080 -0.000  0.140  0.000
      -0.000 -0.000  0.080  0.000  0.140

     Number of occupied Hubbard levels =    4.3679

     Atomic wfc used for Hubbard projectors are orthogonalized

     Starting wfcs are  756 atomic wfcs
     Checking if some PAW data can be deallocated... 

     total cpu time spent up to now is      126.4 secs

     Self-consistent Calculation

     iteration #  1     ecut=    90.00 Ry     beta= 0.30
     Davidson diagonalization with overlap
     ethr =  1.00E-05,  avg # of iterations =  8.6

     =================== HUBBARD OCCUPATIONS ===================
     ------------------------ ATOM    1 ------------------------
     Tr[ns(  1)] (up, down, total) =   3.58782  0.75675  4.34457
     Atomic magnetic moment for atom   1 =   2.83107
     SPIN  1
     eigenvalues:
       0.439  0.441  0.900  0.900  0.907
     eigenvectors (columns):
      -0.000  0.000 -0.032 -0.031  0.999
      -0.799  0.190  0.535  0.197  0.023
      -0.189 -0.800  0.197 -0.534 -0.010
       0.555 -0.131  0.770  0.283  0.034
      -0.131 -0.554 -0.284  0.772  0.015
     occupation matrix ns (before diag.):
       0.907  0.000 -0.000  0.000  0.000
       0.000  0.589 -0.000  0.216 -0.000
      -0.000 -0.000  0.590  0.000 -0.215
       0.000  0.216  0.000  0.750  0.000
       0.000 -0.000 -0.215  0.000  0.752
     SPIN  2
     eigenvalues:
       0.077  0.084  0.085  0.255  0.256
     eigenvectors (columns):
      -0.999  0.033 -0.028  0.001 -0.000
      -0.021 -0.543  0.132  0.800 -0.218
       0.011 -0.133 -0.541  0.218  0.802
      -0.033 -0.805  0.196 -0.540  0.146
      -0.016  0.197  0.807  0.146  0.537
     occupation matrix ns (before diag.):
       0.077 -0.000  0.000 -0.000 -0.000
      -0.000  0.202 -0.000 -0.079 -0.000
       0.000 -0.000  0.203 -0.000  0.079
      -0.000 -0.079 -0.000  0.137  0.000
      -0.000 -0.000  0.079  0.000  0.138

     Number of occupied Hubbard levels =    4.3446

     Threshold (ethr) on eigenvalues was too large:
     Diagonalizing with lowered threshold

     Davidson diagonalization with overlap
     ethr =  3.99E-08,  avg # of iterations =  3.8

     negative rho (up, down):  1.304E-01 1.475E-01

     total cpu time spent up to now is      635.7 secs

     total energy              =  -24931.16248591 Ry
     estimated scf accuracy    <       0.00025016 Ry

     total magnetization       =    54.00 Bohr mag/cell
     absolute magnetization    =    65.39 Bohr mag/cell

     iteration #  2     ecut=    90.00 Ry     beta= 0.30
     Davidson diagonalization with overlap
     ethr =  3.97E-08,  avg # of iterations =  6.0

     negative rho (up, down):  1.304E-01 1.475E-01

     total cpu time spent up to now is      776.3 secs

     total energy              =  -24931.16251234 Ry
     estimated scf accuracy    <       0.00078579 Ry

     total magnetization       =    54.00 Bohr mag/cell
     absolute magnetization    =    65.40 Bohr mag/cell

     iteration #  3     ecut=    90.00 Ry     beta= 0.30
     Davidson diagonalization with overlap
     ethr =  3.97E-08,  avg # of iterations =  4.9

     negative rho (up, down):  1.304E-01 1.475E-01

     total cpu time spent up to now is      897.5 secs

     total energy              =  -24931.16258984 Ry
     estimated scf accuracy    <       0.00000061 Ry

     total magnetization       =    54.00 Bohr mag/cell
     absolute magnetization    =    65.40 Bohr mag/cell

     iteration #  4     ecut=    90.00 Ry     beta= 0.30
     Davidson diagonalization with overlap
     ethr =  9.68E-11,  avg # of iterations =  6.0

     negative rho (up, down):  1.304E-01 1.475E-01

     total cpu time spent up to now is     1078.5 secs

     total energy              =  -24931.16259083 Ry
     estimated scf accuracy    <       0.00000049 Ry

     total magnetization       =    54.00 Bohr mag/cell
     absolute magnetization    =    65.39 Bohr mag/cell

     iteration #  5     ecut=    90.00 Ry     beta= 0.30
     Davidson diagonalization with overlap
     ethr =  7.80E-11,  avg # of iterations =  2.5

     negative rho (up, down):  1.304E-01 1.475E-01

     total cpu time spent up to now is     1180.6 secs

     total energy              =  -24931.16259088 Ry
     estimated scf accuracy    <       0.00000018 Ry

     total magnetization       =    54.00 Bohr mag/cell
     absolute magnetization    =    65.40 Bohr mag/cell

     iteration #  6     ecut=    90.00 Ry     beta= 0.30
     Davidson diagonalization with overlap
     ethr =  2.86E-11,  avg # of iterations =  4.1

     negative rho (up, down):  1.304E-01 1.475E-01

     total cpu time spent up to now is     1297.1 secs

     total energy              =  -24931.16259092 Ry
     estimated scf accuracy    <       0.00000013 Ry

     total magnetization       =    54.00 Bohr mag/cell
     absolute magnetization    =    65.40 Bohr mag/cell

     iteration #  7     ecut=    90.00 Ry     beta= 0.30
     Davidson diagonalization with overlap
     ethr =  2.03E-11,  avg # of iterations =  2.0

     negative rho (up, down):  1.304E-01 1.475E-01

     total cpu time spent up to now is     1386.2 secs

     total energy              =  -24931.16259092 Ry
     estimated scf accuracy    <       0.00000005 Ry

     total magnetization       =    54.00 Bohr mag/cell
     absolute magnetization    =    65.40 Bohr mag/cell

     iteration #  8     ecut=    90.00 Ry     beta= 0.30
     Davidson diagonalization with overlap
     ethr =  7.45E-12,  avg # of iterations =  4.1

     negative rho (up, down):  1.304E-01 1.475E-01

     total cpu time spent up to now is     1494.7 secs

     total energy              =  -24931.16259092 Ry
     estimated scf accuracy    <          4.1E-09 Ry

     total magnetization       =    54.00 Bohr mag/cell
     absolute magnetization    =    65.40 Bohr mag/cell

     iteration #  9     ecut=    90.00 Ry     beta= 0.30
     Davidson diagonalization with overlap
     ethr =  6.47E-13,  avg # of iterations =  4.5

     negative rho (up, down):  1.304E-01 1.475E-01

     total cpu time spent up to now is     1615.5 secs

     total energy              =  -24931.16259093 Ry
     estimated scf accuracy    <          2.0E-09 Ry

     total magnetization       =    54.00 Bohr mag/cell
     absolute magnetization    =    65.40 Bohr mag/cell

     iteration # 10     ecut=    90.00 Ry     beta= 0.30
     Davidson diagonalization with overlap
     ethr =  3.15E-13,  avg # of iterations =  3.9

     negative rho (up, down):  1.304E-01 1.475E-01

     total cpu time spent up to now is     1729.0 secs

     total energy              =  -24931.16259093 Ry
     estimated scf accuracy    <          6.5E-10 Ry

     total magnetization       =    54.00 Bohr mag/cell
     absolute magnetization    =    65.40 Bohr mag/cell

     iteration # 11     ecut=    90.00 Ry     beta= 0.30
     Davidson diagonalization with overlap
     ethr =  1.03E-13,  avg # of iterations =  4.8

     negative rho (up, down):  1.304E-01 1.475E-01

     total cpu time spent up to now is     1849.7 secs

     total energy              =  -24931.16259093 Ry
     estimated scf accuracy    <          1.8E-10 Ry

     total magnetization       =    54.00 Bohr mag/cell
     absolute magnetization    =    65.40 Bohr mag/cell

     iteration # 12     ecut=    90.00 Ry     beta= 0.30
     Davidson diagonalization with overlap
     ethr =  1.00E-13,  avg # of iterations =  2.0

     negative rho (up, down):  1.304E-01 1.475E-01

     Magnetic moment per site  (integrated on atomic sphere of radius R)
     atom   1 (R=0.053)  charge= 12.4096  magn=  2.9263
     atom   2 (R=0.053)  charge= 12.4086  magn=  2.9136
     atom   3 (R=0.053)  charge= 12.4086  magn=  2.9136
     atom   4 (R=0.053)  charge=  4.0328  magn= -0.0666
     atom   5 (R=0.053)  charge=  4.0497  magn= -0.0522
     atom   6 (R=0.053)  charge=  4.0328  magn= -0.0666
     atom   7 (R=0.053)  charge=  4.0248  magn= -0.0723
     atom   8 (R=0.053)  charge=  4.0502  magn= -0.0558
     atom   9 (R=0.053)  charge=  4.0248  magn= -0.0723
     atom  10 (R=0.053)  charge= 12.4124  magn=  2.9203
     atom  11 (R=0.053)  charge= 12.4091  magn=  2.9162
     atom  12 (R=0.053)  charge=  4.0513  magn= -0.0516
     atom  13 (R=0.053)  charge=  4.0498  magn= -0.0517
     atom  14 (R=0.053)  charge=  4.0336  magn= -0.0637
     atom  15 (R=0.053)  charge=  4.0500  magn= -0.0523
     atom  16 (R=0.053)  charge=  4.0513  magn= -0.0523
     atom  17 (R=0.053)  charge=  4.0253  magn= -0.0709
     atom  18 (R=0.053)  charge= 12.4122  magn=  2.9227
     atom  19 (R=0.053)  charge= 12.3252  magn=  3.0168
     atom  20 (R=0.053)  charge=  4.0507  magn= -0.0525
     atom  21 (R=0.053)  charge=  4.0444  magn= -0.0604
     atom  22 (R=0.053)  charge=  4.0302  magn= -0.0695
     atom  23 (R=0.053)  charge=  4.0499  magn= -0.0520
     atom  24 (R=0.053)  charge=  4.0486  magn= -0.0515
     atom  25 (R=0.053)  charge=  4.0214  magn= -0.0769
     atom  26 (R=0.053)  charge= 12.4090  magn=  2.9162
     atom  27 (R=0.053)  charge= 12.4124  magn=  2.9202
     atom  28 (R=0.053)  charge=  4.0336  magn= -0.0637
     atom  29 (R=0.053)  charge=  4.0498  magn= -0.0517
     atom  30 (R=0.053)  charge=  4.0513  magn= -0.0516
     atom  31 (R=0.053)  charge=  4.0253  magn= -0.0709
     atom  32 (R=0.053)  charge=  4.0514  magn= -0.0523
     atom  33 (R=0.053)  charge=  4.0500  magn= -0.0523
     atom  34 (R=0.053)  charge= 12.4128  magn=  2.9233
     atom  35 (R=0.053)  charge=  4.0523  magn= -0.0497
     atom  36 (R=0.053)  charge=  4.0503  magn= -0.0513
     atom  37 (R=0.053)  charge=  4.0520  magn= -0.0495
     atom  38 (R=0.053)  charge=  4.0509  magn= -0.0509
     atom  39 (R=0.053)  charge=  4.0528  magn= -0.0489
     atom  40 (R=0.053)  charge=  4.0506  magn= -0.0507
     atom  41 (R=0.053)  charge= 12.4124  magn=  2.9257
     atom  42 (R=0.053)  charge= 12.3292  magn=  3.0258
     atom  43 (R=0.053)  charge=  4.0514  magn= -0.0504
     atom  44 (R=0.053)  charge=  4.0448  magn= -0.0597
     atom  45 (R=0.053)  charge=  4.0486  magn= -0.0544
     atom  46 (R=0.053)  charge=  4.0507  magn= -0.0504
     atom  47 (R=0.053)  charge=  4.0495  magn= -0.0482
     atom  48 (R=0.053)  charge=  4.0467  magn= -0.0568
     atom  49 (R=0.053)  charge= 12.3252  magn=  3.0168
     atom  50 (R=0.053)  charge= 12.4122  magn=  2.9227
     atom  51 (R=0.053)  charge=  4.0302  magn= -0.0695
     atom  52 (R=0.053)  charge=  4.0444  magn= -0.0604
     atom  53 (R=0.053)  charge=  4.0507  magn= -0.0525
     atom  54 (R=0.053)  charge=  4.0214  magn= -0.0769
     atom  55 (R=0.053)  charge=  4.0486  magn= -0.0515
     atom  56 (R=0.053)  charge=  4.0499  magn= -0.0520
     atom  57 (R=0.053)  charge= 12.3291  magn=  3.0259
     atom  58 (R=0.053)  charge= 12.4125  magn=  2.9257
     atom  59 (R=0.053)  charge=  4.0486  magn= -0.0544
     atom  60 (R=0.053)  charge=  4.0448  magn= -0.0597
     atom  61 (R=0.053)  charge=  4.0517  magn= -0.0507
     atom  62 (R=0.053)  charge=  4.0467  magn= -0.0568
     atom  63 (R=0.053)  charge=  4.0495  magn= -0.0482
     atom  64 (R=0.053)  charge=  4.0510  magn= -0.0506
     atom  65 (R=0.053)  charge= 12.3290  magn=  3.0299
     atom  66 (R=0.053)  charge= 12.3290  magn=  3.0298
     atom  67 (R=0.053)  charge=  4.0480  magn= -0.0555
     atom  68 (R=0.053)  charge=  4.0397  magn= -0.0675
     atom  69 (R=0.053)  charge=  4.0479  magn= -0.0555
     atom  70 (R=0.053)  charge=  4.0471  magn= -0.0559
     atom  71 (R=0.053)  charge=  4.0465  magn= -0.0471
     atom  72 (R=0.053)  charge=  4.0471  magn= -0.0559

     total cpu time spent up to now is     1939.3 secs

     End of self-consistent calculation

     =================== HUBBARD OCCUPATIONS ===================
     ------------------------ ATOM    1 ------------------------
     Tr[ns(  1)] (up, down, total) =   3.59672  0.76344  4.36016
     Atomic magnetic moment for atom   1 =   2.83328
     SPIN  1
     eigenvalues:
       0.443  0.445  0.900  0.901  0.907
     eigenvectors (columns):
      -0.000  0.000 -0.031 -0.030  0.999
      -0.799  0.188  0.535  0.197  0.022
      -0.188 -0.800  0.198 -0.534 -0.010
       0.556 -0.130  0.770  0.284  0.032
      -0.130 -0.554 -0.284  0.771  0.014
     occupation matrix ns (before diag.):
       0.907  0.000 -0.000  0.000  0.000
       0.000  0.592 -0.000  0.214 -0.000
      -0.000 -0.000  0.593  0.000 -0.213
       0.000  0.214  0.000  0.752  0.000
       0.000 -0.000 -0.213  0.000  0.753
     SPIN  2
     eigenvalues:
       0.078  0.085  0.086  0.257  0.258
     eigenvectors (columns):
      -0.999  0.034 -0.028  0.001 -0.000
      -0.021 -0.542  0.132  0.800 -0.219
       0.011 -0.133 -0.541  0.218  0.801
      -0.033 -0.805  0.197 -0.539  0.146
      -0.016  0.197  0.807  0.147  0.537
     occupation matrix ns (before diag.):
       0.078 -0.000  0.000 -0.000 -0.000
      -0.000  0.203 -0.000 -0.080 -0.000
       0.000 -0.000  0.205 -0.000  0.080
      -0.000 -0.080 -0.000  0.139  0.000
      -0.000 -0.000  0.080  0.000  0.139

     Number of occupied Hubbard levels =    4.3602

 ------ SPIN UP ------------


          k = 0.0000 0.0000 0.0000 (****** PWs)   bands (ev):

   -76.1370 -76.1369 -76.0608 -76.0608 -76.0127 -76.0125 -75.9807 -75.9807
   -75.9767 -75.9327 -75.9300 -75.9300 -75.8507 -75.8507 -75.8505 -75.8503
   -75.7724 -75.7724 -47.4876 -47.4866 -47.4632 -47.4621 -47.4578 -47.4574
   -47.4084 -47.4084 -47.3880 -47.3880 -47.3822 -47.3822 -47.3521 -47.3519
   -47.3457 -47.3455 -47.3396 -47.3393 -47.3272 -47.3272 -47.3138 -47.3072
   -47.3059 -47.3059 -47.3045 -47.3013 -47.3013 -47.2711 -47.2696 -47.2696
   -47.2646 -47.2631 -47.2631 -47.2618 -47.2560 -47.2559 -47.1888 -47.1888
   -47.1885 -47.1884 -47.1835 -47.1835 -47.1816 -47.1815 -47.1796 -47.1795
   -47.1763 -47.1762 -47.1102 -47.1099 -47.1063 -47.1044 -47.0972 -47.0971
   -16.2046 -16.0677 -16.0164 -15.9908 -15.9548 -15.8950 -15.8619 -15.7102
   -15.6637 -15.6336 -15.6072 -15.4952 -15.4790 -15.4547 -15.4249 -15.4087
   -15.3803 -15.3554 -15.3463 -15.3331 -15.3319 -15.3106 -15.2941 -15.2752
   -15.2694 -15.2477 -15.2382 -15.2359 -15.2034 -15.1891 -15.1758 -15.1717
   -15.1653 -15.1538 -15.1265 -15.1214 -15.1124 -15.1053 -15.0985 -15.0828
   -15.0765 -15.0636 -15.0312 -15.0222 -15.0068 -14.9957 -14.9860 -14.9100
   -14.8807 -14.8793 -14.8183 -14.8158 -14.7420 -14.7135  -7.9496  -7.8750
    -7.8381  -7.7909  -7.7810  -7.7426  -7.6952  -7.4071  -7.3805  -7.3760
    -7.3657  -7.3308  -7.2911  -7.2646  -7.2340  -7.2194  -7.1429  -7.1358
    -6.9822  -6.9478  -6.9420  -6.8983  -6.8807  -6.8587  -6.8490  -6.8408
    -6.8123  -6.8110  -6.7738  -6.7492  -6.7290  -6.7233  -6.7049  -6.6885
    -6.6842  -6.6724  -6.6491  -6.6412  -6.6292  -6.6036  -6.5883  -6.5882
    -6.5647  -6.5396  -6.5057  -6.4948  -6.4735  -6.4672  -6.4300  -6.4050
    -6.3971  -6.3769  -6.3420  -6.3416  -6.3361  -6.2991  -6.2832  -6.2683
    -6.2548  -6.2348  -6.1931  -6.1651  -6.1527  -6.1222  -6.1182  -6.0835
    -6.0532  -6.0292  -6.0239  -5.9881  -5.9879  -5.9832  -5.9741  -5.9373
    -5.9284  -5.9182  -5.8889  -5.8861  -5.8573  -5.8434  -5.8058  -5.7741
    -5.6824  -5.6514  -5.6271  -5.6231  -5.5783  -5.5169  -5.4983  -5.4718
    -5.4597  -5.4292  -5.3865  -5.3641  -5.3482  -5.3201  -5.2882  -5.2661
    -5.2481  -5.2312  -5.2124  -5.1988  -5.1765  -5.1732  -5.1520  -5.1409
    -5.1259  -5.1211  -5.0631  -5.0461  -5.0266  -5.0204  -5.0192  -5.0073
    -4.9896  -4.9795  -4.9519  -4.9464  -4.9291  -4.9126  -4.8753  -4.8673
    -4.8538  -4.8401  -4.8188  -4.7866  -4.7784  -4.7667  -4.7376  -4.7154
    -4.7064  -4.6936  -4.6848  -4.6773  -4.6768  -4.6262  -4.6095  -4.5540
    -4.5383  -4.5154  -4.4860  -4.4472  -4.4419  -4.4328  -4.4003  -4.3958
    -4.3730  -4.3703  -4.3553  -4.3477  -4.3466  -4.3223  -4.3170  -4.2882
    -4.2847  -4.2396  -4.2198  -4.2155  -4.1902  -4.1843  -4.1543  -4.1288
    -4.1059  -4.0840  -4.0806  -4.0514  -4.0136  -4.0102  -4.0025  -3.9849
    -3.9532  -3.9506  -3.9315  -3.9261  -3.9210  -3.9126  -3.8974  -3.8918
    -3.8841  -3.8830  -3.8809  -3.8527  -3.8395  -3.8368  -3.8285  -3.8283
    -3.8183  -3.8157  -3.7927  -3.7850  -3.7675  -3.7650  -3.7493  -3.7289
    -3.7220  -3.7023  -3.6952  -3.6850  -3.6359  -3.6278  -3.6162  -3.6006
    -3.5968  -3.5782  -3.5039  -3.4969  -3.4889  -3.4711  -3.4408  -3.4345
    -3.4182  -3.3959  -3.3515  -3.3489  -3.3401  -3.3254

          k = 0.0000-0.5774 0.0000 (****** PWs)   bands (ev):

   -76.1370 -76.1369 -76.0608 -76.0608 -76.0127 -76.0125 -75.9807 -75.9807
   -75.9767 -75.9327 -75.9300 -75.9300 -75.8507 -75.8507 -75.8505 -75.8503
   -75.7724 -75.7724 -47.4876 -47.4866 -47.4632 -47.4621 -47.4578 -47.4574
   -47.4084 -47.4084 -47.3880 -47.3880 -47.3822 -47.3822 -47.3521 -47.3519
   -47.3457 -47.3455 -47.3396 -47.3393 -47.3272 -47.3272 -47.3138 -47.3072
   -47.3059 -47.3059 -47.3045 -47.3013 -47.3013 -47.2711 -47.2696 -47.2696
   -47.2646 -47.2631 -47.2631 -47.2618 -47.2560 -47.2559 -47.1888 -47.1888
   -47.1885 -47.1884 -47.1835 -47.1835 -47.1816 -47.1815 -47.1796 -47.1795
   -47.1763 -47.1762 -47.1102 -47.1099 -47.1063 -47.1044 -47.0972 -47.0971
   -16.1934 -16.0986 -16.0244 -15.9978 -15.9274 -15.8639 -15.8452 -15.7597
   -15.6898 -15.5930 -15.5686 -15.5202 -15.5162 -15.4635 -15.4511 -15.3950
   -15.3753 -15.3603 -15.3510 -15.3234 -15.3120 -15.3097 -15.2929 -15.2748
   -15.2514 -15.2410 -15.2302 -15.2174 -15.2062 -15.1960 -15.1817 -15.1724
   -15.1607 -15.1483 -15.1425 -15.1259 -15.1220 -15.1028 -15.1019 -15.0836
   -15.0755 -15.0626 -15.0338 -15.0282 -15.0038 -14.9958 -14.9871 -14.9087
   -14.8799 -14.8789 -14.8170 -14.8166 -14.7419 -14.7133  -7.9349  -7.8815
    -7.8185  -7.7825  -7.7664  -7.7052  -7.6420  -7.5969  -7.5257  -7.3746
    -7.3401  -7.2848  -7.2736  -7.2604  -7.2136  -7.1994  -7.1363  -7.1301
    -6.9743  -6.9482  -6.9359  -6.8972  -6.8744  -6.8665  -6.8395  -6.8369
    -6.8219  -6.8069  -6.7838  -6.7637  -6.7346  -6.7292  -6.7249  -6.7056
    -6.6979  -6.6761  -6.6522  -6.6451  -6.6291  -6.5975  -6.5635  -6.5489
    -6.5271  -6.5131  -6.4895  -6.4841  -6.4578  -6.4426  -6.4263  -6.4136
    -6.3991  -6.3899  -6.3812  -6.3331  -6.3221  -6.2928  -6.2798  -6.2694
    -6.2488  -6.2241  -6.1899  -6.1843  -6.1584  -6.1097  -6.0832  -6.0754
    -6.0604  -6.0419  -6.0211  -6.0017  -5.9820  -5.9800  -5.9598  -5.9191
    -5.9086  -5.8967  -5.8623  -5.8441  -5.8243  -5.8003  -5.7771  -5.7184
    -5.6492  -5.6207  -5.5979  -5.5930  -5.5732  -5.5532  -5.5329  -5.5256
    -5.5080  -5.4914  -5.4691  -5.4471  -5.4376  -5.4082  -5.3885  -5.3645
    -5.3462  -5.3200  -5.3035  -5.2654  -5.2433  -5.2279  -5.1999  -5.1487
    -5.1333  -5.1157  -5.0927  -5.0745  -5.0512  -5.0248  -5.0054  -4.9722
    -4.9509  -4.9163  -4.9050  -4.8938  -4.8763  -4.8529  -4.8126  -4.8014
    -4.7824  -4.7655  -4.7448  -4.7337  -4.7086  -4.6913  -4.6854  -4.6717
    -4.6658  -4.6417  -4.6186  -4.6040  -4.5968  -4.5664  -4.5534  -4.5442
    -4.5343  -4.5244  -4.5064  -4.4906  -4.4703  -4.4465  -4.4419  -4.4345
    -4.4126  -4.4059  -4.3824  -4.3750  -4.3458  -4.3049  -4.2917  -4.2728
    -4.2610  -4.2516  -4.2264  -4.2060  -4.1936  -4.1783  -4.1731  -4.1676
    -4.1590  -4.1464  -4.1185  -4.1118  -4.0846  -4.0627  -4.0412  -4.0034
    -3.9797  -3.9687  -3.9498  -3.9309  -3.9224  -3.9085  -3.8939  -3.8837
    -3.8812  -3.8691  -3.8554  -3.8536  -3.8455  -3.8369  -3.8315  -3.8175
    -3.8109  -3.7900  -3.7854  -3.7782  -3.7690  -3.7515  -3.7262  -3.7122
    -3.6897  -3.6824  -3.6609  -3.6455  -3.6368  -3.6292  -3.6163  -3.6037
    -3.5989  -3.5801  -3.5703  -3.5323  -3.4764  -3.4657  -3.4245  -3.4224
    -3.4102  -3.3961  -3.3710  -3.3517  -3.3430  -3.3291

          k = 0.5000-0.2887 0.0000 (****** PWs)   bands (ev):

   -76.1370 -76.1369 -76.0608 -76.0608 -76.0127 -76.0125 -75.9807 -75.9807
   -75.9767 -75.9327 -75.9300 -75.9300 -75.8507 -75.8507 -75.8505 -75.8503
   -75.7724 -75.7724 -47.4876 -47.4866 -47.4632 -47.4621 -47.4578 -47.4574
   -47.4084 -47.4084 -47.3880 -47.3880 -47.3822 -47.3822 -47.3521 -47.3519
   -47.3457 -47.3455 -47.3396 -47.3393 -47.3272 -47.3272 -47.3138 -47.3072
   -47.3059 -47.3059 -47.3045 -47.3013 -47.3013 -47.2711 -47.2696 -47.2696
   -47.2646 -47.2631 -47.2631 -47.2618 -47.2560 -47.2559 -47.1888 -47.1888
   -47.1885 -47.1884 -47.1835 -47.1835 -47.1816 -47.1815 -47.1796 -47.1795
   -47.1763 -47.1762 -47.1102 -47.1099 -47.1063 -47.1044 -47.0972 -47.0971
   -16.1871 -16.1185 -16.0220 -15.9705 -15.9337 -15.8683 -15.8514 -15.7684
   -15.6568 -15.6291 -15.5555 -15.5248 -15.5194 -15.4711 -15.4491 -15.3966
   -15.3641 -15.3543 -15.3496 -15.3124 -15.3085 -15.3000 -15.2966 -15.2772
   -15.2515 -15.2480 -15.2275 -15.2208 -15.2175 -15.2024 -15.1950 -15.1642
   -15.1626 -15.1442 -15.1389 -15.1255 -15.1222 -15.1040 -15.1031 -15.0768
   -15.0744 -15.0684 -15.0307 -15.0299 -15.0026 -14.9978 -14.9849 -14.9073
   -14.8802 -14.8796 -14.8183 -14.8154 -14.7421 -14.7133  -7.9288  -7.8938
    -7.7961  -7.7921  -7.7449  -7.7055  -7.6982  -7.5589  -7.5435  -7.3759
    -7.3321  -7.2922  -7.2486  -7.2440  -7.2252  -7.2194  -7.1423  -7.1249
    -6.9713  -6.9462  -6.9411  -6.8951  -6.8788  -6.8715  -6.8452  -6.8337
    -6.8264  -6.8123  -6.8017  -6.7673  -6.7651  -6.7536  -6.7106  -6.6980
    -6.6702  -6.6677  -6.6233  -6.6213  -6.6011  -6.5887  -6.5618  -6.5232
    -6.5203  -6.5066  -6.5016  -6.5012  -6.4703  -6.4545  -6.4328  -6.4082
    -6.3922  -6.3757  -6.3730  -6.3601  -6.3096  -6.3074  -6.2884  -6.2809
    -6.2668  -6.2483  -6.1952  -6.1869  -6.1251  -6.1163  -6.0784  -6.0660
    -6.0388  -6.0365  -6.0222  -5.9982  -5.9950  -5.9686  -5.9465  -5.9155
    -5.9116  -5.8990  -5.8984  -5.8723  -5.8630  -5.8428  -5.7930  -5.6724
    -5.6478  -5.6099  -5.5749  -5.5553  -5.5478  -5.5267  -5.5249  -5.5093
    -5.5061  -5.4899  -5.4785  -5.4656  -5.4481  -5.4331  -5.3950  -5.3788
    -5.3652  -5.3464  -5.3310  -5.2648  -5.2279  -5.2021  -5.1827  -5.1555
    -5.1267  -5.0845  -5.0802  -5.0628  -5.0480  -5.0248  -5.0012  -4.9964
    -4.9449  -4.9389  -4.9142  -4.8755  -4.8732  -4.8385  -4.8119  -4.8001
    -4.7861  -4.7790  -4.7349  -4.7345  -4.7173  -4.7031  -4.6864  -4.6666
    -4.6635  -4.6302  -4.6293  -4.6044  -4.5957  -4.5809  -4.5679  -4.5625
    -4.5472  -4.5089  -4.4723  -4.4710  -4.4588  -4.4586  -4.4392  -4.4274
    -4.4220  -4.4066  -4.4050  -4.3886  -4.3608  -4.2930  -4.2853  -4.2746
    -4.2659  -4.2335  -4.2206  -4.2122  -4.1998  -4.1848  -4.1738  -4.1597
    -4.1503  -4.1351  -4.1280  -4.0958  -4.0807  -4.0782  -4.0252  -4.0101
    -3.9907  -3.9688  -3.9404  -3.9311  -3.9125  -3.9119  -3.9066  -3.8926
    -3.8824  -3.8795  -3.8675  -3.8605  -3.8489  -3.8347  -3.8253  -3.8230
    -3.8062  -3.7973  -3.7896  -3.7717  -3.7638  -3.7393  -3.7259  -3.7089
    -3.6911  -3.6903  -3.6663  -3.6511  -3.6299  -3.6250  -3.6224  -3.6114
    -3.5753  -3.5750  -3.5555  -3.5308  -3.4970  -3.4499  -3.4484  -3.4247
    -3.4216  -3.3862  -3.3597  -3.3576  -3.3345  -3.3259

          k =-0.5000-0.2887 0.0000 (****** PWs)   bands (ev):

   -76.1370 -76.1369 -76.0608 -76.0608 -76.0127 -76.0125 -75.9807 -75.9807
   -75.9767 -75.9327 -75.9300 -75.9300 -75.8507 -75.8507 -75.8505 -75.8503
   -75.7724 -75.7724 -47.4876 -47.4866 -47.4632 -47.4621 -47.4578 -47.4574
   -47.4084 -47.4084 -47.3880 -47.3880 -47.3822 -47.3822 -47.3521 -47.3519
   -47.3457 -47.3455 -47.3396 -47.3393 -47.3272 -47.3272 -47.3138 -47.3072
   -47.3059 -47.3059 -47.3045 -47.3013 -47.3013 -47.2711 -47.2696 -47.2696
   -47.2646 -47.2631 -47.2631 -47.2618 -47.2560 -47.2559 -47.1888 -47.1888
   -47.1885 -47.1884 -47.1835 -47.1835 -47.1816 -47.1815 -47.1796 -47.1795
   -47.1763 -47.1762 -47.1102 -47.1099 -47.1063 -47.1044 -47.0972 -47.0971
   -16.1934 -16.0985 -16.0245 -15.9978 -15.9272 -15.8638 -15.8452 -15.7598
   -15.6898 -15.5929 -15.5686 -15.5203 -15.5163 -15.4635 -15.4511 -15.3950
   -15.3753 -15.3603 -15.3511 -15.3233 -15.3120 -15.3097 -15.2929 -15.2748
   -15.2512 -15.2410 -15.2302 -15.2174 -15.2062 -15.1960 -15.1817 -15.1724
   -15.1606 -15.1484 -15.1424 -15.1259 -15.1218 -15.1027 -15.1019 -15.0838
   -15.0756 -15.0625 -15.0338 -15.0283 -15.0039 -14.9958 -14.9871 -14.9087
   -14.8799 -14.8789 -14.8170 -14.8166 -14.7419 -14.7133  -7.9349  -7.8812
    -7.8193  -7.7821  -7.7665  -7.7049  -7.6418  -7.5970  -7.5258  -7.3749
    -7.3401  -7.2844  -7.2735  -7.2605  -7.2137  -7.1993  -7.1363  -7.1301
    -6.9743  -6.9480  -6.9361  -6.8975  -6.8739  -6.8667  -6.8390  -6.8368
    -6.8220  -6.8072  -6.7837  -6.7638  -6.7346  -6.7293  -6.7249  -6.7056
    -6.6980  -6.6760  -6.6522  -6.6453  -6.6289  -6.5974  -6.5635  -6.5489
    -6.5266  -6.5133  -6.4890  -6.4845  -6.4582  -6.4427  -6.4265  -6.4134
    -6.3991  -6.3899  -6.3814  -6.3332  -6.3223  -6.2927  -6.2799  -6.2696
    -6.2487  -6.2241  -6.1899  -6.1841  -6.1585  -6.1102  -6.0832  -6.0748
    -6.0596  -6.0419  -6.0210  -6.0018  -5.9823  -5.9805  -5.9599  -5.9189
    -5.9086  -5.8966  -5.8624  -5.8442  -5.8242  -5.8004  -5.7773  -5.7182
    -5.6491  -5.6207  -5.5983  -5.5927  -5.5734  -5.5533  -5.5325  -5.5256
    -5.5080  -5.4912  -5.4691  -5.4470  -5.4377  -5.4082  -5.3884  -5.3645
    -5.3462  -5.3202  -5.3035  -5.2656  -5.2434  -5.2275  -5.1999  -5.1486
    -5.1336  -5.1158  -5.0927  -5.0743  -5.0511  -5.0245  -5.0054  -4.9721
    -4.9510  -4.9162  -4.9051  -4.8939  -4.8762  -4.8525  -4.8126  -4.8016
    -4.7821  -4.7657  -4.7449  -4.7336  -4.7084  -4.6910  -4.6856  -4.6721
    -4.6661  -4.6419  -4.6184  -4.6041  -4.5968  -4.5665  -4.5535  -4.5440
    -4.5345  -4.5244  -4.5067  -4.4905  -4.4703  -4.4470  -4.4420  -4.4342
    -4.4121  -4.4056  -4.3822  -4.3753  -4.3455  -4.3049  -4.2916  -4.2733
    -4.2609  -4.2518  -4.2263  -4.2060  -4.1936  -4.1784  -4.1731  -4.1675
    -4.1589  -4.1466  -4.1185  -4.1118  -4.0843  -4.0627  -4.0413  -4.0033
    -3.9796  -3.9684  -3.9500  -3.9312  -3.9223  -3.9084  -3.8942  -3.8834
    -3.8813  -3.8691  -3.8553  -3.8534  -3.8455  -3.8369  -3.8316  -3.8179
    -3.8109  -3.7899  -3.7855  -3.7781  -3.7690  -3.7516  -3.7263  -3.7122
    -3.6895  -3.6824  -3.6609  -3.6456  -3.6367  -3.6292  -3.6163  -3.6037
    -3.5989  -3.5800  -3.5704  -3.5324  -3.4764  -3.4656  -3.4245  -3.4224
    -3.4102  -3.3961  -3.3710  -3.3517  -3.3430  -3.3291

 ------ SPIN DOWN ----------


          k = 0.0000 0.0000 0.0000 (****** PWs)   bands (ev):

   -72.9790 -72.9789 -72.9725 -72.9723 -72.9352 -72.9068 -72.9067 -72.8949
   -72.8928 -72.8928 -72.8342 -72.8342 -72.8185 -72.8185 -72.8157 -72.8156
   -72.7428 -72.7427 -44.3883 -44.3870 -44.3783 -44.3781 -44.3621 -44.3604
   -44.3477 -44.3475 -44.3391 -44.3349 -44.3346 -44.3318 -44.3316 -44.3121
   -44.3121 -44.3046 -44.3013 -44.3001 -44.2982 -44.2981 -44.2840 -44.2839
   -44.2692 -44.2692 -44.2672 -44.2672 -44.2656 -44.2623 -44.2542 -44.2542
   -44.2347 -44.2347 -44.2202 -44.2201 -44.2188 -44.2187 -44.2122 -44.2122
   -44.1954 -44.1954 -44.1930 -44.1930 -44.1868 -44.1866 -44.1837 -44.1836
   -44.1828 -44.1827 -44.1427 -44.1423 -44.1180 -44.1159 -44.1083 -44.1075
   -16.2127 -16.0795 -16.0318 -16.0035 -15.9701 -15.9095 -15.8816 -15.7344
   -15.6900 -15.6627 -15.6386 -15.5370 -15.5155 -15.5036 -15.4620 -15.4506
   -15.4285 -15.4035 -15.3932 -15.3748 -15.3733 -15.3586 -15.3431 -15.3212
   -15.3177 -15.2955 -15.2871 -15.2849 -15.2518 -15.2364 -15.2265 -15.2206
   -15.2133 -15.2022 -15.1748 -15.1743 -15.1634 -15.1501 -15.1448 -15.1331
   -15.1278 -15.1090 -15.0895 -15.0741 -15.0627 -15.0437 -15.0352 -14.9690
   -14.9508 -14.9446 -14.8862 -14.8832 -14.8111 -14.7843  -7.6654  -7.6177
    -7.5763  -7.5330  -7.5260  -7.4865  -7.4404  -7.1622  -7.1319  -7.1311
    -7.1176  -7.0837  -7.0439  -7.0189  -6.9956  -6.9769  -6.9053  -6.9026
    -6.8575  -6.8507  -6.8130  -6.7785  -6.7584  -6.7256  -6.6709  -6.6429
    -6.6291  -6.6093  -6.6004  -6.5553  -6.5458  -6.5451  -6.5271  -6.5244
    -6.4733  -6.4656  -6.4504  -6.4213  -6.4159  -6.4041  -6.3770  -6.3506
    -6.3431  -6.2985  -6.2963  -6.2932  -6.2534  -6.1859  -6.1476  -6.1355
    -6.1302  -6.0565  -6.0443  -6.0240  -6.0005  -5.9937  -5.9455  -5.9367
    -5.9345  -5.9272  -5.8849  -5.8795  -5.8551  -5.8112  -5.7945  -5.6189
    -5.6048  -5.5933  -5.5774  -5.5686  -5.5490  -5.5480  -5.5306  -5.5033
    -5.4975  -5.4966  -5.4844  -5.4536  -5.3998  -5.3973  -5.3846  -5.3627
    -5.3076  -5.2767  -5.2255  -5.2099  -5.1869  -5.1448  -5.1061  -5.1054
    -5.0955  -5.0610  -5.0251  -5.0175  -4.9820  -4.9786  -4.9657  -4.9585
    -4.9449  -4.9227  -4.9092  -4.8771  -4.8601  -4.8476  -4.8199  -4.8186
    -4.8007  -4.7852  -4.7717  -4.7714  -4.7482  -4.7461  -4.7218  -4.7145
    -4.6932  -4.6766  -4.6761  -4.6325  -4.6307  -4.5718  -4.5613  -4.5539
    -4.5501  -4.5451  -4.4742  -4.4572  -4.4478  -4.4469  -4.4076  -4.3774
    -4.3662  -4.3481  -4.3218  -4.3156  -4.3019  -4.2893  -4.2565  -4.2453
    -4.2335  -4.2193  -4.2093  -4.1719  -4.1104  -4.0732  -4.0688  -4.0562
    -4.0548  -3.9980  -3.9966  -3.9811  -3.9804  -3.9676  -3.9189  -3.8956
    -3.8675  -3.8326  -3.8151  -3.7653  -3.7239  -3.6876  -3.6151  -3.5913
    -1.5494  -1.5402  -1.5100  -1.5054  -1.4808  -1.4789  -1.4584  -1.4575
    -1.4196  -1.4112  -1.4051  -1.3994  -1.3782  -1.3711  -1.3466  -1.3346
    -1.3283  -1.3189  -1.3145  -1.2910  -1.2797  -1.2664  -1.2552  -1.2492
    -1.2426  -1.2260  -1.2055  -1.2016  -1.1906  -1.1674  -1.1393  -1.1218
    -1.1190  -1.1064  -1.1042  -1.0924  -1.0743  -1.0742  -1.0558  -1.0556
    -1.0483  -1.0469  -1.0296  -1.0255  -1.0238  -1.0124  -1.0094  -1.0047
    -0.9897  -0.9833  -0.9722  -0.9649  -0.9515  -0.9294

          k = 0.0000-0.5774 0.0000 (****** PWs)   bands (ev):

   -72.9790 -72.9789 -72.9725 -72.9723 -72.9352 -72.9068 -72.9067 -72.8949
   -72.8928 -72.8928 -72.8342 -72.8342 -72.8185 -72.8185 -72.8157 -72.8156
   -72.7428 -72.7427 -44.3883 -44.3870 -44.3783 -44.3781 -44.3621 -44.3604
   -44.3477 -44.3475 -44.3391 -44.3349 -44.3346 -44.3318 -44.3316 -44.3121
   -44.3121 -44.3046 -44.3013 -44.3001 -44.2982 -44.2981 -44.2840 -44.2839
   -44.2692 -44.2692 -44.2672 -44.2672 -44.2656 -44.2623 -44.2542 -44.2542
   -44.2347 -44.2347 -44.2202 -44.2201 -44.2188 -44.2187 -44.2122 -44.2122
   -44.1954 -44.1954 -44.1930 -44.1930 -44.1868 -44.1866 -44.1837 -44.1836
   -44.1828 -44.1827 -44.1427 -44.1423 -44.1180 -44.1159 -44.1083 -44.1075
   -16.2018 -16.1097 -16.0388 -16.0113 -15.9428 -15.8792 -15.8641 -15.7818
   -15.7185 -15.6248 -15.6028 -15.5557 -15.5497 -15.5025 -15.4977 -15.4448
   -15.4201 -15.4046 -15.3994 -15.3662 -15.3583 -15.3571 -15.3415 -15.3229
   -15.2959 -15.2866 -15.2764 -15.2666 -15.2559 -15.2428 -15.2333 -15.2222
   -15.2101 -15.1963 -15.1949 -15.1759 -15.1707 -15.1499 -15.1473 -15.1335
   -15.1258 -15.1075 -15.0916 -15.0836 -15.0588 -15.0452 -15.0340 -14.9682
   -14.9502 -14.9435 -14.8846 -14.8842 -14.8110 -14.7842  -7.6569  -7.6142
    -7.5571  -7.5206  -7.5127  -7.4530  -7.3899  -7.3481  -7.2762  -7.1247
    -7.0927  -7.0407  -7.0268  -7.0176  -6.9710  -6.9649  -6.9041  -6.8958
    -6.8587  -6.8341  -6.8129  -6.7649  -6.7297  -6.7153  -6.6855  -6.6608
    -6.6535  -6.6323  -6.6169  -6.5941  -6.5587  -6.5502  -6.5222  -6.4914
    -6.4893  -6.4668  -6.4560  -6.4293  -6.4254  -6.3861  -6.3348  -6.3214
    -6.3125  -6.2693  -6.2503  -6.2277  -6.1965  -6.1926  -6.1656  -6.1512
    -6.1301  -6.1100  -6.0955  -6.0791  -6.0439  -6.0271  -5.9750  -5.9618
    -5.9416  -5.8974  -5.8535  -5.8020  -5.8009  -5.6628  -5.6544  -5.6317
    -5.6241  -5.6045  -5.5807  -5.5720  -5.5489  -5.5335  -5.5148  -5.5038
    -5.4794  -5.4671  -5.4508  -5.4240  -5.4160  -5.3757  -5.3516  -5.3215
    -5.2996  -5.2835  -5.2453  -5.2381  -5.2225  -5.2130  -5.1891  -5.1683
    -5.1529  -5.1270  -5.1190  -5.0956  -5.0816  -5.0787  -5.0582  -5.0307
    -5.0065  -4.9543  -4.9365  -4.9316  -4.9221  -4.8894  -4.8744  -4.8600
    -4.8417  -4.8242  -4.8147  -4.7916  -4.7028  -4.6874  -4.6724  -4.6711
    -4.6429  -4.6242  -4.5893  -4.5749  -4.5627  -4.5413  -4.4961  -4.4938
    -4.4858  -4.4686  -4.4452  -4.4435  -4.4244  -4.4093  -4.3943  -4.3435
    -4.3239  -4.3056  -4.2966  -4.2834  -4.2646  -4.2502  -4.2345  -4.2132
    -4.1743  -4.1587  -4.1527  -4.1260  -4.1058  -4.0883  -4.0833  -4.0607
    -4.0588  -4.0331  -4.0072  -3.9838  -3.9606  -3.9523  -3.9473  -3.9089
    -3.9019  -3.8663  -3.8336  -3.8101  -3.7740  -3.7675  -3.7060  -3.6394
    -1.5548  -1.5522  -1.5244  -1.5154  -1.4927  -1.4722  -1.4667  -1.4522
    -1.4390  -1.4209  -1.4039  -1.3907  -1.3772  -1.3625  -1.3536  -1.3321
    -1.3178  -1.3063  -1.2845  -1.2783  -1.2662  -1.2517  -1.2479  -1.2359
    -1.2216  -1.2028  -1.1911  -1.1821  -1.1703  -1.1601  -1.1503  -1.1376
    -1.1334  -1.1304  -1.1223  -1.1051  -1.0970  -1.0835  -1.0778  -1.0708
    -1.0604  -1.0480  -1.0375  -1.0313  -1.0268  -1.0205  -1.0070  -1.0014
    -0.9971  -0.9817  -0.9737  -0.9572  -0.9384  -0.9268

          k = 0.5000-0.2887 0.0000 (****** PWs)   bands (ev):

   -72.9790 -72.9789 -72.9725 -72.9723 -72.9352 -72.9068 -72.9067 -72.8949
   -72.8928 -72.8928 -72.8342 -72.8342 -72.8185 -72.8185 -72.8157 -72.8156
   -72.7428 -72.7427 -44.3883 -44.3870 -44.3783 -44.3781 -44.3621 -44.3604
   -44.3477 -44.3475 -44.3391 -44.3349 -44.3346 -44.3318 -44.3316 -44.3121
   -44.3121 -44.3046 -44.3013 -44.3001 -44.2982 -44.2981 -44.2840 -44.2839
   -44.2692 -44.2692 -44.2672 -44.2672 -44.2656 -44.2623 -44.2542 -44.2542
   -44.2347 -44.2347 -44.2202 -44.2201 -44.2188 -44.2187 -44.2122 -44.2122
   -44.1954 -44.1954 -44.1930 -44.1930 -44.1868 -44.1866 -44.1837 -44.1836
   -44.1828 -44.1827 -44.1427 -44.1423 -44.1180 -44.1159 -44.1083 -44.1075
   -16.1957 -16.1291 -16.0361 -15.9852 -15.9489 -15.8862 -15.8657 -15.7918
   -15.6904 -15.6595 -15.5863 -15.5611 -15.5508 -15.5063 -15.4985 -15.4464
   -15.4126 -15.3986 -15.3979 -15.3568 -15.3544 -15.3468 -15.3437 -15.3246
   -15.2987 -15.2939 -15.2740 -15.2687 -15.2678 -15.2497 -15.2456 -15.2157
   -15.2140 -15.1905 -15.1855 -15.1761 -15.1717 -15.1513 -15.1507 -15.1260
   -15.1224 -15.1147 -15.0888 -15.0847 -15.0591 -15.0464 -15.0316 -14.9674
   -14.9509 -14.9435 -14.8862 -14.8827 -14.8112 -14.7841  -7.6524  -7.6219
    -7.5386  -7.5356  -7.4842  -7.4552  -7.4446  -7.3112  -7.2941  -7.1260
    -7.0836  -7.0479  -7.0064  -7.0047  -6.9819  -6.9721  -6.9073  -6.8930
    -6.8490  -6.8377  -6.8224  -6.7549  -6.7263  -6.7101  -6.7036  -6.6852
    -6.6564  -6.6469  -6.6344  -6.5750  -6.5741  -6.5636  -6.5353  -6.4938
    -6.4615  -6.4434  -6.4174  -6.4091  -6.3868  -6.3694  -6.3545  -6.3256
    -6.2975  -6.2929  -6.2740  -6.2296  -6.2248  -6.1907  -6.1589  -6.1494
    -6.1413  -6.1170  -6.0830  -6.0582  -5.9953  -5.9898  -5.9866  -5.9726
    -5.9498  -5.9331  -5.9204  -5.8091  -5.7688  -5.6947  -5.6692  -5.6546
    -5.6277  -5.5904  -5.5614  -5.5600  -5.5548  -5.5288  -5.5032  -5.4861
    -5.4843  -5.4715  -5.4655  -5.4371  -5.4089  -5.4054  -5.3690  -5.2981
    -5.2893  -5.2638  -5.2481  -5.2228  -5.2188  -5.2029  -5.1826  -5.1772
    -5.1557  -5.1420  -5.1285  -5.0992  -5.0727  -5.0712  -5.0347  -5.0233
    -5.0062  -4.9662  -4.9562  -4.9355  -4.9164  -4.9099  -4.8596  -4.8466
    -4.8348  -4.8189  -4.8189  -4.7015  -4.7014  -4.6962  -4.6763  -4.6604
    -4.6518  -4.6378  -4.6214  -4.6068  -4.5627  -4.5379  -4.5183  -4.5178
    -4.4982  -4.4531  -4.4304  -4.4254  -4.4033  -4.3900  -4.3738  -4.3469
    -4.3330  -4.3192  -4.2883  -4.2835  -4.2717  -4.2416  -4.2394  -4.2338
    -4.2114  -4.1884  -4.1568  -4.1191  -4.0960  -4.0833  -4.0732  -4.0449
    -4.0359  -4.0343  -4.0235  -3.9889  -3.9601  -3.9532  -3.9477  -3.9258
    -3.9075  -3.8396  -3.8394  -3.8282  -3.8161  -3.6943  -3.6882  -3.6636
    -1.5653  -1.5550  -1.5219  -1.5104  -1.4958  -1.4847  -1.4705  -1.4425
    -1.4309  -1.4198  -1.3995  -1.3953  -1.3798  -1.3586  -1.3512  -1.3341
    -1.3045  -1.2950  -1.2847  -1.2726  -1.2619  -1.2469  -1.2455  -1.2317
    -1.2294  -1.2106  -1.1951  -1.1883  -1.1697  -1.1648  -1.1558  -1.1460
    -1.1355  -1.1162  -1.1128  -1.1050  -1.0998  -1.0879  -1.0852  -1.0824
    -1.0752  -1.0505  -1.0374  -1.0248  -1.0236  -1.0205  -1.0182  -1.0012
    -0.9965  -0.9762  -0.9685  -0.9651  -0.9353  -0.9186

          k =-0.5000-0.2887 0.0000 (****** PWs)   bands (ev):

   -72.9790 -72.9789 -72.9725 -72.9723 -72.9352 -72.9068 -72.9067 -72.8949
   -72.8928 -72.8928 -72.8342 -72.8342 -72.8185 -72.8185 -72.8157 -72.8156
   -72.7428 -72.7427 -44.3883 -44.3870 -44.3783 -44.3781 -44.3621 -44.3604
   -44.3477 -44.3475 -44.3391 -44.3349 -44.3346 -44.3318 -44.3316 -44.3121
   -44.3121 -44.3046 -44.3013 -44.3001 -44.2982 -44.2981 -44.2840 -44.2839
   -44.2692 -44.2692 -44.2672 -44.2672 -44.2656 -44.2623 -44.2542 -44.2542
   -44.2347 -44.2347 -44.2202 -44.2201 -44.2188 -44.2187 -44.2122 -44.2122
   -44.1954 -44.1954 -44.1930 -44.1930 -44.1868 -44.1866 -44.1837 -44.1836
   -44.1828 -44.1827 -44.1427 -44.1423 -44.1180 -44.1159 -44.1083 -44.1075
   -16.2018 -16.1096 -16.0389 -16.0114 -15.9427 -15.8791 -15.8642 -15.7818
   -15.7185 -15.6247 -15.6028 -15.5558 -15.5497 -15.5025 -15.4977 -15.4448
   -15.4200 -15.4047 -15.3995 -15.3661 -15.3584 -15.3571 -15.3414 -15.3230
   -15.2958 -15.2866 -15.2764 -15.2667 -15.2558 -15.2428 -15.2333 -15.2222
   -15.2101 -15.1963 -15.1949 -15.1758 -15.1707 -15.1499 -15.1473 -15.1335
   -15.1259 -15.1075 -15.0915 -15.0836 -15.0588 -15.0452 -15.0340 -14.9682
   -14.9502 -14.9435 -14.8846 -14.8842 -14.8110 -14.7842  -7.6569  -7.6141
    -7.5576  -7.5204  -7.5128  -7.4527  -7.3898  -7.3481  -7.2763  -7.1249
    -7.0927  -7.0404  -7.0267  -7.0177  -6.9712  -6.9648  -6.9041  -6.8959
    -6.8587  -6.8341  -6.8129  -6.7651  -6.7294  -6.7151  -6.6856  -6.6607
    -6.6534  -6.6327  -6.6168  -6.5942  -6.5587  -6.5502  -6.5222  -6.4913
    -6.4896  -6.4670  -6.4560  -6.4292  -6.4250  -6.3860  -6.3348  -6.3215
    -6.3123  -6.2694  -6.2501  -6.2280  -6.1965  -6.1926  -6.1656  -6.1512
    -6.1302  -6.1101  -6.0955  -6.0793  -6.0440  -6.0269  -5.9749  -5.9618
    -5.9417  -5.8975  -5.8536  -5.8021  -5.8009  -5.6626  -5.6544  -5.6318
    -5.6242  -5.6040  -5.5802  -5.5720  -5.5489  -5.5336  -5.5151  -5.5042
    -5.4795  -5.4670  -5.4505  -5.4240  -5.4161  -5.3757  -5.3517  -5.3214
    -5.2997  -5.2834  -5.2451  -5.2381  -5.2227  -5.2129  -5.1892  -5.1682
    -5.1530  -5.1270  -5.1189  -5.0956  -5.0816  -5.0786  -5.0582  -5.0308
    -5.0065  -4.9543  -4.9365  -4.9316  -4.9221  -4.8894  -4.8744  -4.8600
    -4.8418  -4.8240  -4.8146  -4.7916  -4.7029  -4.6875  -4.6724  -4.6712
    -4.6429  -4.6242  -4.5893  -4.5749  -4.5627  -4.5413  -4.4959  -4.4938
    -4.4857  -4.4686  -4.4451  -4.4435  -4.4243  -4.4093  -4.3942  -4.3436
    -4.3239  -4.3057  -4.2967  -4.2832  -4.2646  -4.2502  -4.2345  -4.2133
    -4.1744  -4.1587  -4.1526  -4.1260  -4.1058  -4.0883  -4.0833  -4.0607
    -4.0588  -4.0332  -4.0072  -3.9838  -3.9606  -3.9523  -3.9473  -3.9088
    -3.9020  -3.8663  -3.8335  -3.8102  -3.7740  -3.7674  -3.7060  -3.6394
    -1.5551  -1.5516  -1.5249  -1.5145  -1.4923  -1.4734  -1.4678  -1.4524
    -1.4388  -1.4211  -1.4029  -1.3905  -1.3775  -1.3614  -1.3537  -1.3325
    -1.3174  -1.3056  -1.2842  -1.2788  -1.2658  -1.2520  -1.2501  -1.2353
    -1.2215  -1.2020  -1.1908  -1.1822  -1.1703  -1.1597  -1.1516  -1.1380
    -1.1332  -1.1308  -1.1221  -1.1048  -1.0966  -1.0839  -1.0780  -1.0710
    -1.0597  -1.0483  -1.0373  -1.0310  -1.0269  -1.0208  -1.0070  -1.0009
    -0.9972  -0.9817  -0.9736  -0.9575  -0.9385  -0.9268

     highest occupied, lowest unoccupied level (ev):    -3.3254   -1.5653

!    total energy              =  -24931.16259093 Ry
     total all-electron energy =    -24931.162591 Ry
     estimated scf accuracy    <          9.0E-11 Ry

     The total energy is the sum of the following terms:
     one-electron contribution =  -25177.28419362 Ry
     hartree contribution      =   12523.79123441 Ry
     xc contribution           =    -743.78107505 Ry
     ewald contribution        =    8913.20911809 Ry
     Hubbard energy            =       0.01602330 Ry
     one-center paw contrib.   =  -20447.11369805 Ry

     total magnetization       =    54.00 Bohr mag/cell
     absolute magnetization    =    65.40 Bohr mag/cell

     convergence has been achieved in  12 iterations

     negative rho (up, down):  1.304E-01 1.475E-01

     Forces acting on atoms (cartesian axes, Ry/au):

     atom    1 type  1   force =    -0.00112486   -0.00197402    0.00012032
     atom    2 type  3   force =    -0.00245967   -0.00777778    0.00226482
     atom    3 type  3   force =    -0.00550461   -0.00601821    0.00226528
     atom    4 type  2   force =     0.00487070   -0.02270508   -0.00065679
     atom    5 type  2   force =    -0.00320508   -0.00555911   -0.00949221
     atom    6 type  2   force =    -0.02210389   -0.00713645   -0.00065796
     atom    7 type  2   force =     0.00731204   -0.02442474   -0.00194502
     atom    8 type  2   force =     0.00247103    0.00427404    0.00888846
     atom    9 type  2   force =    -0.02481229   -0.00588361   -0.00194343
     atom   10 type  3   force =    -0.00177060   -0.00209607    0.00022884
     atom   11 type  3   force =    -0.00562129   -0.00546454    0.00214604
     atom   12 type  2   force =     0.00494545    0.00062412   -0.00970786
     atom   13 type  2   force =    -0.00289865   -0.00482877   -0.00926265
     atom   14 type  2   force =    -0.02182107   -0.00648093   -0.00078137
     atom   15 type  2   force =    -0.00561002    0.00087639    0.00924584
     atom   16 type  2   force =     0.00235665    0.00469271    0.00945644
     atom   17 type  2   force =    -0.02497499   -0.00541905   -0.00195984
     atom   18 type  3   force =    -0.00134533   -0.00138968   -0.00052505
     atom   19 type  3   force =    -0.01444207    0.02876853    0.00308872
     atom   20 type  2   force =     0.00466459    0.00073168   -0.00975720
     atom   21 type  2   force =    -0.00418064    0.00236431   -0.00760051
     atom   22 type  2   force =    -0.01977230   -0.00451766    0.00137866
     atom   23 type  2   force =    -0.00560546    0.00077234    0.00953119
     atom   24 type  2   force =    -0.00279641    0.01174597    0.00748380
     atom   25 type  2   force =    -0.02316296    0.00011937   -0.00335645
     atom   26 type  3   force =    -0.00192095   -0.00760154    0.00214561
     atom   27 type  3   force =    -0.00093074   -0.00256022    0.00022972
     atom   28 type  2   force =     0.00529694   -0.02213173   -0.00078006
     atom   29 type  2   force =    -0.00272618   -0.00493357   -0.00926068
     atom   30 type  2   force =    -0.00194076    0.00459076   -0.00970898
     atom   31 type  2   force =     0.00779542   -0.02433381   -0.00196086
     atom   32 type  2   force =     0.00289292    0.00438283    0.00945738
     atom   33 type  2   force =     0.00355839   -0.00442822    0.00924330
     atom   34 type  3   force =    -0.00113023   -0.00196898    0.00011984
     atom   35 type  2   force =     0.00553433    0.00108328   -0.00995307
     atom   36 type  2   force =    -0.00261478   -0.00433932   -0.00928190
     atom   37 type  2   force =    -0.00172483    0.00533215   -0.00986130
     atom   38 type  2   force =    -0.00518510    0.00087726    0.00937496
     atom   39 type  2   force =     0.00274206    0.00493839    0.01007854
     atom   40 type  2   force =     0.00340132   -0.00395753    0.00928662
     atom   41 type  3   force =    -0.00067829   -0.00120987   -0.00063880
     atom   42 type  3   force =    -0.00990667    0.03240386    0.00109837
     atom   43 type  2   force =     0.00517165    0.00123595   -0.00990445
     atom   44 type  2   force =    -0.00376814    0.00280885   -0.00757544
     atom   45 type  2   force =    -0.00022089    0.00755231   -0.00794170
     atom   46 type  2   force =    -0.00513800    0.00081835    0.00956405
     atom   47 type  2   force =    -0.00238073    0.01192875    0.00802016
     atom   48 type  2   force =     0.00497851    0.00145623    0.00795419
     atom   49 type  3   force =     0.03213206    0.00187590    0.00308804
     atom   50 type  3   force =    -0.00053165   -0.00186039   -0.00052472
     atom   51 type  2   force =     0.00597334   -0.01937577    0.00137953
     atom   52 type  2   force =     0.00414458   -0.00244305   -0.00760099
     atom   53 type  2   force =    -0.00170518    0.00440112   -0.00975766
     atom   54 type  2   force =     0.01168574   -0.01999583   -0.00335785
     atom   55 type  2   force =     0.01157700    0.00344774    0.00748451
     atom   56 type  2   force =     0.00346537   -0.00447242    0.00953179
     atom   57 type  3   force =     0.03301510    0.00761995    0.00109769
     atom   58 type  3   force =    -0.00072421   -0.00120090   -0.00063778
     atom   59 type  2   force =     0.00665146    0.00359382   -0.00794225
     atom   60 type  2   force =     0.00432418   -0.00186369   -0.00757636
     atom   61 type  2   force =    -0.00146834    0.00519155   -0.00999195
     atom   62 type  2   force =    -0.00122796    0.00504709    0.00795460
     atom   63 type  2   force =     0.01152946    0.00390185    0.00801804
     atom   64 type  2   force =     0.00338271   -0.00404180    0.00965475
     atom   65 type  3   force =     0.03346043    0.00837619    0.00038793
     atom   66 type  3   force =    -0.00947784    0.03316650    0.00038881
     atom   67 type  2   force =     0.00636171    0.00365299   -0.00799103
     atom   68 type  2   force =     0.00304680    0.00527083   -0.00612875
     atom   69 type  2   force =    -0.00002298    0.00732868   -0.00799320
     atom   70 type  2   force =    -0.00131239    0.00478425    0.00826506
     atom   71 type  2   force =     0.00641496    0.01110469    0.00583029
     atom   72 type  2   force =     0.00479211    0.00125277    0.00826394

     Total force =     0.137457     Total SCF correction =     0.000014


     Computing stress (Cartesian axis) and pressure


     negative rho (up, down):  1.304E-01 1.475E-01
          total   stress  (Ry/bohr**3)                   (kbar)     P=        1.84
   0.00001241  -0.00000122   0.00000070            1.83       -0.18        0.10
  -0.00000122   0.00001100   0.00000121           -0.18        1.62        0.18
   0.00000070   0.00000121   0.00001420            0.10        0.18        2.09


     Writing all to output data dir ./Cr_0.05_0/Cr_0_0.save/ :
     XML data file, charge density, pseudopotentials, collected wavefunctions

     init_run     :    206.24s CPU    125.65s WALL (       1 calls)
     electrons    :   3357.60s CPU   1813.86s WALL (       1 calls)
     forces       :   2445.86s CPU   1640.58s WALL (       1 calls)
     stress       :   6097.48s CPU   5043.27s WALL (       1 calls)

     Called by init_run:
     wfcinit      :    187.62s CPU    105.60s WALL (       1 calls)
     potinit      :      3.69s CPU      4.20s WALL (       1 calls)
     hinit0       :      2.40s CPU      2.80s WALL (       1 calls)

     Called by electrons:
     c_bands      :   2904.62s CPU   1542.48s WALL (      13 calls)
     sum_band     :    402.59s CPU    227.68s WALL (      13 calls)
     v_of_rho     :     16.96s CPU     14.20s WALL (      13 calls)
     newd         :     23.69s CPU     23.51s WALL (      13 calls)
     PAW_pot      :      8.64s CPU      6.09s WALL (      13 calls)
     mix_rho      :      2.42s CPU      1.89s WALL (      13 calls)

     Called by c_bands:
     init_us_2    :     22.85s CPU     11.78s WALL (     256 calls)
     init_us_2:cp :     22.85s CPU     11.78s WALL (     256 calls)
     cegterg      :   2877.73s CPU   1526.23s WALL (     104 calls)

     Called by *egterg:
     cdiaghg      :    307.55s CPU    176.04s WALL (     553 calls)
     h_psi        :   1727.91s CPU    889.81s WALL (     569 calls)
     s_psi        :    225.46s CPU    113.61s WALL (     609 calls)
     g_psi        :      5.94s CPU      3.02s WALL (     457 calls)

     Called by h_psi:
     h_psi:calbec :    214.15s CPU    111.24s WALL (     569 calls)
     vloc_psi     :   1295.92s CPU    661.00s WALL (     569 calls)
     add_vuspsi   :    185.92s CPU     93.95s WALL (     569 calls)
     vhpsi        :     26.65s CPU     14.49s WALL (     569 calls)

     General routines
     calbec       :   2385.20s CPU   1236.21s WALL (   56810 calls)
     fft          :     18.51s CPU     18.84s WALL (     365 calls)
     ffts         :      2.29s CPU      2.19s WALL (      52 calls)
     fftw         :   1162.87s CPU    596.11s WALL (  254244 calls)
     interpolate  :      2.72s CPU      2.35s WALL (      26 calls)

     Parallel routines

     Hubbard U routines
     new_ns       :      5.84s CPU      4.17s WALL (      13 calls)
     vhpsi        :     26.65s CPU     14.49s WALL (     569 calls)
     force_hub    :   2413.89s CPU   1622.51s WALL (       1 calls)
                                        0.00s GPU  (       1 calls)
     stres_hub    :   5557.75s CPU   4758.34s WALL (       1 calls)
                                        0.00s GPU  (       1 calls)

     PWSCF        :      3h22m CPU      2h24m WALL


   This run was terminated on:  22:31:27  26Sep2025            

=------------------------------------------------------------------------------=
   JOB DONE.
=------------------------------------------------------------------------------=
