
     Program PWSCF v.7.3 starts on 26Sep2025 at 20: 7: 0 

     This program is part of the open-source Quantum ESPRESSO suite
     for quantum simulation of materials; please cite
         "P. Giannozzi et al., J. Phys.:Condens. Matter 21 395502 (2009);
         "P. Giannozzi et al., J. Phys.:Condens. Matter 29 465901 (2017);
         "P. Giannozzi et al., J. Chem. Phys. 152 154105 (2020);
          URL http://www.quantum-espresso.org", 
     in publications or presentations arising from this work. More details at
     http://www.quantum-espresso.org/quote

     Parallel version (MPI & OpenMP), running on     256 processor cores
     Number of MPI processes:               128
     Threads/MPI process:                     2

     MPI processes distributed on     2 nodes
     437750 MiB available memory on the printing compute node when the environment starts

     Reading input from Cr_0.1_0.in
Warning: card &CELL ignored
Warning: card / ignored
Warning: card &FCP ignored
Warning: card / ignored
Warning: card &RISM ignored
Warning: card / ignored

     Current dimensions of program PWSCF are:
     Max number of different atomic species (ntypx) = 10
     Max number of k-points (npk) =  40000
     Max angular momentum in pseudopotentials (lmaxx) =  4
read_pp_mesh; mismatch in mesh size, discarding the one in header
read_pp_mesh; mismatch in mesh size, discarding the one in header
read_pp_mesh; mismatch in mesh size, discarding the one in header
     file Cr.GGA-PBE-paw.UPF: wavefunction(s)  3S 4S 3P 4P 3D 4D renormalized
     file I.GGA-PBE-paw.UPF: wavefunction(s)  6S 6P renormalized
     file Cr.GGA-PBE-paw.UPF: wavefunction(s)  3S 4S 3P 4P 3D 4D renormalized

     IMPORTANT: XC functional enforced from input :
     Exchange-correlation= PBE
                           (   1   4   3   4   0   0   0)
     Any further DFT definition will be discarded
     Please, verify this is what you really want


     R & G space division:  proc/nbgrp/npool/nimage =     128
     Subspace diagonalization in iterative solution of the eigenvalue problem:
     one sub-group per band group will be used
     ELPA distributed-memory algorithm (size of sub-group:  3*  3 procs)


     Parallelization info
     --------------------
     sticks:   dense  smooth     PW     G-vecs:    dense   smooth      PW
     Min         509     305     78               140391    65241    8388
     Max         510     306     79               140404    65254    8400
     Sum       65263   39121   9985             17971031  8351671 1074593

     Using Slab Decomposition



     bravais-lattice index     =            0
     lattice parameter (alat)  =      39.7293  a.u.
     unit-cell volume          =   72410.5124 (a.u.)^3
     number of atoms/cell      =           72
     number of atomic types    =            3
     number of electrons       =       630.00 (up: 342.00, down: 288.00)
     number of Kohn-Sham states=          342
     kinetic-energy cutoff     =      90.0000  Ry
     charge density cutoff     =     600.0000  Ry
     scf convergence threshold =      1.0E-10
     mixing beta               =       0.3000
     number of iterations used =            8  plain     mixing
     Exchange-correlation= PBE
                           (   1   4   3   4   0   0   0)
     Hubbard projectors: ortho-atomic
     Hubbard parameters of DFT+U (Dudarev formulation) in eV:
     U(Cr1-3d) =  0.0000
     J0(Cr1-3d) =  0.0000
     alpha(Cr1-3d) =  0.1000

     Internal variables: lda_plus_u =T, lda_plus_u_kind = 0

     celldm(1)=  39.729285  celldm(2)=   0.000000  celldm(3)=   0.000000
     celldm(4)=   0.000000  celldm(5)=   0.000000  celldm(6)=   0.000000

     crystal axes: (cart. coord. in units of alat)
               a(1) = (   1.000000   0.000000   0.000000 )  
               a(2) = (  -0.500000   0.866025   0.000000 )  
               a(3) = (   0.000000   0.000000   1.333333 )  

     reciprocal axes: (cart. coord. in units 2 pi/alat)
               b(1) = (  1.000000  0.577350 -0.000000 )  
               b(2) = (  0.000000  1.154701  0.000000 )  
               b(3) = (  0.000000 -0.000000  0.750000 )  


     PseudoPot. # 1 for Cr read from file:
     ./Cr.GGA-PBE-paw.UPF
     MD5 check sum: 389087661106aa6caf57455f2e439c97
     Pseudo is Projector augmented-wave + core cor, Zval = 14.0
     Generated using ATOMPAW code
     Shape of augmentation charge: SINC**2
     Using radial grid of 2342 points,  6 beta functions with: 
                l(1) =   0
                l(2) =   0
                l(3) =   1
                l(4) =   1
                l(5) =   2
                l(6) =   2
     Q(r) pseudized with 0 coefficients 


     PseudoPot. # 2 for I  read from file:
     ./I.GGA-PBE-paw.UPF
     MD5 check sum: 736bb4145856fa7ed29d0984862794a4
     Pseudo is Projector augmented-wave + core cor, Zval =  7.0
     Generated using ATOMPAW code
     Shape of augmentation charge: SINC**2
     Using radial grid of 2342 points,  4 beta functions with: 
                l(1) =   0
                l(2) =   0
                l(3) =   1
                l(4) =   1
     Q(r) pseudized with 0 coefficients 


     PseudoPot. # 3 for Cr read from file:
     ./Cr.GGA-PBE-paw.UPF
     MD5 check sum: 389087661106aa6caf57455f2e439c97
     Pseudo is Projector augmented-wave + core cor, Zval = 14.0
     Generated using ATOMPAW code
     Shape of augmentation charge: SINC**2
     Using radial grid of 2342 points,  6 beta functions with: 
                l(1) =   0
                l(2) =   0
                l(3) =   1
                l(4) =   1
                l(5) =   2
                l(6) =   2
     Q(r) pseudized with 0 coefficients 


     atomic species   valence    mass     pseudopotential
     Cr1              14.00    51.99610     Cr( 1.00)
     I                 7.00   126.90447     I ( 1.00)
     Cr               14.00    51.99610     Cr( 1.00)

     Starting magnetic structure 
     atomic species   magnetization
     Cr1             0.214
     I               0.000
     Cr              0.214

     No symmetry found



   Cartesian axes

     site n.     atom                  positions (alat units)
         1        Cr1    tau(   1) = (   0.3271041   0.3777073   0.4295967  )
         2        Cr     tau(   2) = (   0.1635521   0.0944268   0.4295967  )
         3        Cr     tau(   3) = (   0.0000000   0.1888536   0.4295967  )
         4        I      tau(   4) = (   0.2103614  -0.0000006   0.3558127  )
         5        I      tau(   5) = (   0.0583708   0.1011024   0.3558127  )
         6        I      tau(   6) = (  -0.1051802   0.1821787   0.3558127  )
         7        I      tau(   7) = (   0.1167427  -0.0000005   0.5033806  )
         8        I      tau(   8) = (   0.1051802   0.1821786   0.5033806  )
         9        I      tau(   9) = (  -0.0583709   0.1011024   0.5033806  )
        10        Cr     tau(  10) = (  -0.0000000   0.3777073   0.4295967  )
        11        Cr     tau(  11) = (  -0.1635521   0.4721341   0.4295967  )
        12        I      tau(  12) = (   0.0468094   0.2832798   0.3558127  )
        13        I      tau(  13) = (  -0.1051813   0.3843829   0.3558127  )
        14        I      tau(  14) = (  -0.2687322   0.4654591   0.3558127  )
        15        I      tau(  15) = (  -0.0468094   0.2832799   0.5033806  )
        16        I      tau(  16) = (  -0.0583718   0.4654591   0.5033806  )
        17        I      tau(  17) = (  -0.2219229   0.3843829   0.5033806  )
        18        Cr     tau(  18) = (  -0.1635521   0.6609878   0.4295967  )
        19        Cr     tau(  19) = (  -0.3271041   0.7554146   0.4295967  )
        20        I      tau(  20) = (  -0.1167427   0.5665603   0.3558127  )
        21        I      tau(  21) = (  -0.2687333   0.6676634   0.3558127  )
        22        I      tau(  22) = (  -0.4322843   0.7487396   0.3558127  )
        23        I      tau(  23) = (  -0.2103614   0.5665604   0.5033806  )
        24        I      tau(  24) = (  -0.2219239   0.7487396   0.5033806  )
        25        I      tau(  25) = (  -0.3854750   0.6676633   0.5033806  )
        26        Cr     tau(  26) = (   0.4906562   0.0944268   0.4295967  )
        27        Cr     tau(  27) = (   0.3271041   0.1888536   0.4295967  )
        28        I      tau(  28) = (   0.5374655  -0.0000006   0.3558127  )
        29        I      tau(  29) = (   0.3854749   0.1011024   0.3558127  )
        30        I      tau(  30) = (   0.2219239   0.1821787   0.3558127  )
        31        I      tau(  31) = (   0.4438468  -0.0000005   0.5033806  )
        32        I      tau(  32) = (   0.4322844   0.1821786   0.5033806  )
        33        I      tau(  33) = (   0.2687332   0.1011024   0.5033806  )
        34        Cr     tau(  34) = (   0.1635521   0.4721341   0.4295967  )
        35        I      tau(  35) = (   0.3739135   0.2832798   0.3558127  )
        36        I      tau(  36) = (   0.2219229   0.3843829   0.3558127  )
        37        I      tau(  37) = (   0.0583719   0.4654591   0.3558127  )
        38        I      tau(  38) = (   0.2802947   0.2832799   0.5033806  )
        39        I      tau(  39) = (   0.2687323   0.4654591   0.5033806  )
        40        I      tau(  40) = (   0.1051812   0.3843829   0.5033806  )
        41        Cr     tau(  41) = (   0.1635521   0.6609878   0.4295967  )
        42        Cr     tau(  42) = (   0.0000000   0.7554146   0.4295967  )
        43        I      tau(  43) = (   0.2103614   0.5665603   0.3558127  )
        44        I      tau(  44) = (   0.0583708   0.6676634   0.3558127  )
        45        I      tau(  45) = (  -0.1051802   0.7487396   0.3558127  )
        46        I      tau(  46) = (   0.1167427   0.5665604   0.5033806  )
        47        I      tau(  47) = (   0.1051802   0.7487396   0.5033806  )
        48        I      tau(  48) = (  -0.0583709   0.6676633   0.5033806  )
        49        Cr     tau(  49) = (   0.8177603   0.0944268   0.4295967  )
        50        Cr     tau(  50) = (   0.6542082   0.1888536   0.4295967  )
        51        I      tau(  51) = (   0.8645697  -0.0000006   0.3558127  )
        52        I      tau(  52) = (   0.7125790   0.1011024   0.3558127  )
        53        I      tau(  53) = (   0.5490281   0.1821787   0.3558127  )
        54        I      tau(  54) = (   0.7709509  -0.0000005   0.5033806  )
        55        I      tau(  55) = (   0.7593885   0.1821786   0.5033806  )
        56        I      tau(  56) = (   0.5958374   0.1011024   0.5033806  )
        57        Cr     tau(  57) = (   0.6542082   0.3777073   0.4295967  )
        58        Cr     tau(  58) = (   0.4906562   0.4721341   0.4295967  )
        59        I      tau(  59) = (   0.7010176   0.2832798   0.3558127  )
        60        I      tau(  60) = (   0.5490270   0.3843829   0.3558127  )
        61        I      tau(  61) = (   0.3854760   0.4654591   0.3558127  )
        62        I      tau(  62) = (   0.6073989   0.2832799   0.5033806  )
        63        I      tau(  63) = (   0.5958364   0.4654591   0.5033806  )
        64        I      tau(  64) = (   0.4322853   0.3843829   0.5033806  )
        65        Cr     tau(  65) = (   0.4906562   0.6609878   0.4295967  )
        66        Cr     tau(  66) = (   0.3271041   0.7554146   0.4295967  )
        67        I      tau(  67) = (   0.5374655   0.5665603   0.3558127  )
        68        I      tau(  68) = (   0.3854749   0.6676634   0.3558127  )
        69        I      tau(  69) = (   0.2219239   0.7487396   0.3558127  )
        70        I      tau(  70) = (   0.4438468   0.5665604   0.5033806  )
        71        I      tau(  71) = (   0.4322844   0.7487396   0.5033806  )
        72        I      tau(  72) = (   0.2687332   0.6676633   0.5033806  )

     number of k points=     4
                       cart. coord. in units 2pi/alat
        k(    1) = (   0.0000000   0.0000000   0.0000000), wk =   0.2500000
        k(    2) = (   0.0000000  -0.5773503   0.0000000), wk =   0.2500000
        k(    3) = (   0.5000000  -0.2886751   0.0000000), wk =   0.2500000
        k(    4) = (  -0.5000000  -0.2886751   0.0000000), wk =   0.2500000

     Dense  grid: 17971031 G-vectors     FFT dimensions: ( 320, 320, 432)

     Smooth grid:  8351671 G-vectors     FFT dimensions: ( 240, 240, 320)

     Estimated max dynamical RAM per process >       1.67 GB

     Estimated total dynamical RAM >     213.14 GB
     Generating pointlists ...
     new r_m :   0.0531 (alat units)  2.1084 (a.u.) for type    1
     new r_m :   0.0531 (alat units)  2.1084 (a.u.) for type    2
     new r_m :   0.0531 (alat units)  2.1084 (a.u.) for type    3

     The initial density is read from file :
     ./Cr_0.1_0/Cr_0_0.save/charge-density


     negative rho (up, down):  1.304E-01 1.474E-01

     STARTING HUBBARD OCCUPATIONS:

     =================== HUBBARD OCCUPATIONS ===================
     ------------------------ ATOM    1 ------------------------
     Tr[ns(  1)] (up, down, total) =   3.59974  0.76815  4.36789
     Atomic magnetic moment for atom   1 =   2.83159
     SPIN  1
     eigenvalues:
       0.445  0.446  0.901  0.901  0.907
     eigenvectors (columns):
      -0.000  0.000 -0.031 -0.030  0.999
      -0.800  0.188  0.535  0.197  0.022
      -0.188 -0.801  0.197 -0.534 -0.010
       0.556 -0.130  0.770  0.283  0.032
      -0.130 -0.554 -0.284  0.772  0.014
     occupation matrix ns (before diag.):
       0.907  0.000 -0.000  0.000  0.000
       0.000  0.593 -0.000  0.214 -0.000
      -0.000 -0.000  0.594  0.000 -0.213
       0.000  0.214  0.000  0.752  0.000
       0.000 -0.000 -0.213  0.000  0.754
     SPIN  2
     eigenvalues:
       0.078  0.086  0.087  0.258  0.259
     eigenvectors (columns):
      -0.999  0.034 -0.028  0.001 -0.000
      -0.022 -0.542  0.133  0.800 -0.218
       0.011 -0.133 -0.540  0.218  0.802
      -0.033 -0.805  0.197 -0.539  0.146
      -0.016  0.198  0.807  0.146  0.537
     occupation matrix ns (before diag.):
       0.078 -0.000  0.000 -0.000 -0.000
      -0.000  0.204 -0.000 -0.080 -0.000
       0.000 -0.000  0.206 -0.000  0.080
      -0.000 -0.080 -0.000  0.140  0.000
      -0.000 -0.000  0.080  0.000  0.140

     Number of occupied Hubbard levels =    4.3679

     Atomic wfc used for Hubbard projectors are orthogonalized

     Starting wfcs are  756 atomic wfcs
     Checking if some PAW data can be deallocated... 

     total cpu time spent up to now is      125.7 secs

     Self-consistent Calculation

     iteration #  1     ecut=    90.00 Ry     beta= 0.30
     Davidson diagonalization with overlap
     ethr =  1.00E-05,  avg # of iterations =  8.6

     =================== HUBBARD OCCUPATIONS ===================
     ------------------------ ATOM    1 ------------------------
     Tr[ns(  1)] (up, down, total) =   3.57586  0.74562  4.32148
     Atomic magnetic moment for atom   1 =   2.83024
     SPIN  1
     eigenvalues:
       0.434  0.436  0.900  0.900  0.906
     eigenvectors (columns):
      -0.000  0.000 -0.033 -0.033  0.999
      -0.799  0.191  0.535  0.197  0.024
      -0.191 -0.800  0.197 -0.534 -0.011
       0.555 -0.132  0.770  0.283  0.035
      -0.132 -0.553 -0.284  0.772  0.016
     occupation matrix ns (before diag.):
       0.906  0.000 -0.000  0.000  0.000
       0.000  0.586 -0.000  0.218 -0.000
      -0.000 -0.000  0.586  0.000 -0.217
       0.000  0.218  0.000  0.748  0.000
       0.000 -0.000 -0.217  0.000  0.750
     SPIN  2
     eigenvalues:
       0.076  0.082  0.083  0.252  0.253
     eigenvectors (columns):
      -0.999  0.033 -0.027  0.001 -0.000
      -0.021 -0.543  0.132  0.800 -0.218
       0.010 -0.133 -0.541  0.218  0.801
      -0.032 -0.805  0.196 -0.540  0.146
      -0.016  0.196  0.807  0.146  0.538
     occupation matrix ns (before diag.):
       0.076 -0.000  0.000 -0.000 -0.000
      -0.000  0.199 -0.000 -0.079 -0.000
       0.000 -0.000  0.200 -0.000  0.078
      -0.000 -0.079 -0.000  0.135  0.000
      -0.000 -0.000  0.078  0.000  0.136

     Number of occupied Hubbard levels =    4.3215

     Threshold (ethr) on eigenvalues was too large:
     Diagonalizing with lowered threshold

     Davidson diagonalization with overlap
     ethr =  1.57E-07,  avg # of iterations =  3.0

     negative rho (up, down):  1.305E-01 1.475E-01

     total cpu time spent up to now is      610.2 secs

     total energy              =  -24931.14616857 Ry
     estimated scf accuracy    <       0.00098960 Ry

     total magnetization       =    54.00 Bohr mag/cell
     absolute magnetization    =    65.39 Bohr mag/cell

     iteration #  2     ecut=    90.00 Ry     beta= 0.30
     Davidson diagonalization with overlap
     ethr =  1.57E-07,  avg # of iterations =  6.0

     negative rho (up, down):  1.304E-01 1.475E-01

     total cpu time spent up to now is      755.9 secs

     total energy              =  -24931.14626943 Ry
     estimated scf accuracy    <       0.00311038 Ry

     total magnetization       =    54.00 Bohr mag/cell
     absolute magnetization    =    65.41 Bohr mag/cell

     iteration #  3     ecut=    90.00 Ry     beta= 0.30
     Davidson diagonalization with overlap
     ethr =  1.57E-07,  avg # of iterations =  4.9

     negative rho (up, down):  1.304E-01 1.475E-01

     total cpu time spent up to now is      877.6 secs

     total energy              =  -24931.14657817 Ry
     estimated scf accuracy    <       0.00000227 Ry

     total magnetization       =    54.00 Bohr mag/cell
     absolute magnetization    =    65.40 Bohr mag/cell

     iteration #  4     ecut=    90.00 Ry     beta= 0.30
     Davidson diagonalization with overlap
     ethr =  3.60E-10,  avg # of iterations =  6.2

     negative rho (up, down):  1.304E-01 1.475E-01

     total cpu time spent up to now is     1054.9 secs

     total energy              =  -24931.14658147 Ry
     estimated scf accuracy    <       0.00000180 Ry

     total magnetization       =    54.00 Bohr mag/cell
     absolute magnetization    =    65.40 Bohr mag/cell

     iteration #  5     ecut=    90.00 Ry     beta= 0.30
     Davidson diagonalization with overlap
     ethr =  2.86E-10,  avg # of iterations =  2.5

     negative rho (up, down):  1.304E-01 1.475E-01

     total cpu time spent up to now is     1158.5 secs

     total energy              =  -24931.14658168 Ry
     estimated scf accuracy    <       0.00000070 Ry

     total magnetization       =    54.00 Bohr mag/cell
     absolute magnetization    =    65.40 Bohr mag/cell

     iteration #  6     ecut=    90.00 Ry     beta= 0.30
     Davidson diagonalization with overlap
     ethr =  1.12E-10,  avg # of iterations =  4.1

     negative rho (up, down):  1.304E-01 1.475E-01

     total cpu time spent up to now is     1273.8 secs

     total energy              =  -24931.14658181 Ry
     estimated scf accuracy    <       0.00000045 Ry

     total magnetization       =    54.00 Bohr mag/cell
     absolute magnetization    =    65.40 Bohr mag/cell

     iteration #  7     ecut=    90.00 Ry     beta= 0.30
     Davidson diagonalization with overlap
     ethr =  7.22E-11,  avg # of iterations =  2.0

     negative rho (up, down):  1.304E-01 1.475E-01

     total cpu time spent up to now is     1363.7 secs

     total energy              =  -24931.14658181 Ry
     estimated scf accuracy    <       0.00000016 Ry

     total magnetization       =    54.00 Bohr mag/cell
     absolute magnetization    =    65.40 Bohr mag/cell

     iteration #  8     ecut=    90.00 Ry     beta= 0.30
     Davidson diagonalization with overlap
     ethr =  2.58E-11,  avg # of iterations =  4.1

     negative rho (up, down):  1.304E-01 1.475E-01

     total cpu time spent up to now is     1471.9 secs

     total energy              =  -24931.14658184 Ry
     estimated scf accuracy    <       0.00000001 Ry

     total magnetization       =    54.00 Bohr mag/cell
     absolute magnetization    =    65.40 Bohr mag/cell

     iteration #  9     ecut=    90.00 Ry     beta= 0.30
     Davidson diagonalization with overlap
     ethr =  2.27E-12,  avg # of iterations =  4.0

     negative rho (up, down):  1.304E-01 1.475E-01

     total cpu time spent up to now is     1590.2 secs

     total energy              =  -24931.14658185 Ry
     estimated scf accuracy    <          5.7E-09 Ry

     total magnetization       =    54.00 Bohr mag/cell
     absolute magnetization    =    65.40 Bohr mag/cell

     iteration # 10     ecut=    90.00 Ry     beta= 0.30
     Davidson diagonalization with overlap
     ethr =  9.00E-13,  avg # of iterations =  4.0

     negative rho (up, down):  1.304E-01 1.475E-01

     total cpu time spent up to now is     1702.9 secs

     total energy              =  -24931.14658185 Ry
     estimated scf accuracy    <          2.7E-09 Ry

     total magnetization       =    54.00 Bohr mag/cell
     absolute magnetization    =    65.40 Bohr mag/cell

     iteration # 11     ecut=    90.00 Ry     beta= 0.30
     Davidson diagonalization with overlap
     ethr =  4.33E-13,  avg # of iterations =  4.5

     negative rho (up, down):  1.304E-01 1.475E-01

     total cpu time spent up to now is     1818.1 secs

     total energy              =  -24931.14658185 Ry
     estimated scf accuracy    <          6.1E-10 Ry

     total magnetization       =    54.00 Bohr mag/cell
     absolute magnetization    =    65.40 Bohr mag/cell

     iteration # 12     ecut=    90.00 Ry     beta= 0.30
     Davidson diagonalization with overlap
     ethr =  1.00E-13,  avg # of iterations =  4.0

     negative rho (up, down):  1.304E-01 1.475E-01

     total cpu time spent up to now is     1943.6 secs

     total energy              =  -24931.14658185 Ry
     estimated scf accuracy    <          3.2E-10 Ry

     total magnetization       =    54.00 Bohr mag/cell
     absolute magnetization    =    65.40 Bohr mag/cell

     iteration # 13     ecut=    90.00 Ry     beta= 0.30
     Davidson diagonalization with overlap
     ethr =  1.00E-13,  avg # of iterations =  3.2

     negative rho (up, down):  1.304E-01 1.475E-01

     Magnetic moment per site  (integrated on atomic sphere of radius R)
     atom   1 (R=0.053)  charge= 12.4064  magn=  2.9293
     atom   2 (R=0.053)  charge= 12.4086  magn=  2.9136
     atom   3 (R=0.053)  charge= 12.4086  magn=  2.9136
     atom   4 (R=0.053)  charge=  4.0328  magn= -0.0666
     atom   5 (R=0.053)  charge=  4.0497  magn= -0.0522
     atom   6 (R=0.053)  charge=  4.0328  magn= -0.0666
     atom   7 (R=0.053)  charge=  4.0248  magn= -0.0724
     atom   8 (R=0.053)  charge=  4.0502  magn= -0.0558
     atom   9 (R=0.053)  charge=  4.0248  magn= -0.0723
     atom  10 (R=0.053)  charge= 12.4124  magn=  2.9202
     atom  11 (R=0.053)  charge= 12.4091  magn=  2.9162
     atom  12 (R=0.053)  charge=  4.0513  magn= -0.0516
     atom  13 (R=0.053)  charge=  4.0498  magn= -0.0517
     atom  14 (R=0.053)  charge=  4.0336  magn= -0.0637
     atom  15 (R=0.053)  charge=  4.0500  magn= -0.0523
     atom  16 (R=0.053)  charge=  4.0513  magn= -0.0523
     atom  17 (R=0.053)  charge=  4.0253  magn= -0.0709
     atom  18 (R=0.053)  charge= 12.4122  magn=  2.9227
     atom  19 (R=0.053)  charge= 12.3252  magn=  3.0168
     atom  20 (R=0.053)  charge=  4.0507  magn= -0.0525
     atom  21 (R=0.053)  charge=  4.0444  magn= -0.0604
     atom  22 (R=0.053)  charge=  4.0302  magn= -0.0695
     atom  23 (R=0.053)  charge=  4.0499  magn= -0.0520
     atom  24 (R=0.053)  charge=  4.0486  magn= -0.0515
     atom  25 (R=0.053)  charge=  4.0214  magn= -0.0769
     atom  26 (R=0.053)  charge= 12.4090  magn=  2.9162
     atom  27 (R=0.053)  charge= 12.4125  magn=  2.9202
     atom  28 (R=0.053)  charge=  4.0336  magn= -0.0638
     atom  29 (R=0.053)  charge=  4.0498  magn= -0.0517
     atom  30 (R=0.053)  charge=  4.0513  magn= -0.0516
     atom  31 (R=0.053)  charge=  4.0253  magn= -0.0709
     atom  32 (R=0.053)  charge=  4.0514  magn= -0.0523
     atom  33 (R=0.053)  charge=  4.0500  magn= -0.0523
     atom  34 (R=0.053)  charge= 12.4128  magn=  2.9233
     atom  35 (R=0.053)  charge=  4.0526  magn= -0.0500
     atom  36 (R=0.053)  charge=  4.0506  magn= -0.0516
     atom  37 (R=0.053)  charge=  4.0520  magn= -0.0495
     atom  38 (R=0.053)  charge=  4.0512  magn= -0.0512
     atom  39 (R=0.053)  charge=  4.0531  magn= -0.0491
     atom  40 (R=0.053)  charge=  4.0506  magn= -0.0507
     atom  41 (R=0.053)  charge= 12.4124  magn=  2.9257
     atom  42 (R=0.053)  charge= 12.3292  magn=  3.0258
     atom  43 (R=0.053)  charge=  4.0515  magn= -0.0504
     atom  44 (R=0.053)  charge=  4.0448  magn= -0.0597
     atom  45 (R=0.053)  charge=  4.0486  magn= -0.0544
     atom  46 (R=0.053)  charge=  4.0507  magn= -0.0504
     atom  47 (R=0.053)  charge=  4.0495  magn= -0.0482
     atom  48 (R=0.053)  charge=  4.0467  magn= -0.0568
     atom  49 (R=0.053)  charge= 12.3252  magn=  3.0168
     atom  50 (R=0.053)  charge= 12.4122  magn=  2.9227
     atom  51 (R=0.053)  charge=  4.0302  magn= -0.0695
     atom  52 (R=0.053)  charge=  4.0444  magn= -0.0604
     atom  53 (R=0.053)  charge=  4.0507  magn= -0.0525
     atom  54 (R=0.053)  charge=  4.0214  magn= -0.0769
     atom  55 (R=0.053)  charge=  4.0486  magn= -0.0515
     atom  56 (R=0.053)  charge=  4.0499  magn= -0.0520
     atom  57 (R=0.053)  charge= 12.3291  magn=  3.0258
     atom  58 (R=0.053)  charge= 12.4125  magn=  2.9257
     atom  59 (R=0.053)  charge=  4.0486  magn= -0.0544
     atom  60 (R=0.053)  charge=  4.0448  magn= -0.0597
     atom  61 (R=0.053)  charge=  4.0520  magn= -0.0509
     atom  62 (R=0.053)  charge=  4.0467  magn= -0.0568
     atom  63 (R=0.053)  charge=  4.0495  magn= -0.0482
     atom  64 (R=0.053)  charge=  4.0513  magn= -0.0509
     atom  65 (R=0.053)  charge= 12.3290  magn=  3.0298
     atom  66 (R=0.053)  charge= 12.3290  magn=  3.0298
     atom  67 (R=0.053)  charge=  4.0480  magn= -0.0555
     atom  68 (R=0.053)  charge=  4.0397  magn= -0.0675
     atom  69 (R=0.053)  charge=  4.0479  magn= -0.0555
     atom  70 (R=0.053)  charge=  4.0471  magn= -0.0559
     atom  71 (R=0.053)  charge=  4.0465  magn= -0.0471
     atom  72 (R=0.053)  charge=  4.0471  magn= -0.0559

     total cpu time spent up to now is     2044.1 secs

     End of self-consistent calculation

     =================== HUBBARD OCCUPATIONS ===================
     ------------------------ ATOM    1 ------------------------
     Tr[ns(  1)] (up, down, total) =   3.59369  0.75875  4.35244
     Atomic magnetic moment for atom   1 =   2.83494
     SPIN  1
     eigenvalues:
       0.442  0.444  0.900  0.900  0.907
     eigenvectors (columns):
      -0.000  0.000 -0.031 -0.030  0.999
      -0.799  0.188  0.535  0.197  0.022
      -0.188 -0.800  0.198 -0.534 -0.010
       0.556 -0.130  0.770  0.284  0.032
      -0.130 -0.554 -0.285  0.771  0.014
     occupation matrix ns (before diag.):
       0.907  0.000 -0.000  0.000  0.000
       0.000  0.591 -0.000  0.215 -0.000
      -0.000 -0.000  0.592  0.000 -0.214
       0.000  0.215  0.000  0.751  0.000
       0.000 -0.000 -0.214  0.000  0.752
     SPIN  2
     eigenvalues:
       0.077  0.084  0.085  0.256  0.257
     eigenvectors (columns):
      -0.999  0.034 -0.028  0.001 -0.000
      -0.021 -0.543  0.132  0.800 -0.219
       0.011 -0.133 -0.541  0.218  0.801
      -0.033 -0.805  0.197 -0.539  0.146
      -0.016  0.197  0.807  0.147  0.537
     occupation matrix ns (before diag.):
       0.077 -0.000  0.000 -0.000 -0.000
      -0.000  0.202 -0.000 -0.080 -0.000
       0.000 -0.000  0.204 -0.000  0.080
      -0.000 -0.080 -0.000  0.138  0.000
      -0.000 -0.000  0.080  0.000  0.138

     Number of occupied Hubbard levels =    4.3524

 ------ SPIN UP ------------


          k = 0.0000 0.0000 0.0000 (****** PWs)   bands (ev):

   -76.1370 -76.1369 -76.0608 -76.0607 -76.0208 -76.0129 -76.0125 -75.9807
   -75.9806 -75.9328 -75.9299 -75.9299 -75.8506 -75.8506 -75.8505 -75.8503
   -75.7724 -75.7723 -47.4875 -47.4865 -47.4631 -47.4620 -47.4577 -47.4574
   -47.4084 -47.4083 -47.3880 -47.3879 -47.3822 -47.3821 -47.3565 -47.3523
   -47.3519 -47.3500 -47.3472 -47.3458 -47.3455 -47.3396 -47.3393 -47.3272
   -47.3272 -47.3058 -47.3058 -47.3013 -47.3013 -47.2712 -47.2695 -47.2695
   -47.2647 -47.2630 -47.2630 -47.2620 -47.2559 -47.2559 -47.1888 -47.1888
   -47.1886 -47.1884 -47.1835 -47.1834 -47.1817 -47.1815 -47.1797 -47.1795
   -47.1762 -47.1762 -47.1101 -47.1098 -47.1063 -47.1043 -47.0972 -47.0970
   -16.2048 -16.0678 -16.0164 -15.9910 -15.9548 -15.8951 -15.8619 -15.7102
   -15.6637 -15.6336 -15.6073 -15.4952 -15.4790 -15.4547 -15.4250 -15.4087
   -15.3803 -15.3553 -15.3464 -15.3331 -15.3320 -15.3107 -15.2941 -15.2752
   -15.2694 -15.2477 -15.2381 -15.2359 -15.2034 -15.1889 -15.1757 -15.1717
   -15.1653 -15.1538 -15.1264 -15.1213 -15.1121 -15.1049 -15.0983 -15.0828
   -15.0764 -15.0632 -15.0312 -15.0221 -15.0067 -14.9956 -14.9859 -14.9100
   -14.8806 -14.8793 -14.8183 -14.8158 -14.7419 -14.7134  -7.9505  -7.8750
    -7.8386  -7.7909  -7.7809  -7.7427  -7.6951  -7.4073  -7.3809  -7.3761
    -7.3656  -7.3312  -7.2910  -7.2646  -7.2338  -7.2193  -7.1428  -7.1358
    -6.9822  -6.9484  -6.9421  -6.8982  -6.8807  -6.8587  -6.8487  -6.8403
    -6.8120  -6.8110  -6.7737  -6.7492  -6.7290  -6.7231  -6.7047  -6.6881
    -6.6840  -6.6722  -6.6490  -6.6410  -6.6291  -6.6036  -6.5882  -6.5881
    -6.5645  -6.5394  -6.5056  -6.4948  -6.4734  -6.4668  -6.4292  -6.4050
    -6.3970  -6.3767  -6.3420  -6.3414  -6.3361  -6.2987  -6.2831  -6.2679
    -6.2547  -6.2345  -6.1930  -6.1647  -6.1526  -6.1221  -6.1181  -6.0829
    -6.0530  -6.0291  -6.0236  -5.9878  -5.9876  -5.9826  -5.9736  -5.9371
    -5.9282  -5.9178  -5.8888  -5.8860  -5.8570  -5.8433  -5.8057  -5.7740
    -5.6821  -5.6512  -5.6270  -5.6226  -5.5777  -5.5167  -5.4981  -5.4716
    -5.4594  -5.4290  -5.3862  -5.3638  -5.3481  -5.3198  -5.2879  -5.2658
    -5.2476  -5.2303  -5.2123  -5.1987  -5.1765  -5.1730  -5.1521  -5.1409
    -5.1257  -5.1210  -5.0630  -5.0460  -5.0264  -5.0204  -5.0190  -5.0072
    -4.9893  -4.9794  -4.9517  -4.9461  -4.9290  -4.9123  -4.8752  -4.8673
    -4.8536  -4.8399  -4.8188  -4.7865  -4.7782  -4.7667  -4.7375  -4.7149
    -4.7062  -4.6935  -4.6847  -4.6772  -4.6766  -4.6262  -4.6094  -4.5539
    -4.5382  -4.5153  -4.4855  -4.4471  -4.4412  -4.4327  -4.3999  -4.3958
    -4.3728  -4.3702  -4.3552  -4.3478  -4.3462  -4.3219  -4.3169  -4.2882
    -4.2844  -4.2393  -4.2197  -4.2153  -4.1898  -4.1842  -4.1543  -4.1287
    -4.1058  -4.0839  -4.0805  -4.0513  -4.0135  -4.0099  -4.0025  -3.9848
    -3.9531  -3.9504  -3.9314  -3.9261  -3.9209  -3.9124  -3.8972  -3.8915
    -3.8840  -3.8825  -3.8807  -3.8526  -3.8394  -3.8366  -3.8284  -3.8281
    -3.8183  -3.8154  -3.7925  -3.7848  -3.7674  -3.7648  -3.7492  -3.7288
    -3.7217  -3.7022  -3.6951  -3.6850  -3.6358  -3.6275  -3.6161  -3.6005
    -3.5968  -3.5781  -3.5038  -3.4968  -3.4888  -3.4710  -3.4407  -3.4344
    -3.4182  -3.3958  -3.3515  -3.3489  -3.3401  -3.3253

          k = 0.0000-0.5774 0.0000 (****** PWs)   bands (ev):

   -76.1370 -76.1369 -76.0608 -76.0607 -76.0208 -76.0129 -76.0125 -75.9807
   -75.9806 -75.9328 -75.9299 -75.9299 -75.8506 -75.8506 -75.8505 -75.8503
   -75.7724 -75.7723 -47.4875 -47.4865 -47.4631 -47.4620 -47.4577 -47.4574
   -47.4084 -47.4083 -47.3880 -47.3879 -47.3822 -47.3821 -47.3565 -47.3523
   -47.3519 -47.3500 -47.3472 -47.3458 -47.3455 -47.3396 -47.3393 -47.3272
   -47.3272 -47.3058 -47.3058 -47.3013 -47.3013 -47.2712 -47.2695 -47.2695
   -47.2647 -47.2630 -47.2630 -47.2620 -47.2559 -47.2559 -47.1888 -47.1888
   -47.1886 -47.1884 -47.1835 -47.1834 -47.1817 -47.1815 -47.1797 -47.1795
   -47.1762 -47.1762 -47.1101 -47.1098 -47.1063 -47.1043 -47.0972 -47.0970
   -16.1937 -16.0986 -16.0244 -15.9979 -15.9275 -15.8640 -15.8452 -15.7597
   -15.6898 -15.5931 -15.5686 -15.5201 -15.5163 -15.4636 -15.4511 -15.3950
   -15.3754 -15.3602 -15.3511 -15.3235 -15.3119 -15.3098 -15.2929 -15.2747
   -15.2515 -15.2410 -15.2301 -15.2173 -15.2062 -15.1959 -15.1816 -15.1724
   -15.1606 -15.1481 -15.1424 -15.1259 -15.1218 -15.1027 -15.1015 -15.0834
   -15.0754 -15.0623 -15.0338 -15.0282 -15.0037 -14.9958 -14.9870 -14.9086
   -14.8799 -14.8789 -14.8169 -14.8166 -14.7419 -14.7133  -7.9360  -7.8817
    -7.8185  -7.7827  -7.7662  -7.7055  -7.6421  -7.5968  -7.5256  -7.3748
    -7.3401  -7.2851  -7.2736  -7.2604  -7.2135  -7.1994  -7.1363  -7.1300
    -6.9744  -6.9488  -6.9361  -6.8970  -6.8746  -6.8663  -6.8391  -6.8367
    -6.8216  -6.8064  -6.7837  -6.7634  -6.7344  -6.7292  -6.7248  -6.7055
    -6.6978  -6.6760  -6.6521  -6.6450  -6.6292  -6.5975  -6.5633  -6.5488
    -6.5272  -6.5130  -6.4895  -6.4837  -6.4573  -6.4425  -6.4261  -6.4135
    -6.3988  -6.3898  -6.3809  -6.3329  -6.3220  -6.2927  -6.2796  -6.2692
    -6.2487  -6.2241  -6.1897  -6.1842  -6.1583  -6.1091  -6.0828  -6.0753
    -6.0599  -6.0416  -6.0209  -6.0011  -5.9816  -5.9795  -5.9596  -5.9190
    -5.9085  -5.8965  -5.8622  -5.8439  -5.8242  -5.8000  -5.7769  -5.7182
    -5.6491  -5.6204  -5.5974  -5.5927  -5.5726  -5.5530  -5.5327  -5.5255
    -5.5080  -5.4911  -5.4689  -5.4469  -5.4375  -5.4079  -5.3884  -5.3642
    -5.3461  -5.3196  -5.3033  -5.2652  -5.2431  -5.2280  -5.1997  -5.1486
    -5.1329  -5.1152  -5.0926  -5.0745  -5.0511  -5.0247  -5.0052  -4.9721
    -4.9508  -4.9162  -4.9048  -4.8937  -4.8763  -4.8529  -4.8125  -4.8011
    -4.7822  -4.7652  -4.7445  -4.7336  -4.7086  -4.6913  -4.6849  -4.6712
    -4.6653  -4.6413  -4.6185  -4.6039  -4.5967  -4.5663  -4.5533  -4.5438
    -4.5343  -4.5244  -4.5057  -4.4906  -4.4703  -4.4460  -4.4418  -4.4344
    -4.4124  -4.4059  -4.3823  -4.3747  -4.3457  -4.3048  -4.2916  -4.2723
    -4.2610  -4.2512  -4.2265  -4.2060  -4.1936  -4.1781  -4.1731  -4.1676
    -4.1588  -4.1461  -4.1183  -4.1116  -4.0847  -4.0626  -4.0411  -4.0032
    -3.9796  -3.9686  -3.9496  -3.9306  -3.9223  -3.9085  -3.8934  -3.8836
    -3.8810  -3.8690  -3.8554  -3.8535  -3.8454  -3.8368  -3.8313  -3.8171
    -3.8108  -3.7899  -3.7853  -3.7781  -3.7689  -3.7514  -3.7261  -3.7121
    -3.6897  -3.6824  -3.6607  -3.6453  -3.6367  -3.6290  -3.6162  -3.6035
    -3.5988  -3.5801  -3.5702  -3.5322  -3.4764  -3.4656  -3.4245  -3.4224
    -3.4101  -3.3961  -3.3710  -3.3517  -3.3430  -3.3290

          k = 0.5000-0.2887 0.0000 (****** PWs)   bands (ev):

   -76.1370 -76.1369 -76.0608 -76.0607 -76.0208 -76.0129 -76.0125 -75.9807
   -75.9806 -75.9328 -75.9299 -75.9299 -75.8506 -75.8506 -75.8505 -75.8503
   -75.7724 -75.7723 -47.4875 -47.4865 -47.4631 -47.4620 -47.4577 -47.4574
   -47.4084 -47.4083 -47.3880 -47.3879 -47.3822 -47.3821 -47.3565 -47.3523
   -47.3519 -47.3500 -47.3472 -47.3458 -47.3455 -47.3396 -47.3393 -47.3272
   -47.3272 -47.3058 -47.3058 -47.3013 -47.3013 -47.2712 -47.2695 -47.2695
   -47.2647 -47.2630 -47.2630 -47.2620 -47.2559 -47.2559 -47.1888 -47.1888
   -47.1886 -47.1884 -47.1835 -47.1834 -47.1817 -47.1815 -47.1797 -47.1795
   -47.1762 -47.1762 -47.1101 -47.1098 -47.1063 -47.1043 -47.0972 -47.0970
   -16.1874 -16.1185 -16.0221 -15.9705 -15.9337 -15.8684 -15.8515 -15.7684
   -15.6567 -15.6292 -15.5556 -15.5248 -15.5194 -15.4711 -15.4492 -15.3965
   -15.3641 -15.3543 -15.3497 -15.3125 -15.3086 -15.3000 -15.2965 -15.2772
   -15.2516 -15.2479 -15.2275 -15.2208 -15.2175 -15.2023 -15.1949 -15.1642
   -15.1626 -15.1441 -15.1388 -15.1253 -15.1222 -15.1037 -15.1030 -15.0766
   -15.0743 -15.0682 -15.0306 -15.0299 -15.0026 -14.9977 -14.9848 -14.9072
   -14.8802 -14.8796 -14.8183 -14.8154 -14.7420 -14.7132  -7.9299  -7.8939
    -7.7964  -7.7921  -7.7449  -7.7055  -7.6984  -7.5589  -7.5435  -7.3764
    -7.3321  -7.2924  -7.2486  -7.2440  -7.2252  -7.2193  -7.1423  -7.1249
    -6.9713  -6.9468  -6.9413  -6.8950  -6.8788  -6.8714  -6.8446  -6.8334
    -6.8263  -6.8120  -6.8013  -6.7671  -6.7651  -6.7535  -6.7105  -6.6977
    -6.6701  -6.6677  -6.6232  -6.6213  -6.6008  -6.5886  -6.5616  -6.5233
    -6.5202  -6.5062  -6.5015  -6.5008  -6.4699  -6.4544  -6.4325  -6.4082
    -6.3921  -6.3755  -6.3729  -6.3600  -6.3094  -6.3072  -6.2883  -6.2808
    -6.2666  -6.2482  -6.1952  -6.1861  -6.1248  -6.1162  -6.0777  -6.0656
    -6.0382  -6.0362  -6.0221  -5.9976  -5.9948  -5.9684  -5.9463  -5.9154
    -5.9111  -5.8990  -5.8982  -5.8721  -5.8629  -5.8426  -5.7929  -5.6721
    -5.6476  -5.6095  -5.5743  -5.5551  -5.5474  -5.5266  -5.5244  -5.5092
    -5.5057  -5.4898  -5.4782  -5.4655  -5.4478  -5.4329  -5.3949  -5.3786
    -5.3651  -5.3462  -5.3307  -5.2647  -5.2277  -5.2020  -5.1827  -5.1550
    -5.1267  -5.0845  -5.0800  -5.0624  -5.0479  -5.0248  -5.0010  -4.9961
    -4.9448  -4.9389  -4.9141  -4.8755  -4.8729  -4.8383  -4.8119  -4.8000
    -4.7856  -4.7788  -4.7348  -4.7342  -4.7171  -4.7026  -4.6863  -4.6663
    -4.6634  -4.6302  -4.6291  -4.6042  -4.5957  -4.5808  -4.5679  -4.5624
    -4.5470  -4.5087  -4.4721  -4.4709  -4.4588  -4.4585  -4.4388  -4.4270
    -4.4216  -4.4066  -4.4049  -4.3882  -4.3604  -4.2930  -4.2853  -4.2746
    -4.2658  -4.2334  -4.2205  -4.2120  -4.1997  -4.1846  -4.1737  -4.1593
    -4.1502  -4.1349  -4.1279  -4.0958  -4.0806  -4.0782  -4.0250  -4.0101
    -3.9905  -3.9686  -3.9403  -3.9311  -3.9124  -3.9117  -3.9066  -3.8926
    -3.8823  -3.8794  -3.8673  -3.8602  -3.8486  -3.8345  -3.8252  -3.8227
    -3.8062  -3.7972  -3.7895  -3.7715  -3.7637  -3.7393  -3.7258  -3.7088
    -3.6911  -3.6900  -3.6662  -3.6510  -3.6298  -3.6248  -3.6223  -3.6113
    -3.5752  -3.5749  -3.5554  -3.5307  -3.4968  -3.4498  -3.4483  -3.4247
    -3.4216  -3.3861  -3.3596  -3.3576  -3.3345  -3.3258

          k =-0.5000-0.2887 0.0000 (****** PWs)   bands (ev):

   -76.1370 -76.1369 -76.0608 -76.0607 -76.0208 -76.0129 -76.0125 -75.9807
   -75.9806 -75.9328 -75.9299 -75.9299 -75.8506 -75.8506 -75.8505 -75.8503
   -75.7724 -75.7723 -47.4875 -47.4865 -47.4631 -47.4620 -47.4577 -47.4574
   -47.4084 -47.4083 -47.3880 -47.3879 -47.3822 -47.3821 -47.3565 -47.3523
   -47.3519 -47.3500 -47.3472 -47.3458 -47.3455 -47.3396 -47.3393 -47.3272
   -47.3272 -47.3058 -47.3058 -47.3013 -47.3013 -47.2712 -47.2695 -47.2695
   -47.2647 -47.2630 -47.2630 -47.2620 -47.2559 -47.2559 -47.1888 -47.1888
   -47.1886 -47.1884 -47.1835 -47.1834 -47.1817 -47.1815 -47.1797 -47.1795
   -47.1762 -47.1762 -47.1101 -47.1098 -47.1063 -47.1043 -47.0972 -47.0970
   -16.1937 -16.0985 -16.0246 -15.9979 -15.9272 -15.8638 -15.8453 -15.7598
   -15.6898 -15.5929 -15.5686 -15.5203 -15.5163 -15.4634 -15.4511 -15.3950
   -15.3752 -15.3604 -15.3512 -15.3235 -15.3121 -15.3098 -15.2928 -15.2748
   -15.2512 -15.2410 -15.2302 -15.2174 -15.2062 -15.1958 -15.1817 -15.1724
   -15.1606 -15.1484 -15.1424 -15.1258 -15.1216 -15.1025 -15.1015 -15.0837
   -15.0756 -15.0622 -15.0336 -15.0282 -15.0038 -14.9957 -14.9870 -14.9086
   -14.8799 -14.8789 -14.8169 -14.8166 -14.7419 -14.7133  -7.9360  -7.8811
    -7.8200  -7.7820  -7.7665  -7.7050  -7.6416  -7.5970  -7.5259  -7.3755
    -7.3402  -7.2843  -7.2734  -7.2606  -7.2137  -7.1993  -7.1362  -7.1301
    -6.9743  -6.9484  -6.9365  -6.8976  -6.8736  -6.8667  -6.8381  -6.8367
    -6.8219  -6.8072  -6.7835  -6.7636  -6.7346  -6.7292  -6.7247  -6.7055
    -6.6979  -6.6759  -6.6522  -6.6453  -6.6288  -6.5972  -6.5634  -6.5487
    -6.5262  -6.5132  -6.4886  -6.4844  -6.4582  -6.4426  -6.4265  -6.4131
    -6.3987  -6.3898  -6.3813  -6.3330  -6.3222  -6.2924  -6.2798  -6.2694
    -6.2483  -6.2240  -6.1898  -6.1838  -6.1585  -6.1100  -6.0830  -6.0741
    -6.0583  -6.0415  -6.0207  -6.0013  -5.9822  -5.9804  -5.9599  -5.9187
    -5.9086  -5.8963  -5.8622  -5.8441  -5.8240  -5.8003  -5.7772  -5.7179
    -5.6489  -5.6205  -5.5982  -5.5922  -5.5731  -5.5533  -5.5319  -5.5256
    -5.5078  -5.4907  -5.4689  -5.4468  -5.4377  -5.4079  -5.3881  -5.3643
    -5.3461  -5.3198  -5.3034  -5.2656  -5.2433  -5.2272  -5.1999  -5.1484
    -5.1337  -5.1154  -5.0926  -5.0742  -5.0509  -5.0241  -5.0053  -4.9720
    -4.9511  -4.9161  -4.9051  -4.8939  -4.8761  -4.8521  -4.8126  -4.8014
    -4.7816  -4.7656  -4.7448  -4.7334  -4.7083  -4.6907  -4.6853  -4.6719
    -4.6660  -4.6417  -4.6181  -4.6041  -4.5968  -4.5664  -4.5534  -4.5434
    -4.5346  -4.5244  -4.5064  -4.4903  -4.4702  -4.4470  -4.4419  -4.4337
    -4.4114  -4.4053  -4.3819  -4.3752  -4.3452  -4.3047  -4.2916  -4.2733
    -4.2608  -4.2516  -4.2261  -4.2060  -4.1936  -4.1783  -4.1730  -4.1674
    -4.1587  -4.1466  -4.1183  -4.1116  -4.0840  -4.0626  -4.0413  -4.0030
    -3.9795  -3.9681  -3.9500  -3.9312  -3.9221  -3.9082  -3.8941  -3.8831
    -3.8813  -3.8690  -3.8551  -3.8531  -3.8453  -3.8368  -3.8314  -3.8179
    -3.8107  -3.7898  -3.7853  -3.7778  -3.7687  -3.7515  -3.7263  -3.7122
    -3.6894  -3.6823  -3.6607  -3.6455  -3.6365  -3.6290  -3.6162  -3.6036
    -3.5989  -3.5799  -3.5703  -3.5323  -3.4764  -3.4655  -3.4245  -3.4223
    -3.4102  -3.3961  -3.3710  -3.3516  -3.3430  -3.3290

 ------ SPIN DOWN ----------


          k = 0.0000 0.0000 0.0000 (****** PWs)   bands (ev):

   -72.9790 -72.9789 -72.9756 -72.9727 -72.9722 -72.9067 -72.9067 -72.8950
   -72.8927 -72.8927 -72.8342 -72.8342 -72.8184 -72.8184 -72.8158 -72.8155
   -72.7427 -72.7427 -44.3883 -44.3870 -44.3786 -44.3781 -44.3781 -44.3621
   -44.3604 -44.3479 -44.3475 -44.3438 -44.3403 -44.3349 -44.3346 -44.3318
   -44.3315 -44.3121 -44.3121 -44.3002 -44.2981 -44.2981 -44.2840 -44.2839
   -44.2691 -44.2691 -44.2671 -44.2671 -44.2658 -44.2625 -44.2542 -44.2541
   -44.2347 -44.2347 -44.2203 -44.2200 -44.2187 -44.2187 -44.2121 -44.2121
   -44.1953 -44.1953 -44.1929 -44.1929 -44.1869 -44.1866 -44.1836 -44.1836
   -44.1829 -44.1826 -44.1427 -44.1422 -44.1179 -44.1159 -44.1082 -44.1075
   -16.2130 -16.0796 -16.0318 -16.0038 -15.9701 -15.9095 -15.8816 -15.7345
   -15.6900 -15.6627 -15.6387 -15.5370 -15.5155 -15.5036 -15.4622 -15.4507
   -15.4285 -15.4035 -15.3933 -15.3750 -15.3733 -15.3588 -15.3430 -15.3212
   -15.3177 -15.2956 -15.2870 -15.2849 -15.2518 -15.2364 -15.2264 -15.2206
   -15.2133 -15.2022 -15.1748 -15.1742 -15.1633 -15.1498 -15.1447 -15.1330
   -15.1278 -15.1088 -15.0895 -15.0741 -15.0626 -15.0437 -15.0351 -14.9689
   -14.9508 -14.9446 -14.8861 -14.8831 -14.8110 -14.7842  -7.6664  -7.6178
    -7.5767  -7.5330  -7.5261  -7.4866  -7.4404  -7.1623  -7.1325  -7.1311
    -7.1176  -7.0842  -7.0439  -7.0189  -6.9955  -6.9768  -6.9053  -6.9027
    -6.8576  -6.8514  -6.8135  -6.7785  -6.7585  -6.7256  -6.6708  -6.6430
    -6.6292  -6.6093  -6.6005  -6.5553  -6.5459  -6.5450  -6.5270  -6.5244
    -6.4735  -6.4656  -6.4504  -6.4212  -6.4159  -6.4041  -6.3769  -6.3505
    -6.3431  -6.2986  -6.2962  -6.2932  -6.2534  -6.1859  -6.1475  -6.1355
    -6.1301  -6.0565  -6.0442  -6.0240  -6.0004  -5.9937  -5.9455  -5.9366
    -5.9343  -5.9272  -5.8849  -5.8793  -5.8549  -5.8110  -5.7944  -5.6188
    -5.6047  -5.5933  -5.5773  -5.5685  -5.5488  -5.5475  -5.5305  -5.5033
    -5.4970  -5.4961  -5.4843  -5.4536  -5.3997  -5.3973  -5.3846  -5.3626
    -5.3074  -5.2766  -5.2254  -5.2097  -5.1868  -5.1445  -5.1060  -5.1054
    -5.0955  -5.0610  -5.0252  -5.0175  -4.9820  -4.9786  -4.9658  -4.9585
    -4.9449  -4.9226  -4.9093  -4.8771  -4.8600  -4.8476  -4.8200  -4.8186
    -4.8008  -4.7851  -4.7717  -4.7715  -4.7483  -4.7460  -4.7217  -4.7145
    -4.6932  -4.6767  -4.6760  -4.6326  -4.6307  -4.5717  -4.5613  -4.5539
    -4.5500  -4.5451  -4.4742  -4.4572  -4.4478  -4.4468  -4.4076  -4.3774
    -4.3663  -4.3481  -4.3218  -4.3156  -4.3019  -4.2893  -4.2566  -4.2452
    -4.2335  -4.2192  -4.2093  -4.1719  -4.1104  -4.0732  -4.0689  -4.0562
    -4.0548  -3.9979  -3.9965  -3.9811  -3.9804  -3.9676  -3.9188  -3.8956
    -3.8675  -3.8326  -3.8153  -3.7653  -3.7239  -3.6877  -3.6151  -3.5913
    -1.5492  -1.5396  -1.5088  -1.5047  -1.4800  -1.4765  -1.4576  -1.4568
    -1.4180  -1.4101  -1.4049  -1.3973  -1.3780  -1.3703  -1.3462  -1.3340
    -1.3282  -1.3188  -1.3134  -1.2907  -1.2785  -1.2660  -1.2551  -1.2482
    -1.2416  -1.2254  -1.2053  -1.2013  -1.1899  -1.1664  -1.1389  -1.1217
    -1.1180  -1.1054  -1.1033  -1.0919  -1.0735  -1.0733  -1.0557  -1.0543
    -1.0470  -1.0466  -1.0295  -1.0248  -1.0237  -1.0120  -1.0085  -1.0039
    -0.9895  -0.9830  -0.9719  -0.9645  -0.9513  -0.9293

          k = 0.0000-0.5774 0.0000 (****** PWs)   bands (ev):

   -72.9790 -72.9789 -72.9756 -72.9727 -72.9722 -72.9067 -72.9067 -72.8950
   -72.8927 -72.8927 -72.8342 -72.8342 -72.8184 -72.8184 -72.8158 -72.8155
   -72.7427 -72.7427 -44.3883 -44.3870 -44.3786 -44.3781 -44.3781 -44.3621
   -44.3604 -44.3479 -44.3475 -44.3438 -44.3403 -44.3349 -44.3346 -44.3318
   -44.3315 -44.3121 -44.3121 -44.3002 -44.2981 -44.2981 -44.2840 -44.2839
   -44.2691 -44.2691 -44.2671 -44.2671 -44.2658 -44.2625 -44.2542 -44.2541
   -44.2347 -44.2347 -44.2203 -44.2200 -44.2187 -44.2187 -44.2121 -44.2121
   -44.1953 -44.1953 -44.1929 -44.1929 -44.1869 -44.1866 -44.1836 -44.1836
   -44.1829 -44.1826 -44.1427 -44.1422 -44.1179 -44.1159 -44.1082 -44.1075
   -16.2021 -16.1098 -16.0388 -16.0114 -15.9430 -15.8793 -15.8642 -15.7818
   -15.7185 -15.6249 -15.6028 -15.5557 -15.5498 -15.5026 -15.4979 -15.4448
   -15.4202 -15.4046 -15.3994 -15.3664 -15.3584 -15.3572 -15.3415 -15.3229
   -15.2961 -15.2866 -15.2764 -15.2666 -15.2559 -15.2428 -15.2332 -15.2222
   -15.2101 -15.1962 -15.1948 -15.1759 -15.1706 -15.1499 -15.1471 -15.1334
   -15.1258 -15.1073 -15.0915 -15.0836 -15.0587 -15.0451 -15.0340 -14.9681
   -14.9501 -14.9435 -14.8845 -14.8841 -14.8110 -14.7841  -7.6580  -7.6143
    -7.5572  -7.5208  -7.5126  -7.4533  -7.3900  -7.3481  -7.2761  -7.1251
    -7.0928  -7.0411  -7.0269  -7.0176  -6.9710  -6.9649  -6.9041  -6.8959
    -6.8590  -6.8346  -6.8134  -6.7648  -6.7299  -6.7154  -6.6854  -6.6609
    -6.6536  -6.6322  -6.6168  -6.5940  -6.5587  -6.5502  -6.5221  -6.4914
    -6.4891  -6.4667  -6.4559  -6.4292  -6.4257  -6.3861  -6.3347  -6.3213
    -6.3127  -6.2693  -6.2504  -6.2275  -6.1966  -6.1924  -6.1655  -6.1512
    -6.1299  -6.1099  -6.0955  -6.0789  -6.0438  -6.0270  -5.9751  -5.9618
    -5.9415  -5.8974  -5.8534  -5.8019  -5.8009  -5.6628  -5.6541  -5.6314
    -5.6239  -5.6044  -5.5806  -5.5719  -5.5487  -5.5334  -5.5142  -5.5032
    -5.4792  -5.4670  -5.4507  -5.4240  -5.4158  -5.3756  -5.3515  -5.3215
    -5.2996  -5.2835  -5.2453  -5.2380  -5.2222  -5.2129  -5.1891  -5.1683
    -5.1527  -5.1270  -5.1190  -5.0955  -5.0816  -5.0787  -5.0580  -5.0306
    -5.0065  -4.9543  -4.9365  -4.9315  -4.9221  -4.8894  -4.8744  -4.8600
    -4.8417  -4.8242  -4.8147  -4.7915  -4.7028  -4.6873  -4.6724  -4.6710
    -4.6429  -4.6242  -4.5893  -4.5748  -4.5627  -4.5413  -4.4961  -4.4939
    -4.4859  -4.4685  -4.4452  -4.4434  -4.4244  -4.4093  -4.3943  -4.3435
    -4.3238  -4.3056  -4.2966  -4.2834  -4.2646  -4.2503  -4.2345  -4.2132
    -4.1743  -4.1587  -4.1527  -4.1260  -4.1057  -4.0883  -4.0834  -4.0607
    -4.0588  -4.0331  -4.0071  -3.9838  -3.9607  -3.9523  -3.9473  -3.9088
    -3.9018  -3.8663  -3.8336  -3.8101  -3.7740  -3.7675  -3.7061  -3.6393
    -1.5543  -1.5520  -1.5230  -1.5146  -1.4917  -1.4709  -1.4644  -1.4517
    -1.4381  -1.4204  -1.4035  -1.3889  -1.3766  -1.3622  -1.3529  -1.3312
    -1.3176  -1.3063  -1.2844  -1.2777  -1.2655  -1.2517  -1.2452  -1.2353
    -1.2214  -1.2026  -1.1905  -1.1810  -1.1700  -1.1600  -1.1480  -1.1371
    -1.1324  -1.1292  -1.1221  -1.1042  -1.0964  -1.0829  -1.0775  -1.0704
    -1.0597  -1.0475  -1.0369  -1.0305  -1.0265  -1.0201  -1.0063  -1.0010
    -0.9968  -0.9815  -0.9733  -0.9565  -0.9380  -0.9267

          k = 0.5000-0.2887 0.0000 (****** PWs)   bands (ev):

   -72.9790 -72.9789 -72.9756 -72.9727 -72.9722 -72.9067 -72.9067 -72.8950
   -72.8927 -72.8927 -72.8342 -72.8342 -72.8184 -72.8184 -72.8158 -72.8155
   -72.7427 -72.7427 -44.3883 -44.3870 -44.3786 -44.3781 -44.3781 -44.3621
   -44.3604 -44.3479 -44.3475 -44.3438 -44.3403 -44.3349 -44.3346 -44.3318
   -44.3315 -44.3121 -44.3121 -44.3002 -44.2981 -44.2981 -44.2840 -44.2839
   -44.2691 -44.2691 -44.2671 -44.2671 -44.2658 -44.2625 -44.2542 -44.2541
   -44.2347 -44.2347 -44.2203 -44.2200 -44.2187 -44.2187 -44.2121 -44.2121
   -44.1953 -44.1953 -44.1929 -44.1929 -44.1869 -44.1866 -44.1836 -44.1836
   -44.1829 -44.1826 -44.1427 -44.1422 -44.1179 -44.1159 -44.1082 -44.1075
   -16.1960 -16.1292 -16.0362 -15.9852 -15.9490 -15.8864 -15.8658 -15.7918
   -15.6904 -15.6595 -15.5864 -15.5611 -15.5508 -15.5064 -15.4986 -15.4464
   -15.4126 -15.3987 -15.3978 -15.3568 -15.3546 -15.3468 -15.3438 -15.3246
   -15.2989 -15.2938 -15.2740 -15.2687 -15.2678 -15.2496 -15.2455 -15.2157
   -15.2140 -15.1904 -15.1855 -15.1761 -15.1715 -15.1513 -15.1504 -15.1259
   -15.1223 -15.1145 -15.0888 -15.0847 -15.0590 -15.0463 -15.0315 -14.9674
   -14.9508 -14.9435 -14.8862 -14.8826 -14.8111 -14.7840  -7.6534  -7.6221
    -7.5388  -7.5358  -7.4841  -7.4552  -7.4448  -7.3111  -7.2941  -7.1266
    -7.0837  -7.0482  -7.0064  -7.0047  -6.9819  -6.9721  -6.9073  -6.8931
    -6.8493  -6.8383  -6.8227  -6.7550  -6.7265  -6.7100  -6.7035  -6.6853
    -6.6564  -6.6471  -6.6345  -6.5751  -6.5740  -6.5633  -6.5352  -6.4937
    -6.4615  -6.4434  -6.4173  -6.4092  -6.3867  -6.3695  -6.3545  -6.3257
    -6.2975  -6.2929  -6.2740  -6.2295  -6.2247  -6.1906  -6.1589  -6.1494
    -6.1413  -6.1170  -6.0830  -6.0582  -5.9953  -5.9897  -5.9865  -5.9725
    -5.9497  -5.9332  -5.9204  -5.8087  -5.7688  -5.6946  -5.6691  -5.6545
    -5.6275  -5.5903  -5.5613  -5.5598  -5.5543  -5.5283  -5.5032  -5.4859
    -5.4840  -5.4714  -5.4654  -5.4371  -5.4088  -5.4053  -5.3690  -5.2980
    -5.2893  -5.2637  -5.2480  -5.2227  -5.2187  -5.2025  -5.1825  -5.1772
    -5.1556  -5.1419  -5.1284  -5.0992  -5.0726  -5.0711  -5.0347  -5.0232
    -5.0060  -4.9661  -4.9562  -4.9355  -4.9164  -4.9099  -4.8597  -4.8466
    -4.8347  -4.8189  -4.8188  -4.7015  -4.7013  -4.6963  -4.6763  -4.6605
    -4.6518  -4.6379  -4.6214  -4.6068  -4.5627  -4.5379  -4.5183  -4.5180
    -4.4982  -4.4531  -4.4304  -4.4254  -4.4032  -4.3899  -4.3738  -4.3469
    -4.3330  -4.3193  -4.2883  -4.2835  -4.2716  -4.2416  -4.2395  -4.2338
    -4.2114  -4.1884  -4.1568  -4.1191  -4.0960  -4.0834  -4.0733  -4.0449
    -4.0359  -4.0343  -4.0235  -3.9889  -3.9601  -3.9532  -3.9477  -3.9257
    -3.9075  -3.8396  -3.8393  -3.8282  -3.8160  -3.6944  -3.6881  -3.6636
    -1.5651  -1.5542  -1.5203  -1.5099  -1.4952  -1.4823  -1.4704  -1.4412
    -1.4292  -1.4194  -1.3994  -1.3947  -1.3783  -1.3577  -1.3506  -1.3336
    -1.3037  -1.2945  -1.2841  -1.2722  -1.2612  -1.2466  -1.2453  -1.2311
    -1.2289  -1.2101  -1.1945  -1.1872  -1.1691  -1.1632  -1.1548  -1.1445
    -1.1350  -1.1158  -1.1125  -1.1044  -1.0994  -1.0875  -1.0850  -1.0814
    -1.0743  -1.0499  -1.0369  -1.0248  -1.0225  -1.0198  -1.0180  -1.0000
    -0.9962  -0.9760  -0.9681  -0.9649  -0.9349  -0.9184

          k =-0.5000-0.2887 0.0000 (****** PWs)   bands (ev):

   -72.9790 -72.9789 -72.9756 -72.9727 -72.9722 -72.9067 -72.9067 -72.8950
   -72.8927 -72.8927 -72.8342 -72.8342 -72.8184 -72.8184 -72.8158 -72.8155
   -72.7427 -72.7427 -44.3883 -44.3870 -44.3786 -44.3781 -44.3781 -44.3621
   -44.3604 -44.3479 -44.3475 -44.3438 -44.3403 -44.3349 -44.3346 -44.3318
   -44.3315 -44.3121 -44.3121 -44.3002 -44.2981 -44.2981 -44.2840 -44.2839
   -44.2691 -44.2691 -44.2671 -44.2671 -44.2658 -44.2625 -44.2542 -44.2541
   -44.2347 -44.2347 -44.2203 -44.2200 -44.2187 -44.2187 -44.2121 -44.2121
   -44.1953 -44.1953 -44.1929 -44.1929 -44.1869 -44.1866 -44.1836 -44.1836
   -44.1829 -44.1826 -44.1427 -44.1422 -44.1179 -44.1159 -44.1082 -44.1075
   -16.2021 -16.1097 -16.0390 -16.0115 -15.9427 -15.8791 -15.8643 -15.7819
   -15.7184 -15.6248 -15.6028 -15.5559 -15.5498 -15.5025 -15.4977 -15.4448
   -15.4200 -15.4048 -15.3996 -15.3663 -15.3585 -15.3572 -15.3414 -15.3230
   -15.2958 -15.2866 -15.2765 -15.2667 -15.2558 -15.2427 -15.2333 -15.2222
   -15.2101 -15.1963 -15.1949 -15.1757 -15.1705 -15.1498 -15.1470 -15.1335
   -15.1258 -15.1073 -15.0915 -15.0835 -15.0588 -15.0451 -15.0340 -14.9681
   -14.9501 -14.9435 -14.8845 -14.8841 -14.8110 -14.7841  -7.6579  -7.6141
    -7.5582  -7.5203  -7.5128  -7.4528  -7.3897  -7.3481  -7.2763  -7.1256
    -7.0929  -7.0404  -7.0267  -7.0177  -6.9713  -6.9648  -6.9041  -6.8960
    -6.8590  -6.8347  -6.8133  -6.7652  -6.7294  -6.7150  -6.6857  -6.6606
    -6.6535  -6.6329  -6.6166  -6.5943  -6.5587  -6.5501  -6.5221  -6.4912
    -6.4897  -6.4673  -6.4559  -6.4290  -6.4249  -6.3859  -6.3348  -6.3216
    -6.3123  -6.2694  -6.2500  -6.2281  -6.1966  -6.1925  -6.1655  -6.1511
    -6.1302  -6.1101  -6.0954  -6.0792  -6.0440  -6.0266  -5.9748  -5.9618
    -5.9416  -5.8975  -5.8535  -5.8020  -5.8008  -5.6625  -5.6543  -5.6316
    -5.6242  -5.6035  -5.5798  -5.5718  -5.5488  -5.5336  -5.5150  -5.5040
    -5.4794  -5.4669  -5.4501  -5.4239  -5.4160  -5.3756  -5.3517  -5.3214
    -5.2997  -5.2831  -5.2450  -5.2381  -5.2227  -5.2128  -5.1893  -5.1681
    -5.1530  -5.1270  -5.1188  -5.0954  -5.0816  -5.0785  -5.0580  -5.0307
    -5.0065  -4.9543  -4.9365  -4.9315  -4.9221  -4.8894  -4.8744  -4.8602
    -4.8418  -4.8239  -4.8145  -4.7915  -4.7029  -4.6876  -4.6724  -4.6712
    -4.6429  -4.6242  -4.5894  -4.5750  -4.5627  -4.5413  -4.4958  -4.4937
    -4.4857  -4.4686  -4.4451  -4.4435  -4.4243  -4.4092  -4.3942  -4.3436
    -4.3240  -4.3057  -4.2967  -4.2832  -4.2646  -4.2503  -4.2345  -4.2133
    -4.1744  -4.1587  -4.1526  -4.1260  -4.1058  -4.0882  -4.0833  -4.0607
    -4.0588  -4.0332  -4.0072  -3.9837  -3.9606  -3.9523  -3.9473  -3.9088
    -3.9020  -3.8663  -3.8335  -3.8101  -3.7740  -3.7674  -3.7062  -3.6393
    -1.5550  -1.5509  -1.5237  -1.5129  -1.4908  -1.4725  -1.4674  -1.4520
    -1.4375  -1.4209  -1.4018  -1.3883  -1.3774  -1.3602  -1.3531  -1.3321
    -1.3169  -1.3048  -1.2839  -1.2786  -1.2646  -1.2519  -1.2498  -1.2343
    -1.2213  -1.2011  -1.1897  -1.1813  -1.1700  -1.1590  -1.1505  -1.1379
    -1.1322  -1.1302  -1.1217  -1.1035  -1.0955  -1.0835  -1.0778  -1.0707
    -1.0582  -1.0481  -1.0365  -1.0299  -1.0268  -1.0206  -1.0064  -1.0000
    -0.9971  -0.9815  -0.9730  -0.9570  -0.9382  -0.9266

     highest occupied, lowest unoccupied level (ev):    -3.3253   -1.5651

!    total energy              =  -24931.14658185 Ry
     total all-electron energy =    -24931.146582 Ry
     estimated scf accuracy    <          7.1E-11 Ry

     The total energy is the sum of the following terms:
     one-electron contribution =  -25177.24641138 Ry
     hartree contribution      =   12523.75630788 Ry
     xc contribution           =    -743.77989034 Ry
     ewald contribution        =    8913.20911809 Ry
     Hubbard energy            =       0.03198985 Ry
     one-center paw contrib.   =  -20447.11769594 Ry

     total magnetization       =    54.00 Bohr mag/cell
     absolute magnetization    =    65.40 Bohr mag/cell

     convergence has been achieved in  13 iterations

     negative rho (up, down):  1.304E-01 1.475E-01

     Forces acting on atoms (cartesian axes, Ry/au):

     atom    1 type  1   force =    -0.00112562   -0.00197614    0.00012041
     atom    2 type  3   force =    -0.00246002   -0.00777780    0.00226463
     atom    3 type  3   force =    -0.00550353   -0.00601795    0.00226533
     atom    4 type  2   force =     0.00487054   -0.02270560   -0.00065680
     atom    5 type  2   force =    -0.00320540   -0.00555940   -0.00949220
     atom    6 type  2   force =    -0.02210421   -0.00713653   -0.00065790
     atom    7 type  2   force =     0.00731219   -0.02442451   -0.00194518
     atom    8 type  2   force =     0.00246977    0.00427326    0.00888807
     atom    9 type  2   force =    -0.02481252   -0.00588374   -0.00194350
     atom   10 type  3   force =    -0.00177118   -0.00209666    0.00022897
     atom   11 type  3   force =    -0.00562133   -0.00546321    0.00214588
     atom   12 type  2   force =     0.00494424    0.00062365   -0.00970756
     atom   13 type  2   force =    -0.00289813   -0.00482872   -0.00926233
     atom   14 type  2   force =    -0.02182105   -0.00648085   -0.00078147
     atom   15 type  2   force =    -0.00561041    0.00087653    0.00924580
     atom   16 type  2   force =     0.00235619    0.00469278    0.00945642
     atom   17 type  2   force =    -0.02497526   -0.00541919   -0.00196002
     atom   18 type  3   force =    -0.00134549   -0.00138956   -0.00052509
     atom   19 type  3   force =    -0.01444098    0.02876828    0.00308875
     atom   20 type  2   force =     0.00466496    0.00073080   -0.00975765
     atom   21 type  2   force =    -0.00418146    0.00236430   -0.00760117
     atom   22 type  2   force =    -0.01977276   -0.00451795    0.00137877
     atom   23 type  2   force =    -0.00560586    0.00077148    0.00953178
     atom   24 type  2   force =    -0.00279687    0.01174680    0.00748428
     atom   25 type  2   force =    -0.02316302    0.00011924   -0.00335626
     atom   26 type  3   force =    -0.00192103   -0.00760171    0.00214582
     atom   27 type  3   force =    -0.00093108   -0.00253924    0.00023026
     atom   28 type  2   force =     0.00529676   -0.02213147   -0.00077980
     atom   29 type  2   force =    -0.00272685   -0.00493831   -0.00925837
     atom   30 type  2   force =    -0.00194211    0.00458941   -0.00970977
     atom   31 type  2   force =     0.00779556   -0.02433431   -0.00196098
     atom   32 type  2   force =     0.00289426    0.00438154    0.00945822
     atom   33 type  2   force =     0.00355921   -0.00443299    0.00924083
     atom   34 type  3   force =    -0.00111388   -0.00197909    0.00011899
     atom   35 type  2   force =     0.00559275    0.00098408   -0.01004317
     atom   36 type  2   force =    -0.00272998   -0.00433891   -0.00937197
     atom   37 type  2   force =    -0.00172779    0.00533510   -0.00985879
     atom   38 type  2   force =    -0.00524250    0.00077756    0.00946509
     atom   39 type  2   force =     0.00268561    0.00503920    0.01016825
     atom   40 type  2   force =     0.00339973   -0.00395809    0.00928743
     atom   41 type  3   force =    -0.00067843   -0.00120899   -0.00063896
     atom   42 type  3   force =    -0.00990768    0.03240352    0.00109841
     atom   43 type  2   force =     0.00517143    0.00123744   -0.00990543
     atom   44 type  2   force =    -0.00376834    0.00280902   -0.00757539
     atom   45 type  2   force =    -0.00022035    0.00755310   -0.00794214
     atom   46 type  2   force =    -0.00514189    0.00081959    0.00956191
     atom   47 type  2   force =    -0.00238043    0.01192828    0.00801988
     atom   48 type  2   force =     0.00497937    0.00145632    0.00795471
     atom   49 type  3   force =     0.03213241    0.00187602    0.00308808
     atom   50 type  3   force =    -0.00053268   -0.00186001   -0.00052482
     atom   51 type  2   force =     0.00597342   -0.01937585    0.00137954
     atom   52 type  2   force =     0.00414450   -0.00244291   -0.00760080
     atom   53 type  2   force =    -0.00170392    0.00440035   -0.00975738
     atom   54 type  2   force =     0.01168567   -0.01999601   -0.00335787
     atom   55 type  2   force =     0.01157700    0.00344769    0.00748437
     atom   56 type  2   force =     0.00346582   -0.00447262    0.00953168
     atom   57 type  3   force =     0.03301650    0.00761972    0.00109764
     atom   58 type  3   force =    -0.00073868   -0.00120991   -0.00063715
     atom   59 type  2   force =     0.00665191    0.00359364   -0.00794224
     atom   60 type  2   force =     0.00432543   -0.00186438   -0.00757742
     atom   61 type  2   force =    -0.00141231    0.00529200   -0.01008144
     atom   62 type  2   force =    -0.00122687    0.00504647    0.00795455
     atom   63 type  2   force =     0.01153171    0.00390479    0.00801583
     atom   64 type  2   force =     0.00349777   -0.00404218    0.00974425
     atom   65 type  3   force =     0.03346113    0.00837749    0.00038796
     atom   66 type  3   force =    -0.00947797    0.03316584    0.00038886
     atom   67 type  2   force =     0.00636542    0.00365383   -0.00798900
     atom   68 type  2   force =     0.00304704    0.00527197   -0.00612908
     atom   69 type  2   force =    -0.00002326    0.00732907   -0.00799325
     atom   70 type  2   force =    -0.00131236    0.00478561    0.00826622
     atom   71 type  2   force =     0.00641528    0.01110510    0.00583043
     atom   72 type  2   force =     0.00479188    0.00125391    0.00826407

     Total force =     0.137511     Total SCF correction =     0.000009


     Computing stress (Cartesian axis) and pressure


     negative rho (up, down):  1.304E-01 1.475E-01
          total   stress  (Ry/bohr**3)                   (kbar)     P=        1.85
   0.00001243  -0.00000122   0.00000070            1.83       -0.18        0.10
  -0.00000122   0.00001102   0.00000121           -0.18        1.62        0.18
   0.00000070   0.00000121   0.00001422            0.10        0.18        2.09


     Writing all to output data dir ./Cr_0.1_0/Cr_0_0.save/ :
     XML data file, charge density, pseudopotentials, collected wavefunctions

     init_run     :    205.52s CPU    124.90s WALL (       1 calls)
     electrons    :   3548.13s CPU   1919.47s WALL (       1 calls)
     forces       :   2447.04s CPU   1637.71s WALL (       1 calls)
     stress       :   6074.87s CPU   5030.39s WALL (       1 calls)

     Called by init_run:
     wfcinit      :    186.82s CPU    105.00s WALL (       1 calls)
     potinit      :      3.79s CPU      4.19s WALL (       1 calls)
     hinit0       :      2.42s CPU      2.71s WALL (       1 calls)

     Called by electrons:
     c_bands      :   3063.17s CPU   1630.81s WALL (      14 calls)
     sum_band     :    431.05s CPU    241.81s WALL (      14 calls)
     v_of_rho     :     18.10s CPU     15.02s WALL (      14 calls)
     newd         :     25.15s CPU     25.08s WALL (      14 calls)
     PAW_pot      :      9.23s CPU      6.51s WALL (      14 calls)
     mix_rho      :      2.67s CPU      2.11s WALL (      14 calls)

     Called by c_bands:
     init_us_2    :     24.24s CPU     12.55s WALL (     272 calls)
     init_us_2:cp :     24.24s CPU     12.55s WALL (     272 calls)
     cegterg      :   3034.53s CPU   1613.47s WALL (     112 calls)

     Called by *egterg:
     cdiaghg      :    314.94s CPU    180.77s WALL (     594 calls)
     h_psi        :   1842.38s CPU    954.06s WALL (     610 calls)
     s_psi        :    235.68s CPU    119.49s WALL (     650 calls)
     g_psi        :      6.40s CPU      3.26s WALL (     490 calls)

     Called by h_psi:
     h_psi:calbec :    227.43s CPU    117.52s WALL (     610 calls)
     vloc_psi     :   1386.25s CPU    712.90s WALL (     610 calls)
     add_vuspsi   :    196.22s CPU     99.51s WALL (     610 calls)
     vhpsi        :     27.10s CPU     14.53s WALL (     610 calls)

     General routines
     calbec       :   2404.19s CPU   1247.69s WALL (   56908 calls)
     fft          :     19.56s CPU     19.57s WALL (     390 calls)
     ffts         :      2.36s CPU      2.09s WALL (      56 calls)
     fftw         :   1249.59s CPU    644.43s WALL (  269244 calls)
     interpolate  :      2.81s CPU      2.38s WALL (      28 calls)

     Parallel routines

     Hubbard U routines
     new_ns       :      6.33s CPU      4.53s WALL (      14 calls)
     vhpsi        :     27.10s CPU     14.53s WALL (     610 calls)
     force_hub    :   2414.89s CPU   1619.53s WALL (       1 calls)
                                        0.00s GPU  (       1 calls)
     stres_hub    :   5539.65s CPU   4745.00s WALL (       1 calls)
                                        0.00s GPU  (       1 calls)

     PWSCF        :      3h25m CPU      2h25m WALL


   This run was terminated on:  22:32:52  26Sep2025            

=------------------------------------------------------------------------------=
   JOB DONE.
=------------------------------------------------------------------------------=
