
     Program PWSCF v.7.3 starts on  4Sep2025 at 21:38:53 

     This program is part of the open-source Quantum ESPRESSO suite
     for quantum simulation of materials; please cite
         "P. Giannozzi et al., J. Phys.:Condens. Matter 21 395502 (2009);
         "P. Giannozzi et al., J. Phys.:Condens. Matter 29 465901 (2017);
         "P. Giannozzi et al., J. Chem. Phys. 152 154105 (2020);
          URL http://www.quantum-espresso.org", 
     in publications or presentations arising from this work. More details at
     http://www.quantum-espresso.org/quote

     Parallel version (MPI & OpenMP), running on     256 processor cores
     Number of MPI processes:               128
     Threads/MPI process:                     2

     MPI processes distributed on     2 nodes
     439091 MiB available memory on the printing compute node when the environment starts

     Reading input from Cr_-0.2_0.in
Warning: card &CELL ignored
Warning: card / ignored
Warning: card &FCP ignored
Warning: card / ignored
Warning: card &RISM ignored
Warning: card / ignored

     Current dimensions of program PWSCF are:
     Max number of different atomic species (ntypx) = 10
     Max number of k-points (npk) =  40000
     Max angular momentum in pseudopotentials (lmaxx) =  4
read_pp_mesh; mismatch in mesh size, discarding the one in header
read_pp_mesh; mismatch in mesh size, discarding the one in header
read_pp_mesh; mismatch in mesh size, discarding the one in header
     file Cr.GGA-PBE-paw.UPF: wavefunction(s)  3S 4S 3P 4P 3D 4D renormalized
     file I.GGA-PBE-paw.UPF: wavefunction(s)  6S 6P renormalized
     file Cr.GGA-PBE-paw.UPF: wavefunction(s)  3S 4S 3P 4P 3D 4D renormalized

     IMPORTANT: XC functional enforced from input :
     Exchange-correlation= PBE
                           (   1   4   3   4   0   0   0)
     Any further DFT definition will be discarded
     Please, verify this is what you really want


     R & G space division:  proc/nbgrp/npool/nimage =     128
     Subspace diagonalization in iterative solution of the eigenvalue problem:
     one sub-group per band group will be used
     ELPA distributed-memory algorithm (size of sub-group:  3*  3 procs)


     Parallelization info
     --------------------
     sticks:   dense  smooth     PW     G-vecs:    dense   smooth      PW
     Min         509     305     78               140391    65241    8388
     Max         510     306     79               140404    65254    8400
     Sum       65263   39121   9985             17971031  8351671 1074593

     Using Slab Decomposition



     bravais-lattice index     =            0
     lattice parameter (alat)  =      39.7293  a.u.
     unit-cell volume          =   72410.5124 (a.u.)^3
     number of atoms/cell      =           72
     number of atomic types    =            3
     number of electrons       =       630.00 (up: 342.00, down: 288.00)
     number of Kohn-Sham states=          342
     kinetic-energy cutoff     =      90.0000  Ry
     charge density cutoff     =     600.0000  Ry
     scf convergence threshold =      1.0E-10
     mixing beta               =       0.3000
     number of iterations used =            8  plain     mixing
     Exchange-correlation= PBE
                           (   1   4   3   4   0   0   0)
     Hubbard projectors: atomic
     Hubbard parameters of DFT+U (Dudarev formulation) in eV:
     U(Cr1-3d) =  0.0000
     J0(Cr1-3d) =  0.0000
     alpha(Cr1-3d) = -0.2000

     Internal variables: lda_plus_u =T, lda_plus_u_kind = 0

     celldm(1)=  39.729285  celldm(2)=   0.000000  celldm(3)=   0.000000
     celldm(4)=   0.000000  celldm(5)=   0.000000  celldm(6)=   0.000000

     crystal axes: (cart. coord. in units of alat)
               a(1) = (   1.000000   0.000000   0.000000 )  
               a(2) = (  -0.500000   0.866025   0.000000 )  
               a(3) = (   0.000000   0.000000   1.333333 )  

     reciprocal axes: (cart. coord. in units 2 pi/alat)
               b(1) = (  1.000000  0.577350 -0.000000 )  
               b(2) = (  0.000000  1.154701  0.000000 )  
               b(3) = (  0.000000 -0.000000  0.750000 )  


     PseudoPot. # 1 for Cr read from file:
     ./Cr.GGA-PBE-paw.UPF
     MD5 check sum: 389087661106aa6caf57455f2e439c97
     Pseudo is Projector augmented-wave + core cor, Zval = 14.0
     Generated using ATOMPAW code
     Shape of augmentation charge: SINC**2
     Using radial grid of 2342 points,  6 beta functions with: 
                l(1) =   0
                l(2) =   0
                l(3) =   1
                l(4) =   1
                l(5) =   2
                l(6) =   2
     Q(r) pseudized with 0 coefficients 


     PseudoPot. # 2 for I  read from file:
     ./I.GGA-PBE-paw.UPF
     MD5 check sum: 736bb4145856fa7ed29d0984862794a4
     Pseudo is Projector augmented-wave + core cor, Zval =  7.0
     Generated using ATOMPAW code
     Shape of augmentation charge: SINC**2
     Using radial grid of 2342 points,  4 beta functions with: 
                l(1) =   0
                l(2) =   0
                l(3) =   1
                l(4) =   1
     Q(r) pseudized with 0 coefficients 


     PseudoPot. # 3 for Cr read from file:
     ./Cr.GGA-PBE-paw.UPF
     MD5 check sum: 389087661106aa6caf57455f2e439c97
     Pseudo is Projector augmented-wave + core cor, Zval = 14.0
     Generated using ATOMPAW code
     Shape of augmentation charge: SINC**2
     Using radial grid of 2342 points,  6 beta functions with: 
                l(1) =   0
                l(2) =   0
                l(3) =   1
                l(4) =   1
                l(5) =   2
                l(6) =   2
     Q(r) pseudized with 0 coefficients 


     atomic species   valence    mass     pseudopotential
     Cr1              14.00    51.99610     Cr( 1.00)
     I                 7.00   126.90447     I ( 1.00)
     Cr               14.00    51.99610     Cr( 1.00)

     Starting magnetic structure 
     atomic species   magnetization
     Cr1             0.214
     I               0.000
     Cr              0.214

     No symmetry found



   Cartesian axes

     site n.     atom                  positions (alat units)
         1        Cr1    tau(   1) = (   0.3271041   0.3777073   0.4295967  )
         2        Cr     tau(   2) = (   0.1635521   0.0944268   0.4295967  )
         3        Cr     tau(   3) = (   0.0000000   0.1888536   0.4295967  )
         4        I      tau(   4) = (   0.2103614  -0.0000006   0.3558127  )
         5        I      tau(   5) = (   0.0583708   0.1011024   0.3558127  )
         6        I      tau(   6) = (  -0.1051802   0.1821787   0.3558127  )
         7        I      tau(   7) = (   0.1167427  -0.0000005   0.5033806  )
         8        I      tau(   8) = (   0.1051802   0.1821786   0.5033806  )
         9        I      tau(   9) = (  -0.0583709   0.1011024   0.5033806  )
        10        Cr     tau(  10) = (  -0.0000000   0.3777073   0.4295967  )
        11        Cr     tau(  11) = (  -0.1635521   0.4721341   0.4295967  )
        12        I      tau(  12) = (   0.0468094   0.2832798   0.3558127  )
        13        I      tau(  13) = (  -0.1051813   0.3843829   0.3558127  )
        14        I      tau(  14) = (  -0.2687322   0.4654591   0.3558127  )
        15        I      tau(  15) = (  -0.0468094   0.2832799   0.5033806  )
        16        I      tau(  16) = (  -0.0583718   0.4654591   0.5033806  )
        17        I      tau(  17) = (  -0.2219229   0.3843829   0.5033806  )
        18        Cr     tau(  18) = (  -0.1635521   0.6609878   0.4295967  )
        19        Cr     tau(  19) = (  -0.3271041   0.7554146   0.4295967  )
        20        I      tau(  20) = (  -0.1167427   0.5665603   0.3558127  )
        21        I      tau(  21) = (  -0.2687333   0.6676634   0.3558127  )
        22        I      tau(  22) = (  -0.4322843   0.7487396   0.3558127  )
        23        I      tau(  23) = (  -0.2103614   0.5665604   0.5033806  )
        24        I      tau(  24) = (  -0.2219239   0.7487396   0.5033806  )
        25        I      tau(  25) = (  -0.3854750   0.6676633   0.5033806  )
        26        Cr     tau(  26) = (   0.4906562   0.0944268   0.4295967  )
        27        Cr     tau(  27) = (   0.3271041   0.1888536   0.4295967  )
        28        I      tau(  28) = (   0.5374655  -0.0000006   0.3558127  )
        29        I      tau(  29) = (   0.3854749   0.1011024   0.3558127  )
        30        I      tau(  30) = (   0.2219239   0.1821787   0.3558127  )
        31        I      tau(  31) = (   0.4438468  -0.0000005   0.5033806  )
        32        I      tau(  32) = (   0.4322844   0.1821786   0.5033806  )
        33        I      tau(  33) = (   0.2687332   0.1011024   0.5033806  )
        34        Cr     tau(  34) = (   0.1635521   0.4721341   0.4295967  )
        35        I      tau(  35) = (   0.3739135   0.2832798   0.3558127  )
        36        I      tau(  36) = (   0.2219229   0.3843829   0.3558127  )
        37        I      tau(  37) = (   0.0583719   0.4654591   0.3558127  )
        38        I      tau(  38) = (   0.2802947   0.2832799   0.5033806  )
        39        I      tau(  39) = (   0.2687323   0.4654591   0.5033806  )
        40        I      tau(  40) = (   0.1051812   0.3843829   0.5033806  )
        41        Cr     tau(  41) = (   0.1635521   0.6609878   0.4295967  )
        42        Cr     tau(  42) = (   0.0000000   0.7554146   0.4295967  )
        43        I      tau(  43) = (   0.2103614   0.5665603   0.3558127  )
        44        I      tau(  44) = (   0.0583708   0.6676634   0.3558127  )
        45        I      tau(  45) = (  -0.1051802   0.7487396   0.3558127  )
        46        I      tau(  46) = (   0.1167427   0.5665604   0.5033806  )
        47        I      tau(  47) = (   0.1051802   0.7487396   0.5033806  )
        48        I      tau(  48) = (  -0.0583709   0.6676633   0.5033806  )
        49        Cr     tau(  49) = (   0.8177603   0.0944268   0.4295967  )
        50        Cr     tau(  50) = (   0.6542082   0.1888536   0.4295967  )
        51        I      tau(  51) = (   0.8645697  -0.0000006   0.3558127  )
        52        I      tau(  52) = (   0.7125790   0.1011024   0.3558127  )
        53        I      tau(  53) = (   0.5490281   0.1821787   0.3558127  )
        54        I      tau(  54) = (   0.7709509  -0.0000005   0.5033806  )
        55        I      tau(  55) = (   0.7593885   0.1821786   0.5033806  )
        56        I      tau(  56) = (   0.5958374   0.1011024   0.5033806  )
        57        Cr     tau(  57) = (   0.6542082   0.3777073   0.4295967  )
        58        Cr     tau(  58) = (   0.4906562   0.4721341   0.4295967  )
        59        I      tau(  59) = (   0.7010176   0.2832798   0.3558127  )
        60        I      tau(  60) = (   0.5490270   0.3843829   0.3558127  )
        61        I      tau(  61) = (   0.3854760   0.4654591   0.3558127  )
        62        I      tau(  62) = (   0.6073989   0.2832799   0.5033806  )
        63        I      tau(  63) = (   0.5958364   0.4654591   0.5033806  )
        64        I      tau(  64) = (   0.4322853   0.3843829   0.5033806  )
        65        Cr     tau(  65) = (   0.4906562   0.6609878   0.4295967  )
        66        Cr     tau(  66) = (   0.3271041   0.7554146   0.4295967  )
        67        I      tau(  67) = (   0.5374655   0.5665603   0.3558127  )
        68        I      tau(  68) = (   0.3854749   0.6676634   0.3558127  )
        69        I      tau(  69) = (   0.2219239   0.7487396   0.3558127  )
        70        I      tau(  70) = (   0.4438468   0.5665604   0.5033806  )
        71        I      tau(  71) = (   0.4322844   0.7487396   0.5033806  )
        72        I      tau(  72) = (   0.2687332   0.6676633   0.5033806  )

     number of k points=     4
                       cart. coord. in units 2pi/alat
        k(    1) = (   0.0000000   0.0000000   0.0000000), wk =   0.2500000
        k(    2) = (   0.0000000  -0.5773503   0.0000000), wk =   0.2500000
        k(    3) = (   0.5000000  -0.2886751   0.0000000), wk =   0.2500000
        k(    4) = (  -0.5000000  -0.2886751   0.0000000), wk =   0.2500000

     Dense  grid: 17971031 G-vectors     FFT dimensions: ( 320, 320, 432)

     Smooth grid:  8351671 G-vectors     FFT dimensions: ( 240, 240, 320)

     Estimated max dynamical RAM per process >       1.67 GB

     Estimated total dynamical RAM >     213.14 GB
     Generating pointlists ...
     new r_m :   0.0531 (alat units)  2.1084 (a.u.) for type    1
     new r_m :   0.0531 (alat units)  2.1084 (a.u.) for type    2
     new r_m :   0.0531 (alat units)  2.1084 (a.u.) for type    3

     The initial density is read from file :
     ./Cr_-0.2_0/Cr_0_0.save/charge-density


     negative rho (up, down):  1.304E-01 1.474E-01

     STARTING HUBBARD OCCUPATIONS:

     =================== HUBBARD OCCUPATIONS ===================
     ------------------------ ATOM    1 ------------------------
     Tr[ns(  1)] (up, down, total) =   4.25332  1.37309  5.62641
     Atomic magnetic moment for atom   1 =   2.88023
     SPIN  1
     eigenvalues:
       0.638  0.640  0.991  0.992  0.992
     eigenvectors (columns):
      -0.000  0.000 -0.955  0.236 -0.180
      -0.801  0.198  0.165  0.485 -0.238
      -0.198 -0.802 -0.031  0.257  0.501
       0.549 -0.135  0.240  0.709 -0.348
      -0.135 -0.547  0.046 -0.375 -0.734
     occupation matrix ns (before diag.):
       0.991  0.000 -0.000  0.000  0.000
       0.000  0.751 -0.000  0.165 -0.000
      -0.000 -0.000  0.752  0.000 -0.164
       0.000  0.165  0.000  0.879  0.000
       0.000 -0.000 -0.164  0.000  0.880
     SPIN  2
     eigenvalues:
       0.158  0.167  0.169  0.439  0.440
     eigenvectors (columns):
      -0.999  0.031 -0.025  0.000 -0.000
      -0.020 -0.549  0.128  0.794 -0.226
       0.010 -0.129 -0.547  0.226  0.795
      -0.030 -0.804  0.188 -0.543  0.154
      -0.014  0.188  0.805  0.154  0.541
     occupation matrix ns (before diag.):
       0.158 -0.000  0.000 -0.000 -0.000
      -0.000  0.353 -0.000 -0.127 -0.000
       0.000 -0.000  0.354 -0.000  0.126
      -0.000 -0.127 -0.000  0.254  0.000
      -0.000 -0.000  0.126  0.000  0.255

     Number of occupied Hubbard levels =    5.6264

     Atomic wfc used for Hubbard projectors are NOT orthogonalized

     Starting wfcs are  756 atomic wfcs
     Checking if some PAW data can be deallocated... 

     total cpu time spent up to now is       99.9 secs

     Self-consistent Calculation

     iteration #  1     ecut=    90.00 Ry     beta= 0.30
     Davidson diagonalization with overlap
     ethr =  1.00E-05,  avg # of iterations =  8.6

     =================== HUBBARD OCCUPATIONS ===================
     ------------------------ ATOM    1 ------------------------
     Tr[ns(  1)] (up, down, total) =   4.29646  1.44689  5.74335
     Atomic magnetic moment for atom   1 =   2.84957
     SPIN  1
     eigenvalues:
       0.659  0.661  0.992  0.992  0.992
     eigenvectors (columns):
      -0.000  0.000 -0.967  0.198 -0.157
      -0.802  0.195  0.140  0.496 -0.233
      -0.195 -0.803 -0.032  0.247  0.506
       0.549 -0.133  0.203  0.724 -0.340
      -0.133 -0.548  0.047 -0.361 -0.741
     occupation matrix ns (before diag.):
       0.992  0.000 -0.000  0.000  0.000
       0.000  0.766 -0.000  0.155 -0.000
      -0.000 -0.000  0.766  0.000 -0.154
       0.000  0.155  0.000  0.886  0.000
       0.000 -0.000 -0.154  0.000  0.887
     SPIN  2
     eigenvalues:
       0.170  0.180  0.182  0.457  0.458
     eigenvectors (columns):
      -0.999  0.034 -0.028  0.001 -0.000
      -0.022 -0.547  0.130  0.795 -0.225
       0.011 -0.131 -0.546  0.225  0.796
      -0.033 -0.803  0.192 -0.542  0.153
      -0.016  0.192  0.805  0.153  0.540
     occupation matrix ns (before diag.):
       0.170 -0.000  0.000 -0.000 -0.000
      -0.000  0.369 -0.000 -0.129 -0.000
       0.000 -0.000  0.371 -0.000  0.128
      -0.000 -0.129 -0.000  0.268  0.000
      -0.000 -0.000  0.128  0.000  0.269

     Number of occupied Hubbard levels =    5.7434

     Threshold (ethr) on eigenvalues was too large:
     Diagonalizing with lowered threshold

     Davidson diagonalization with overlap
     ethr =  7.67E-07,  avg # of iterations =  2.0

     negative rho (up, down):  1.304E-01 1.474E-01

     total cpu time spent up to now is      567.6 secs

     total energy              =  -24931.25967503 Ry
     estimated scf accuracy    <       0.00483226 Ry

     total magnetization       =    54.00 Bohr mag/cell
     absolute magnetization    =    65.39 Bohr mag/cell

     iteration #  2     ecut=    90.00 Ry     beta= 0.30
     Davidson diagonalization with overlap
     c_bands:  1 eigenvalues not converged
     ethr =  7.67E-07,  avg # of iterations = 11.4

     negative rho (up, down):  1.304E-01 1.474E-01

     total cpu time spent up to now is      741.6 secs

     total energy              =  -24931.26021254 Ry
     estimated scf accuracy    <       0.01459585 Ry

     total magnetization       =    54.00 Bohr mag/cell
     absolute magnetization    =    65.34 Bohr mag/cell

     iteration #  3     ecut=    90.00 Ry     beta= 0.30
     Davidson diagonalization with overlap
     ethr =  7.67E-07,  avg # of iterations =  7.2

     negative rho (up, down):  1.304E-01 1.474E-01

     total cpu time spent up to now is      880.2 secs

     total energy              =  -24931.26165322 Ry
     estimated scf accuracy    <       0.00001816 Ry

     total magnetization       =    54.00 Bohr mag/cell
     absolute magnetization    =    65.37 Bohr mag/cell

     iteration #  4     ecut=    90.00 Ry     beta= 0.30
     Davidson diagonalization with overlap
     ethr =  2.88E-09,  avg # of iterations =  5.1

     negative rho (up, down):  1.304E-01 1.474E-01

     total cpu time spent up to now is     1025.5 secs

     total energy              =  -24931.26166234 Ry
     estimated scf accuracy    <       0.00001183 Ry

     total magnetization       =    54.00 Bohr mag/cell
     absolute magnetization    =    65.37 Bohr mag/cell

     iteration #  5     ecut=    90.00 Ry     beta= 0.30
     Davidson diagonalization with overlap
     ethr =  1.88E-09,  avg # of iterations =  2.8

     negative rho (up, down):  1.304E-01 1.474E-01

     total cpu time spent up to now is     1127.3 secs

     total energy              =  -24931.26166438 Ry
     estimated scf accuracy    <       0.00000451 Ry

     total magnetization       =    54.00 Bohr mag/cell
     absolute magnetization    =    65.37 Bohr mag/cell

     iteration #  6     ecut=    90.00 Ry     beta= 0.30
     Davidson diagonalization with overlap
     ethr =  7.17E-10,  avg # of iterations =  3.6

     negative rho (up, down):  1.304E-01 1.474E-01

     total cpu time spent up to now is     1235.9 secs

     total energy              =  -24931.26166527 Ry
     estimated scf accuracy    <       0.00000080 Ry

     total magnetization       =    54.00 Bohr mag/cell
     absolute magnetization    =    65.37 Bohr mag/cell

     iteration #  7     ecut=    90.00 Ry     beta= 0.30
     Davidson diagonalization with overlap
     ethr =  1.27E-10,  avg # of iterations =  4.1

     negative rho (up, down):  1.304E-01 1.474E-01

     total cpu time spent up to now is     1351.9 secs

     total energy              =  -24931.26166560 Ry
     estimated scf accuracy    <       0.00000050 Ry

     total magnetization       =    54.00 Bohr mag/cell
     absolute magnetization    =    65.37 Bohr mag/cell

     iteration #  8     ecut=    90.00 Ry     beta= 0.30
     Davidson diagonalization with overlap
     ethr =  7.99E-11,  avg # of iterations =  3.4

     negative rho (up, down):  1.304E-01 1.474E-01

     total cpu time spent up to now is     1447.2 secs

     total energy              =  -24931.26166572 Ry
     estimated scf accuracy    <       0.00000016 Ry

     total magnetization       =    54.00 Bohr mag/cell
     absolute magnetization    =    65.36 Bohr mag/cell

     iteration #  9     ecut=    90.00 Ry     beta= 0.30
     Davidson diagonalization with overlap
     ethr =  2.60E-11,  avg # of iterations =  5.1

     negative rho (up, down):  1.304E-01 1.474E-01

     total cpu time spent up to now is     1567.7 secs

     total energy              =  -24931.26166578 Ry
     estimated scf accuracy    <       0.00000006 Ry

     total magnetization       =    54.00 Bohr mag/cell
     absolute magnetization    =    65.36 Bohr mag/cell

     iteration # 10     ecut=    90.00 Ry     beta= 0.30
     Davidson diagonalization with overlap
     ethr =  9.96E-12,  avg # of iterations =  3.6

     negative rho (up, down):  1.304E-01 1.474E-01

     total cpu time spent up to now is     1676.8 secs

     total energy              =  -24931.26166580 Ry
     estimated scf accuracy    <       0.00000001 Ry

     total magnetization       =    54.00 Bohr mag/cell
     absolute magnetization    =    65.36 Bohr mag/cell

     iteration # 11     ecut=    90.00 Ry     beta= 0.30
     Davidson diagonalization with overlap
     ethr =  1.99E-12,  avg # of iterations =  5.5

     negative rho (up, down):  1.304E-01 1.474E-01

     total cpu time spent up to now is     1818.2 secs

     total energy              =  -24931.26166581 Ry
     estimated scf accuracy    <          4.5E-09 Ry

     total magnetization       =    54.00 Bohr mag/cell
     absolute magnetization    =    65.36 Bohr mag/cell

     iteration # 12     ecut=    90.00 Ry     beta= 0.30
     Davidson diagonalization with overlap
     ethr =  7.08E-13,  avg # of iterations =  3.4

     negative rho (up, down):  1.305E-01 1.474E-01

     total cpu time spent up to now is     1928.8 secs

     total energy              =  -24931.26166581 Ry
     estimated scf accuracy    <          2.1E-09 Ry

     total magnetization       =    54.00 Bohr mag/cell
     absolute magnetization    =    65.36 Bohr mag/cell

     iteration # 13     ecut=    90.00 Ry     beta= 0.30
     Davidson diagonalization with overlap
     ethr =  3.38E-13,  avg # of iterations =  5.1

     negative rho (up, down):  1.305E-01 1.474E-01

     total cpu time spent up to now is     2053.5 secs

     total energy              =  -24931.26166582 Ry
     estimated scf accuracy    <          1.1E-09 Ry

     total magnetization       =    54.00 Bohr mag/cell
     absolute magnetization    =    65.36 Bohr mag/cell

     iteration # 14     ecut=    90.00 Ry     beta= 0.30
     Davidson diagonalization with overlap
     ethr =  1.77E-13,  avg # of iterations =  4.5

     negative rho (up, down):  1.305E-01 1.474E-01

     total cpu time spent up to now is     2171.1 secs

     total energy              =  -24931.26166582 Ry
     estimated scf accuracy    <          1.8E-10 Ry

     total magnetization       =    54.00 Bohr mag/cell
     absolute magnetization    =    65.36 Bohr mag/cell

     iteration # 15     ecut=    90.00 Ry     beta= 0.30
     Davidson diagonalization with overlap
     ethr =  1.00E-13,  avg # of iterations =  2.5

     negative rho (up, down):  1.305E-01 1.474E-01

     Magnetic moment per site  (integrated on atomic sphere of radius R)
     atom   1 (R=0.053)  charge= 12.4270  magn=  2.8960
     atom   2 (R=0.053)  charge= 12.4086  magn=  2.9137
     atom   3 (R=0.053)  charge= 12.4086  magn=  2.9136
     atom   4 (R=0.053)  charge=  4.0328  magn= -0.0666
     atom   5 (R=0.053)  charge=  4.0497  magn= -0.0522
     atom   6 (R=0.053)  charge=  4.0328  magn= -0.0666
     atom   7 (R=0.053)  charge=  4.0248  magn= -0.0723
     atom   8 (R=0.053)  charge=  4.0502  magn= -0.0558
     atom   9 (R=0.053)  charge=  4.0248  magn= -0.0723
     atom  10 (R=0.053)  charge= 12.4124  magn=  2.9203
     atom  11 (R=0.053)  charge= 12.4091  magn=  2.9162
     atom  12 (R=0.053)  charge=  4.0513  magn= -0.0515
     atom  13 (R=0.053)  charge=  4.0498  magn= -0.0517
     atom  14 (R=0.053)  charge=  4.0336  magn= -0.0637
     atom  15 (R=0.053)  charge=  4.0500  magn= -0.0523
     atom  16 (R=0.053)  charge=  4.0513  magn= -0.0523
     atom  17 (R=0.053)  charge=  4.0253  magn= -0.0709
     atom  18 (R=0.053)  charge= 12.4122  magn=  2.9227
     atom  19 (R=0.053)  charge= 12.3252  magn=  3.0168
     atom  20 (R=0.053)  charge=  4.0507  magn= -0.0525
     atom  21 (R=0.053)  charge=  4.0444  magn= -0.0604
     atom  22 (R=0.053)  charge=  4.0303  magn= -0.0695
     atom  23 (R=0.053)  charge=  4.0499  magn= -0.0520
     atom  24 (R=0.053)  charge=  4.0486  magn= -0.0515
     atom  25 (R=0.053)  charge=  4.0214  magn= -0.0769
     atom  26 (R=0.053)  charge= 12.4090  magn=  2.9163
     atom  27 (R=0.053)  charge= 12.4125  magn=  2.9206
     atom  28 (R=0.053)  charge=  4.0336  magn= -0.0637
     atom  29 (R=0.053)  charge=  4.0498  magn= -0.0515
     atom  30 (R=0.053)  charge=  4.0513  magn= -0.0515
     atom  31 (R=0.053)  charge=  4.0253  magn= -0.0709
     atom  32 (R=0.053)  charge=  4.0513  magn= -0.0522
     atom  33 (R=0.053)  charge=  4.0500  magn= -0.0522
     atom  34 (R=0.053)  charge= 12.4128  magn=  2.9236
     atom  35 (R=0.053)  charge=  4.0503  magn= -0.0470
     atom  36 (R=0.053)  charge=  4.0483  magn= -0.0487
     atom  37 (R=0.053)  charge=  4.0520  magn= -0.0493
     atom  38 (R=0.053)  charge=  4.0489  magn= -0.0482
     atom  39 (R=0.053)  charge=  4.0508  magn= -0.0463
     atom  40 (R=0.053)  charge=  4.0506  magn= -0.0506
     atom  41 (R=0.053)  charge= 12.4124  magn=  2.9258
     atom  42 (R=0.053)  charge= 12.3292  magn=  3.0258
     atom  43 (R=0.053)  charge=  4.0514  magn= -0.0504
     atom  44 (R=0.053)  charge=  4.0448  magn= -0.0597
     atom  45 (R=0.053)  charge=  4.0486  magn= -0.0544
     atom  46 (R=0.053)  charge=  4.0507  magn= -0.0503
     atom  47 (R=0.053)  charge=  4.0495  magn= -0.0482
     atom  48 (R=0.053)  charge=  4.0467  magn= -0.0568
     atom  49 (R=0.053)  charge= 12.3252  magn=  3.0168
     atom  50 (R=0.053)  charge= 12.4122  magn=  2.9227
     atom  51 (R=0.053)  charge=  4.0302  magn= -0.0695
     atom  52 (R=0.053)  charge=  4.0444  magn= -0.0604
     atom  53 (R=0.053)  charge=  4.0507  magn= -0.0525
     atom  54 (R=0.053)  charge=  4.0214  magn= -0.0769
     atom  55 (R=0.053)  charge=  4.0486  magn= -0.0515
     atom  56 (R=0.053)  charge=  4.0499  magn= -0.0520
     atom  57 (R=0.053)  charge= 12.3292  magn=  3.0259
     atom  58 (R=0.053)  charge= 12.4125  magn=  2.9260
     atom  59 (R=0.053)  charge=  4.0486  magn= -0.0544
     atom  60 (R=0.053)  charge=  4.0448  magn= -0.0596
     atom  61 (R=0.053)  charge=  4.0498  magn= -0.0482
     atom  62 (R=0.053)  charge=  4.0467  magn= -0.0568
     atom  63 (R=0.053)  charge=  4.0495  magn= -0.0481
     atom  64 (R=0.053)  charge=  4.0491  magn= -0.0481
     atom  65 (R=0.053)  charge= 12.3290  magn=  3.0299
     atom  66 (R=0.053)  charge= 12.3290  magn=  3.0299
     atom  67 (R=0.053)  charge=  4.0480  magn= -0.0554
     atom  68 (R=0.053)  charge=  4.0397  magn= -0.0675
     atom  69 (R=0.053)  charge=  4.0479  magn= -0.0555
     atom  70 (R=0.053)  charge=  4.0471  magn= -0.0558
     atom  71 (R=0.053)  charge=  4.0465  magn= -0.0471
     atom  72 (R=0.053)  charge=  4.0471  magn= -0.0559

     total cpu time spent up to now is     2262.6 secs

     End of self-consistent calculation

     =================== HUBBARD OCCUPATIONS ===================
     ------------------------ ATOM    1 ------------------------
     Tr[ns(  1)] (up, down, total) =   4.25970  1.41170  5.67140
     Atomic magnetic moment for atom   1 =   2.84800
     SPIN  1
     eigenvalues:
       0.642  0.643  0.991  0.992  0.992
     eigenvectors (columns):
      -0.000  0.000 -0.948  0.252 -0.197
      -0.801  0.198  0.178  0.478 -0.243
      -0.198 -0.802 -0.033  0.265  0.497
       0.548 -0.135  0.259  0.699 -0.354
      -0.135 -0.547  0.048 -0.387 -0.728
     occupation matrix ns (before diag.):
       0.991  0.000 -0.000  0.000  0.000
       0.000  0.753 -0.000  0.163 -0.000
      -0.000 -0.000  0.754  0.000 -0.162
       0.000  0.163  0.000  0.880  0.000
       0.000 -0.000 -0.162  0.000  0.881
     SPIN  2
     eigenvalues:
       0.165  0.175  0.176  0.447  0.448
     eigenvectors (columns):
      -0.999  0.032 -0.027  0.000 -0.000
      -0.021 -0.548  0.129  0.795 -0.226
       0.010 -0.130 -0.547  0.226  0.796
      -0.031 -0.804  0.189 -0.542  0.153
      -0.015  0.190  0.805  0.154  0.540
     occupation matrix ns (before diag.):
       0.165 -0.000  0.000 -0.000 -0.000
      -0.000  0.361 -0.000 -0.127 -0.000
       0.000 -0.000  0.362 -0.000  0.126
      -0.000 -0.127 -0.000  0.261  0.000
      -0.000 -0.000  0.126  0.000  0.262

     Number of occupied Hubbard levels =    5.6714

 ------ SPIN UP ------------


          k = 0.0000 0.0000 0.0000 (****** PWs)   bands (ev):

   -76.1371 -76.1371 -76.0610 -76.0609 -76.0127 -76.0121 -75.9809 -75.9809
   -75.9322 -75.9302 -75.9302 -75.8510 -75.8508 -75.8506 -75.8502 -75.7727
   -75.7726 -75.7426 -47.4877 -47.4867 -47.4633 -47.4622 -47.4579 -47.4575
   -47.4086 -47.4085 -47.3882 -47.3881 -47.3824 -47.3823 -47.3521 -47.3514
   -47.3457 -47.3450 -47.3395 -47.3388 -47.3274 -47.3274 -47.3061 -47.3060
   -47.3015 -47.3015 -47.2704 -47.2698 -47.2698 -47.2641 -47.2633 -47.2633
   -47.2614 -47.2561 -47.2561 -47.1891 -47.1890 -47.1886 -47.1881 -47.1837
   -47.1836 -47.1817 -47.1814 -47.1797 -47.1794 -47.1765 -47.1764 -47.1105
   -47.1102 -47.1066 -47.1046 -47.0975 -47.0973 -47.0855 -47.0793 -47.0765
   -16.2034 -16.0674 -16.0166 -15.9894 -15.9551 -15.8951 -15.8619 -15.7101
   -15.6637 -15.6335 -15.6068 -15.4952 -15.4792 -15.4548 -15.4247 -15.4086
   -15.3812 -15.3555 -15.3460 -15.3341 -15.3321 -15.3107 -15.2945 -15.2751
   -15.2702 -15.2476 -15.2395 -15.2366 -15.2040 -15.1920 -15.1774 -15.1717
   -15.1655 -15.1546 -15.1275 -15.1224 -15.1185 -15.1091 -15.1014 -15.0833
   -15.0772 -15.0692 -15.0317 -15.0235 -15.0073 -14.9964 -14.9862 -14.9103
   -14.8809 -14.8795 -14.8185 -14.8160 -14.7422 -14.7137  -7.9457  -7.8765
    -7.8352  -7.7914  -7.7830  -7.7423  -7.6960  -7.4075  -7.3806  -7.3743
    -7.3668  -7.3294  -7.2921  -7.2647  -7.2352  -7.2204  -7.1430  -7.1362
    -6.9827  -6.9455  -6.9434  -6.9001  -6.8828  -6.8625  -6.8530  -6.8449
    -6.8159  -6.8117  -6.7741  -6.7494  -6.7299  -6.7256  -6.7084  -6.6934
    -6.6852  -6.6743  -6.6503  -6.6428  -6.6306  -6.6045  -6.5893  -6.5892
    -6.5659  -6.5406  -6.5063  -6.4954  -6.4752  -6.4706  -6.4368  -6.4053
    -6.3978  -6.3789  -6.3450  -6.3417  -6.3367  -6.3026  -6.2840  -6.2723
    -6.2554  -6.2371  -6.1941  -6.1682  -6.1534  -6.1232  -6.1182  -6.0896
    -6.0551  -6.0312  -6.0270  -5.9929  -5.9889  -5.9879  -5.9768  -5.9394
    -5.9300  -5.9204  -5.8896  -5.8865  -5.8594  -5.8440  -5.8064  -5.7748
    -5.6851  -5.6526  -5.6279  -5.6266  -5.5830  -5.5179  -5.5002  -5.4731
    -5.4621  -5.4310  -5.3883  -5.3664  -5.3489  -5.3221  -5.2903  -5.2678
    -5.2511  -5.2362  -5.2131  -5.1993  -5.1767  -5.1742  -5.1517  -5.1410
    -5.1270  -5.1219  -5.0642  -5.0471  -5.0277  -5.0207  -5.0200  -5.0076
    -4.9911  -4.9806  -4.9529  -4.9478  -4.9297  -4.9139  -4.8757  -4.8672
    -4.8551  -4.8407  -4.8188  -4.7867  -4.7797  -4.7666  -4.7378  -4.7182
    -4.7069  -4.6937  -4.6851  -4.6784  -4.6774  -4.6261  -4.6102  -4.5546
    -4.5388  -4.5160  -4.4877  -4.4480  -4.4441  -4.4330  -4.4014  -4.3961
    -4.3734  -4.3701  -4.3555  -4.3481  -4.3471  -4.3232  -4.3169  -4.2881
    -4.2854  -4.2402  -4.2200  -4.2159  -4.1910  -4.1843  -4.1543  -4.1285
    -4.1056  -4.0839  -4.0804  -4.0514  -4.0136  -4.0100  -4.0027  -3.9850
    -3.9533  -3.9507  -3.9317  -3.9261  -3.9209  -3.9125  -3.8974  -3.8917
    -3.8840  -3.8823  -3.8810  -3.8527  -3.8395  -3.8368  -3.8285  -3.8283
    -3.8183  -3.8153  -3.7923  -3.7847  -3.7673  -3.7650  -3.7493  -3.7288
    -3.7212  -3.7019  -3.6945  -3.6850  -3.6359  -3.6269  -3.6162  -3.6003
    -3.5969  -3.5777  -3.5035  -3.4967  -3.4890  -3.4708  -3.4402  -3.4336
    -3.4183  -3.3954  -3.3515  -3.3488  -3.3400  -3.3242

          k = 0.0000-0.5774 0.0000 (****** PWs)   bands (ev):

   -76.1371 -76.1371 -76.0610 -76.0609 -76.0127 -76.0121 -75.9809 -75.9809
   -75.9322 -75.9302 -75.9302 -75.8510 -75.8508 -75.8506 -75.8502 -75.7727
   -75.7726 -75.7426 -47.4877 -47.4867 -47.4633 -47.4622 -47.4579 -47.4575
   -47.4086 -47.4085 -47.3882 -47.3881 -47.3824 -47.3823 -47.3521 -47.3514
   -47.3457 -47.3450 -47.3395 -47.3388 -47.3274 -47.3274 -47.3061 -47.3060
   -47.3015 -47.3015 -47.2704 -47.2698 -47.2698 -47.2641 -47.2633 -47.2633
   -47.2614 -47.2561 -47.2561 -47.1891 -47.1890 -47.1886 -47.1881 -47.1837
   -47.1836 -47.1817 -47.1814 -47.1797 -47.1794 -47.1765 -47.1764 -47.1105
   -47.1102 -47.1066 -47.1046 -47.0975 -47.0973 -47.0855 -47.0793 -47.0765
   -16.1921 -16.0982 -16.0246 -15.9975 -15.9268 -15.8637 -15.8452 -15.7599
   -15.6899 -15.5923 -15.5686 -15.5202 -15.5161 -15.4638 -15.4512 -15.3953
   -15.3755 -15.3604 -15.3511 -15.3238 -15.3125 -15.3099 -15.2931 -15.2756
   -15.2508 -15.2414 -15.2318 -15.2181 -15.2065 -15.1981 -15.1827 -15.1729
   -15.1609 -15.1522 -15.1426 -15.1277 -15.1239 -15.1084 -15.1034 -15.0870
   -15.0768 -15.0663 -15.0342 -15.0287 -15.0055 -14.9964 -14.9873 -14.9089
   -14.8801 -14.8791 -14.8172 -14.8168 -14.7422 -14.7136  -7.9305  -7.8810
    -7.8202  -7.7813  -7.7684  -7.7043  -7.6414  -7.5980  -7.5261  -7.3753
    -7.3409  -7.2846  -7.2737  -7.2606  -7.2145  -7.1992  -7.1364  -7.1306
    -6.9745  -6.9450  -6.9362  -6.9010  -6.8745  -6.8716  -6.8447  -6.8388
    -6.8241  -6.8119  -6.7844  -6.7678  -6.7369  -6.7304  -6.7263  -6.7067
    -6.6997  -6.6769  -6.6534  -6.6461  -6.6291  -6.5980  -6.5645  -6.5507
    -6.5271  -6.5147  -6.4901  -6.4891  -6.4621  -6.4451  -6.4279  -6.4148
    -6.4025  -6.3906  -6.3834  -6.3347  -6.3232  -6.2939  -6.2817  -6.2715
    -6.2502  -6.2244  -6.1908  -6.1855  -6.1594  -6.1161  -6.0863  -6.0766
    -6.0646  -6.0450  -6.0227  -6.0063  -5.9852  -5.9832  -5.9612  -5.9193
    -5.9093  -5.8980  -5.8638  -5.8460  -5.8256  -5.8023  -5.7786  -5.7196
    -5.6502  -5.6234  -5.6020  -5.5951  -5.5777  -5.5548  -5.5347  -5.5262
    -5.5085  -5.4938  -5.4711  -5.4484  -5.4388  -5.4103  -5.3895  -5.3665
    -5.3468  -5.3232  -5.3043  -5.2671  -5.2447  -5.2273  -5.2006  -5.1491
    -5.1357  -5.1185  -5.0936  -5.0745  -5.0519  -5.0250  -5.0064  -4.9727
    -4.9516  -4.9170  -4.9057  -4.8944  -4.8767  -4.8528  -4.8131  -4.8030
    -4.7833  -4.7671  -4.7457  -4.7341  -4.7083  -4.6913  -4.6873  -4.6744
    -4.6675  -4.6430  -4.6188  -4.6047  -4.5969  -4.5669  -4.5539  -4.5456
    -4.5344  -4.5242  -4.5087  -4.4907  -4.4701  -4.4483  -4.4422  -4.4348
    -4.4133  -4.4058  -4.3827  -4.3759  -4.3457  -4.3052  -4.2918  -4.2741
    -4.2610  -4.2526  -4.2263  -4.2060  -4.1937  -4.1785  -4.1731  -4.1675
    -4.1590  -4.1466  -4.1189  -4.1120  -4.0844  -4.0628  -4.0415  -4.0031
    -3.9798  -3.9686  -3.9498  -3.9308  -3.9225  -3.9085  -3.8937  -3.8838
    -3.8812  -3.8693  -3.8553  -3.8535  -3.8456  -3.8364  -3.8309  -3.8166
    -3.8108  -3.7899  -3.7855  -3.7783  -3.7687  -3.7512  -3.7258  -3.7116
    -3.6897  -3.6824  -3.6608  -3.6452  -3.6367  -3.6286  -3.6163  -3.6031
    -3.5988  -3.5803  -3.5701  -3.5318  -3.4752  -3.4653  -3.4245  -3.4225
    -3.4095  -3.3962  -3.3711  -3.3516  -3.3420  -3.3282

          k = 0.5000-0.2887 0.0000 (****** PWs)   bands (ev):

   -76.1371 -76.1371 -76.0610 -76.0609 -76.0127 -76.0121 -75.9809 -75.9809
   -75.9322 -75.9302 -75.9302 -75.8510 -75.8508 -75.8506 -75.8502 -75.7727
   -75.7726 -75.7426 -47.4877 -47.4867 -47.4633 -47.4622 -47.4579 -47.4575
   -47.4086 -47.4085 -47.3882 -47.3881 -47.3824 -47.3823 -47.3521 -47.3514
   -47.3457 -47.3450 -47.3395 -47.3388 -47.3274 -47.3274 -47.3061 -47.3060
   -47.3015 -47.3015 -47.2704 -47.2698 -47.2698 -47.2641 -47.2633 -47.2633
   -47.2614 -47.2561 -47.2561 -47.1891 -47.1890 -47.1886 -47.1881 -47.1837
   -47.1836 -47.1817 -47.1814 -47.1797 -47.1794 -47.1765 -47.1764 -47.1105
   -47.1102 -47.1066 -47.1046 -47.0975 -47.0973 -47.0855 -47.0793 -47.0765
   -16.1856 -16.1184 -16.0218 -15.9705 -15.9338 -15.8677 -15.8513 -15.7684
   -15.6570 -15.6291 -15.5552 -15.5249 -15.5192 -15.4710 -15.4493 -15.3971
   -15.3640 -15.3549 -15.3494 -15.3130 -15.3086 -15.3005 -15.2970 -15.2778
   -15.2512 -15.2483 -15.2292 -15.2211 -15.2178 -15.2046 -15.1959 -15.1649
   -15.1628 -15.1469 -15.1395 -15.1297 -15.1227 -15.1096 -15.1038 -15.0820
   -15.0753 -15.0708 -15.0321 -15.0301 -15.0033 -14.9990 -14.9851 -14.9075
   -14.8804 -14.8798 -14.8185 -14.8156 -14.7423 -14.7135  -7.9241  -7.8942
    -7.7963  -7.7912  -7.7453  -7.7089  -7.6970  -7.5591  -7.5437  -7.3754
    -7.3330  -7.2918  -7.2490  -7.2445  -7.2259  -7.2201  -7.1426  -7.1248
    -6.9719  -6.9442  -6.9401  -6.8981  -6.8811  -6.8738  -6.8524  -6.8366
    -6.8274  -6.8161  -6.8062  -6.7693  -6.7652  -6.7543  -6.7118  -6.7000
    -6.6713  -6.6686  -6.6238  -6.6212  -6.6035  -6.5899  -6.5639  -6.5232
    -6.5216  -6.5124  -6.5047  -6.5026  -6.4737  -6.4552  -6.4352  -6.4086
    -6.3932  -6.3777  -6.3735  -6.3609  -6.3120  -6.3087  -6.2893  -6.2819
    -6.2678  -6.2488  -6.1954  -6.1932  -6.1284  -6.1174  -6.0843  -6.0685
    -6.0459  -6.0376  -6.0230  -6.0036  -5.9962  -5.9700  -5.9481  -5.9168
    -5.9156  -5.8995  -5.8993  -5.8734  -5.8630  -5.8438  -5.7938  -5.6742
    -5.6491  -5.6132  -5.5792  -5.5579  -5.5506  -5.5289  -5.5274  -5.5104
    -5.5088  -5.4913  -5.4806  -5.4660  -5.4498  -5.4350  -5.3955  -5.3805
    -5.3653  -5.3480  -5.3325  -5.2657  -5.2293  -5.2027  -5.1831  -5.1583
    -5.1269  -5.0850  -5.0812  -5.0654  -5.0485  -5.0248  -5.0024  -4.9979
    -4.9451  -4.9389  -4.9145  -4.8758  -4.8746  -4.8391  -4.8124  -4.8006
    -4.7882  -4.7797  -4.7365  -4.7357  -4.7180  -4.7057  -4.6869  -4.6680
    -4.6637  -4.6308  -4.6293  -4.6045  -4.5957  -4.5816  -4.5681  -4.5631
    -4.5479  -4.5097  -4.4729  -4.4712  -4.4592  -4.4588  -4.4407  -4.4287
    -4.4228  -4.4066  -4.4052  -4.3897  -4.3623  -4.2930  -4.2852  -4.2744
    -4.2658  -4.2341  -4.2212  -4.2126  -4.1998  -4.1852  -4.1739  -4.1604
    -4.1499  -4.1353  -4.1282  -4.0959  -4.0807  -4.0783  -4.0253  -4.0103
    -3.9906  -3.9687  -3.9402  -3.9311  -3.9127  -3.9120  -3.9066  -3.8928
    -3.8823  -3.8795  -3.8672  -3.8603  -3.8486  -3.8347  -3.8251  -3.8222
    -3.8063  -3.7973  -3.7893  -3.7714  -3.7636  -3.7394  -3.7257  -3.7083
    -3.6913  -3.6893  -3.6664  -3.6509  -3.6300  -3.6245  -3.6223  -3.6114
    -3.5751  -3.5747  -3.5554  -3.5305  -3.4961  -3.4498  -3.4471  -3.4247
    -3.4216  -3.3856  -3.3598  -3.3572  -3.3332  -3.3259

          k =-0.5000-0.2887 0.0000 (****** PWs)   bands (ev):

   -76.1371 -76.1371 -76.0610 -76.0609 -76.0127 -76.0121 -75.9809 -75.9809
   -75.9322 -75.9302 -75.9302 -75.8510 -75.8508 -75.8506 -75.8502 -75.7727
   -75.7726 -75.7426 -47.4877 -47.4867 -47.4633 -47.4622 -47.4579 -47.4575
   -47.4086 -47.4085 -47.3882 -47.3881 -47.3824 -47.3823 -47.3521 -47.3514
   -47.3457 -47.3450 -47.3395 -47.3388 -47.3274 -47.3274 -47.3061 -47.3060
   -47.3015 -47.3015 -47.2704 -47.2698 -47.2698 -47.2641 -47.2633 -47.2633
   -47.2614 -47.2561 -47.2561 -47.1891 -47.1890 -47.1886 -47.1881 -47.1837
   -47.1836 -47.1817 -47.1814 -47.1797 -47.1794 -47.1765 -47.1764 -47.1105
   -47.1102 -47.1066 -47.1046 -47.0975 -47.0973 -47.0855 -47.0793 -47.0765
   -16.1921 -16.0985 -16.0240 -15.9973 -15.9275 -15.8641 -15.8448 -15.7593
   -15.6899 -15.5929 -15.5686 -15.5202 -15.5158 -15.4635 -15.4511 -15.3953
   -15.3762 -15.3605 -15.3509 -15.3232 -15.3122 -15.3099 -15.2934 -15.2757
   -15.2516 -15.2412 -15.2312 -15.2179 -15.2067 -15.1989 -15.1823 -15.1729
   -15.1620 -15.1488 -15.1427 -15.1276 -15.1270 -15.1076 -15.1051 -15.0840
   -15.0759 -15.0679 -15.0351 -15.0287 -15.0045 -14.9968 -14.9873 -14.9089
   -14.8801 -14.8791 -14.8171 -14.8168 -14.7422 -14.7136  -7.9304  -7.8832
    -7.8151  -7.7835  -7.7676  -7.7054  -7.6441  -7.5969  -7.5252  -7.3738
    -7.3407  -7.2856  -7.2743  -7.2602  -7.2145  -7.1996  -7.1366  -7.1301
    -6.9748  -6.9468  -6.9346  -6.8987  -6.8778  -6.8687  -6.8493  -6.8383
    -6.8232  -6.8091  -6.7853  -6.7672  -6.7365  -6.7298  -6.7268  -6.7068
    -6.6993  -6.6772  -6.6533  -6.6458  -6.6298  -6.5991  -6.5643  -6.5509
    -6.5316  -6.5135  -6.4937  -6.4859  -6.4591  -6.4440  -6.4269  -6.4168
    -6.4021  -6.3910  -6.3818  -6.3342  -6.3227  -6.2947  -6.2807  -6.2707
    -6.2517  -6.2246  -6.1904  -6.1868  -6.1585  -6.1121  -6.0858  -6.0818
    -6.0706  -6.0448  -6.0234  -6.0051  -5.9830  -5.9807  -5.9602  -5.9206
    -5.9091  -5.8986  -5.8636  -5.8453  -5.8261  -5.8014  -5.7777  -5.7208
    -5.6511  -5.6225  -5.5992  -5.5973  -5.5761  -5.5537  -5.5374  -5.5259
    -5.5087  -5.4949  -5.4710  -5.4487  -5.4381  -5.4106  -5.3903  -5.3662
    -5.3469  -5.3224  -5.3042  -5.2657  -5.2443  -5.2296  -5.2004  -5.1497
    -5.1335  -5.1181  -5.0939  -5.0751  -5.0525  -5.0264  -5.0061  -4.9728
    -4.9510  -4.9172  -4.9052  -4.8941  -4.8768  -4.8546  -4.8130  -4.8028
    -4.7846  -4.7662  -4.7454  -4.7342  -4.7091  -4.6923  -4.6869  -4.6730
    -4.6664  -4.6423  -4.6196  -4.6043  -4.5968  -4.5667  -4.5535  -4.5461
    -4.5340  -4.5241  -4.5078  -4.4910  -4.4704  -4.4470  -4.4422  -4.4355
    -4.4145  -4.4065  -4.3830  -4.3753  -4.3463  -4.3053  -4.2917  -4.2731
    -4.2613  -4.2524  -4.2267  -4.2060  -4.1937  -4.1779  -4.1732  -4.1678
    -4.1593  -4.1466  -4.1188  -4.1119  -4.0846  -4.0628  -4.0413  -4.0034
    -3.9799  -3.9683  -3.9499  -3.9312  -3.9221  -3.9082  -3.8943  -3.8834
    -3.8813  -3.8692  -3.8553  -3.8530  -3.8454  -3.8368  -3.8307  -3.8179
    -3.8109  -3.7898  -3.7854  -3.7776  -3.7684  -3.7515  -3.7263  -3.7121
    -3.6891  -3.6821  -3.6604  -3.6457  -3.6364  -3.6285  -3.6162  -3.6034
    -3.5989  -3.5797  -3.5704  -3.5323  -3.4762  -3.4646  -3.4243  -3.4214
    -3.4103  -3.3961  -3.3706  -3.3518  -3.3431  -3.3276

 ------ SPIN DOWN ----------


          k = 0.0000 0.0000 0.0000 (****** PWs)   bands (ev):

   -72.9791 -72.9790 -72.9724 -72.9717 -72.9069 -72.9067 -72.8942 -72.8930
   -72.8929 -72.8344 -72.8344 -72.8187 -72.8186 -72.8157 -72.8152 -72.7430
   -72.7429 -72.7376 -44.3883 -44.3870 -44.3782 -44.3774 -44.3622 -44.3605
   -44.3476 -44.3469 -44.3347 -44.3339 -44.3319 -44.3315 -44.3123 -44.3121
   -44.2994 -44.2983 -44.2983 -44.2841 -44.2839 -44.2693 -44.2693 -44.2674
   -44.2673 -44.2648 -44.2616 -44.2544 -44.2544 -44.2349 -44.2349 -44.2202
   -44.2197 -44.2189 -44.2189 -44.2124 -44.2123 -44.1956 -44.1955 -44.1931
   -44.1931 -44.1868 -44.1862 -44.1838 -44.1837 -44.1828 -44.1823 -44.1470
   -44.1430 -44.1425 -44.1182 -44.1162 -44.1125 -44.1091 -44.1085 -44.1077
   -16.2111 -16.0789 -16.0319 -16.0016 -15.9703 -15.9092 -15.8814 -15.7341
   -15.6898 -15.6624 -15.6379 -15.5369 -15.5156 -15.5032 -15.4612 -15.4504
   -15.4290 -15.4034 -15.3924 -15.3739 -15.3736 -15.3578 -15.3433 -15.3207
   -15.3183 -15.2950 -15.2873 -15.2856 -15.2521 -15.2383 -15.2273 -15.2204
   -15.2132 -15.2027 -15.1754 -15.1747 -15.1653 -15.1565 -15.1468 -15.1335
   -15.1282 -15.1132 -15.0903 -15.0746 -15.0637 -15.0443 -15.0353 -14.9692
   -14.9510 -14.9448 -14.8863 -14.8833 -14.8113 -14.7845  -7.6609  -7.6183
    -7.5744  -7.5332  -7.5269  -7.4861  -7.4410  -7.1620  -7.1321  -7.1283
    -7.1183  -7.0812  -7.0443  -7.0187  -6.9963  -6.9774  -6.9053  -6.9024
    -6.8569  -6.8469  -6.8102  -6.7789  -6.7581  -6.7259  -6.6736  -6.6436
    -6.6290  -6.6121  -6.6000  -6.5557  -6.5465  -6.5459  -6.5274  -6.5247
    -6.4728  -6.4665  -6.4508  -6.4245  -6.4164  -6.4060  -6.3775  -6.3511
    -6.3435  -6.2982  -6.2968  -6.2936  -6.2539  -6.1873  -6.1481  -6.1373
    -6.1308  -6.0572  -6.0453  -6.0249  -6.0020  -5.9939  -5.9466  -5.9378
    -5.9372  -5.9272  -5.8851  -5.8812  -5.8575  -5.8131  -5.7948  -5.6209
    -5.6053  -5.5932  -5.5787  -5.5705  -5.5572  -5.5494  -5.5320  -5.5060
    -5.5028  -5.4985  -5.4849  -5.4541  -5.4006  -5.3976  -5.3845  -5.3632
    -5.3099  -5.2778  -5.2265  -5.2122  -5.1871  -5.1476  -5.1082  -5.1056
    -5.0957  -5.0616  -5.0248  -5.0178  -4.9822  -4.9788  -4.9653  -4.9597
    -4.9455  -4.9231  -4.9089  -4.8777  -4.8604  -4.8483  -4.8192  -4.8186
    -4.8003  -4.7862  -4.7723  -4.7710  -4.7480  -4.7464  -4.7219  -4.7150
    -4.6933  -4.6769  -4.6763  -4.6325  -4.6310  -4.5725  -4.5616  -4.5539
    -4.5503  -4.5456  -4.4740  -4.4578  -4.4481  -4.4475  -4.4078  -4.3776
    -4.3658  -4.3481  -4.3222  -4.3158  -4.3023  -4.2894  -4.2560  -4.2460
    -4.2342  -4.2194  -4.2095  -4.1723  -4.1108  -4.0730  -4.0683  -4.0561
    -4.0549  -3.9983  -3.9967  -3.9813  -3.9802  -3.9676  -3.9191  -3.8956
    -3.8676  -3.8329  -3.8145  -3.7654  -3.7235  -3.6870  -3.6148  -3.5912
    -1.5505  -1.5448  -1.5193  -1.5088  -1.4994  -1.4815  -1.4657  -1.4577
    -1.4302  -1.4165  -1.4088  -1.4051  -1.3791  -1.3744  -1.3481  -1.3379
    -1.3286  -1.3219  -1.3191  -1.2926  -1.2854  -1.2689  -1.2556  -1.2537
    -1.2478  -1.2284  -1.2074  -1.2035  -1.1938  -1.1735  -1.1417  -1.1260
    -1.1218  -1.1107  -1.1087  -1.0944  -1.0783  -1.0775  -1.0641  -1.0565
    -1.0511  -1.0481  -1.0299  -1.0295  -1.0243  -1.0147  -1.0120  -1.0078
    -0.9902  -0.9844  -0.9730  -0.9663  -0.9522  -0.9298

          k = 0.0000-0.5774 0.0000 (****** PWs)   bands (ev):

   -72.9791 -72.9790 -72.9724 -72.9717 -72.9069 -72.9067 -72.8942 -72.8930
   -72.8929 -72.8344 -72.8344 -72.8187 -72.8186 -72.8157 -72.8152 -72.7430
   -72.7429 -72.7376 -44.3883 -44.3870 -44.3782 -44.3774 -44.3622 -44.3605
   -44.3476 -44.3469 -44.3347 -44.3339 -44.3319 -44.3315 -44.3123 -44.3121
   -44.2994 -44.2983 -44.2983 -44.2841 -44.2839 -44.2693 -44.2693 -44.2674
   -44.2673 -44.2648 -44.2616 -44.2544 -44.2544 -44.2349 -44.2349 -44.2202
   -44.2197 -44.2189 -44.2189 -44.2124 -44.2123 -44.1956 -44.1955 -44.1931
   -44.1931 -44.1868 -44.1862 -44.1838 -44.1837 -44.1828 -44.1823 -44.1470
   -44.1430 -44.1425 -44.1182 -44.1162 -44.1125 -44.1091 -44.1085 -44.1077
   -16.2001 -16.1091 -16.0388 -16.0108 -15.9420 -15.8785 -15.8640 -15.7817
   -15.7185 -15.6238 -15.6027 -15.5557 -15.5491 -15.5023 -15.4971 -15.4450
   -15.4196 -15.4046 -15.3991 -15.3654 -15.3584 -15.3567 -15.3414 -15.3235
   -15.2947 -15.2865 -15.2771 -15.2671 -15.2559 -15.2442 -15.2338 -15.2226
   -15.2100 -15.1987 -15.1952 -15.1761 -15.1726 -15.1532 -15.1502 -15.1356
   -15.1269 -15.1113 -15.0916 -15.0838 -15.0601 -15.0460 -15.0342 -14.9684
   -14.9503 -14.9438 -14.8847 -14.8843 -14.8113 -14.7844  -7.6522  -7.6138
    -7.5578  -7.5196  -7.5141  -7.4517  -7.3894  -7.3487  -7.2764  -7.1237
    -7.0927  -7.0395  -7.0263  -7.0177  -6.9716  -6.9645  -6.9038  -6.8959
    -6.8573  -6.8313  -6.8100  -6.7657  -6.7286  -6.7147  -6.6875  -6.6614
    -6.6530  -6.6347  -6.6179  -6.5956  -6.5592  -6.5507  -6.5230  -6.4924
    -6.4915  -6.4673  -6.4574  -6.4303  -6.4242  -6.3868  -6.3355  -6.3228
    -6.3118  -6.2695  -6.2501  -6.2302  -6.1960  -6.1945  -6.1668  -6.1515
    -6.1315  -6.1111  -6.0958  -6.0819  -6.0449  -6.0276  -5.9755  -5.9620
    -5.9429  -5.8977  -5.8555  -5.8039  -5.8011  -5.6628  -5.6579  -5.6346
    -5.6257  -5.6057  -5.5821  -5.5726  -5.5513  -5.5345  -5.5204  -5.5100
    -5.4815  -5.4672  -5.4515  -5.4242  -5.4172  -5.3761  -5.3523  -5.3220
    -5.3000  -5.2844  -5.2453  -5.2390  -5.2262  -5.2144  -5.1897  -5.1682
    -5.1546  -5.1274  -5.1191  -5.0969  -5.0818  -5.0788  -5.0595  -5.0317
    -5.0075  -4.9544  -4.9366  -4.9323  -4.9226  -4.8898  -4.8750  -4.8600
    -4.8422  -4.8244  -4.8147  -4.7922  -4.7031  -4.6879  -4.6723  -4.6718
    -4.6429  -4.6243  -4.5893  -4.5752  -4.5627  -4.5412  -4.4960  -4.4937
    -4.4851  -4.4690  -4.4455  -4.4437  -4.4245  -4.4096  -4.3942  -4.3442
    -4.3241  -4.3059  -4.2967  -4.2831  -4.2651  -4.2500  -4.2346  -4.2133
    -4.1746  -4.1588  -4.1524  -4.1258  -4.1061  -4.0882  -4.0828  -4.0607
    -4.0586  -4.0331  -4.0077  -3.9837  -3.9604  -3.9526  -3.9474  -3.9090
    -3.9024  -3.8665  -3.8336  -3.8103  -3.7740  -3.7673  -3.7053  -3.6396
    -1.5589  -1.5526  -1.5358  -1.5207  -1.5001  -1.4875  -1.4711  -1.4552
    -1.4437  -1.4229  -1.4056  -1.4002  -1.3792  -1.3638  -1.3565  -1.3374
    -1.3187  -1.3069  -1.2855  -1.2822  -1.2709  -1.2595  -1.2518  -1.2389
    -1.2226  -1.2038  -1.1963  -1.1864  -1.1732  -1.1646  -1.1595  -1.1410
    -1.1364  -1.1330  -1.1230  -1.1097  -1.0990  -1.0869  -1.0790  -1.0729
    -1.0628  -1.0500  -1.0404  -1.0345  -1.0275  -1.0222  -1.0099  -1.0029
    -0.9979  -0.9824  -0.9753  -0.9600  -0.9399  -0.9273

          k = 0.5000-0.2887 0.0000 (****** PWs)   bands (ev):

   -72.9791 -72.9790 -72.9724 -72.9717 -72.9069 -72.9067 -72.8942 -72.8930
   -72.8929 -72.8344 -72.8344 -72.8187 -72.8186 -72.8157 -72.8152 -72.7430
   -72.7429 -72.7376 -44.3883 -44.3870 -44.3782 -44.3774 -44.3622 -44.3605
   -44.3476 -44.3469 -44.3347 -44.3339 -44.3319 -44.3315 -44.3123 -44.3121
   -44.2994 -44.2983 -44.2983 -44.2841 -44.2839 -44.2693 -44.2693 -44.2674
   -44.2673 -44.2648 -44.2616 -44.2544 -44.2544 -44.2349 -44.2349 -44.2202
   -44.2197 -44.2189 -44.2189 -44.2124 -44.2123 -44.1956 -44.1955 -44.1931
   -44.1931 -44.1868 -44.1862 -44.1838 -44.1837 -44.1828 -44.1823 -44.1470
   -44.1430 -44.1425 -44.1182 -44.1162 -44.1125 -44.1091 -44.1085 -44.1077
   -16.1938 -16.1288 -16.0356 -15.9849 -15.9488 -15.8853 -15.8652 -15.7916
   -15.6906 -15.6592 -15.5857 -15.5608 -15.5503 -15.5057 -15.4982 -15.4466
   -15.4121 -15.3984 -15.3978 -15.3569 -15.3535 -15.3466 -15.3436 -15.3249
   -15.2978 -15.2941 -15.2748 -15.2685 -15.2679 -15.2512 -15.2461 -15.2158
   -15.2143 -15.1923 -15.1861 -15.1764 -15.1741 -15.1556 -15.1517 -15.1283
   -15.1234 -15.1184 -15.0890 -15.0854 -15.0600 -15.0475 -15.0318 -14.9676
   -14.9510 -14.9437 -14.8864 -14.8828 -14.8114 -14.7843  -7.6477  -7.6218
    -7.5392  -7.5338  -7.4844  -7.4569  -7.4438  -7.3112  -7.2943  -7.1239
    -7.0835  -7.0468  -7.0067  -7.0049  -6.9820  -6.9723  -6.9072  -6.8926
    -6.8477  -6.8341  -6.8207  -6.7550  -6.7261  -6.7105  -6.7055  -6.6851
    -6.6571  -6.6462  -6.6343  -6.5764  -6.5747  -6.5672  -6.5357  -6.4956
    -6.4616  -6.4446  -6.4193  -6.4089  -6.3878  -6.3693  -6.3554  -6.3254
    -6.2986  -6.2933  -6.2748  -6.2312  -6.2259  -6.1922  -6.1593  -6.1500
    -6.1419  -6.1171  -6.0836  -6.0585  -5.9958  -5.9911  -5.9873  -5.9738
    -5.9507  -5.9329  -5.9213  -5.8136  -5.7692  -5.6957  -5.6717  -5.6560
    -5.6308  -5.5911  -5.5631  -5.5621  -5.5601  -5.5343  -5.5036  -5.4891
    -5.4856  -5.4720  -5.4657  -5.4375  -5.4097  -5.4061  -5.3687  -5.2994
    -5.2900  -5.2643  -5.2489  -5.2232  -5.2197  -5.2074  -5.1842  -5.1771
    -5.1563  -5.1420  -5.1294  -5.0995  -5.0736  -5.0725  -5.0349  -5.0236
    -5.0073  -4.9672  -4.9568  -4.9365  -4.9164  -4.9104  -4.8591  -4.8466
    -4.8359  -4.8193  -4.8189  -4.7026  -4.7017  -4.6958  -4.6768  -4.6602
    -4.6520  -4.6373  -4.6214  -4.6070  -4.5630  -4.5377  -4.5185  -4.5171
    -4.4981  -4.4538  -4.4308  -4.4256  -4.4039  -4.3908  -4.3739  -4.3469
    -4.3331  -4.3190  -4.2883  -4.2838  -4.2719  -4.2414  -4.2387  -4.2342
    -4.2114  -4.1883  -4.1568  -4.1190  -4.0961  -4.0831  -4.0731  -4.0447
    -4.0359  -4.0343  -4.0234  -3.9892  -3.9605  -3.9533  -3.9477  -3.9258
    -3.9077  -3.8397  -3.8393  -3.8285  -3.8163  -3.6938  -3.6883  -3.6633
    -1.5673  -1.5599  -1.5331  -1.5156  -1.4995  -1.4976  -1.4710  -1.4519
    -1.4386  -1.4214  -1.3998  -1.3985  -1.3862  -1.3641  -1.3543  -1.3371
    -1.3098  -1.2973  -1.2877  -1.2743  -1.2650  -1.2480  -1.2464  -1.2372
    -1.2311  -1.2133  -1.1994  -1.1934  -1.1763  -1.1711  -1.1606  -1.1495
    -1.1375  -1.1185  -1.1140  -1.1090  -1.1011  -1.0899  -1.0874  -1.0843
    -1.0789  -1.0527  -1.0399  -1.0290  -1.0249  -1.0232  -1.0188  -1.0053
    -0.9973  -0.9772  -0.9700  -0.9658  -0.9370  -0.9193

          k =-0.5000-0.2887 0.0000 (****** PWs)   bands (ev):

   -72.9791 -72.9790 -72.9724 -72.9717 -72.9069 -72.9067 -72.8942 -72.8930
   -72.8929 -72.8344 -72.8344 -72.8187 -72.8186 -72.8157 -72.8152 -72.7430
   -72.7429 -72.7376 -44.3883 -44.3870 -44.3782 -44.3774 -44.3622 -44.3605
   -44.3476 -44.3469 -44.3347 -44.3339 -44.3319 -44.3315 -44.3123 -44.3121
   -44.2994 -44.2983 -44.2983 -44.2841 -44.2839 -44.2693 -44.2693 -44.2674
   -44.2673 -44.2648 -44.2616 -44.2544 -44.2544 -44.2349 -44.2349 -44.2202
   -44.2197 -44.2189 -44.2189 -44.2124 -44.2123 -44.1956 -44.1955 -44.1931
   -44.1931 -44.1868 -44.1862 -44.1838 -44.1837 -44.1828 -44.1823 -44.1470
   -44.1430 -44.1425 -44.1182 -44.1162 -44.1125 -44.1091 -44.1085 -44.1077
   -16.2000 -16.1095 -16.0381 -16.0105 -15.9427 -15.8791 -15.8634 -15.7811
   -15.7185 -15.6244 -15.6028 -15.5554 -15.5489 -15.5023 -15.4974 -15.4449
   -15.4204 -15.4045 -15.3987 -15.3652 -15.3579 -15.3569 -15.3417 -15.3233
   -15.2956 -15.2865 -15.2767 -15.2669 -15.2561 -15.2447 -15.2335 -15.2226
   -15.2106 -15.1967 -15.1950 -15.1778 -15.1728 -15.1530 -15.1516 -15.1338
   -15.1261 -15.1118 -15.0921 -15.0841 -15.0597 -15.0460 -15.0342 -14.9684
   -14.9504 -14.9438 -14.8847 -14.8843 -14.8113 -14.7844  -7.6523  -7.6151
    -7.5542  -7.5211  -7.5133  -7.4528  -7.3911  -7.3480  -7.2757  -7.1224
    -7.0924  -7.0407  -7.0271  -7.0174  -6.9705  -6.9655  -6.9041  -6.8954
    -6.8573  -6.8311  -6.8104  -6.7643  -6.7307  -6.7167  -6.6855  -6.6628
    -6.6532  -6.6313  -6.6190  -6.5947  -6.5589  -6.5512  -6.5227  -6.4937
    -6.4892  -6.4656  -6.4577  -6.4314  -6.4268  -6.3872  -6.3351  -6.3217
    -6.3136  -6.2698  -6.2516  -6.2277  -6.1960  -6.1945  -6.1668  -6.1516
    -6.1305  -6.1106  -6.0960  -6.0804  -6.0446  -6.0301  -5.9762  -5.9621
    -5.9420  -5.8973  -5.8549  -5.8037  -5.8014  -5.6647  -5.6565  -5.6338
    -5.6248  -5.6108  -5.5858  -5.5727  -5.5503  -5.5338  -5.5171  -5.5063
    -5.4803  -5.4679  -5.4543  -5.4242  -5.4163  -5.3761  -5.3517  -5.3222
    -5.2997  -5.2861  -5.2465  -5.2392  -5.2235  -5.2147  -5.1890  -5.1690
    -5.1533  -5.1273  -5.1200  -5.0972  -5.0821  -5.0793  -5.0598  -5.0312
    -5.0065  -4.9548  -4.9369  -4.9330  -4.9223  -4.8898  -4.8749  -4.8595
    -4.8420  -4.8255  -4.8156  -4.7923  -4.7028  -4.6871  -4.6724  -4.6709
    -4.6428  -4.6244  -4.5889  -4.5747  -4.5629  -4.5413  -4.4968  -4.4942
    -4.4857  -4.4685  -4.4457  -4.4435  -4.4250  -4.4096  -4.3950  -4.3437
    -4.3237  -4.3057  -4.2965  -4.2837  -4.2648  -4.2497  -4.2345  -4.2130
    -4.1743  -4.1587  -4.1527  -4.1259  -4.1058  -4.0883  -4.0831  -4.0606
    -4.0586  -4.0330  -4.0075  -3.9838  -3.9604  -3.9526  -3.9476  -3.9091
    -3.9019  -3.8664  -3.8339  -3.8102  -3.7741  -3.7677  -3.7049  -3.6396
    -1.5587  -1.5547  -1.5311  -1.5271  -1.5007  -1.4792  -1.4701  -1.4551
    -1.4437  -1.4233  -1.4123  -1.3981  -1.3778  -1.3688  -1.3562  -1.3350
    -1.3204  -1.3093  -1.2858  -1.2798  -1.2711  -1.2523  -1.2520  -1.2417
    -1.2230  -1.2074  -1.1955  -1.1874  -1.1720  -1.1623  -1.1583  -1.1384
    -1.1377  -1.1316  -1.1234  -1.1116  -1.1014  -1.0854  -1.0784  -1.0724
    -1.0655  -1.0490  -1.0406  -1.0360  -1.0273  -1.0213  -1.0100  -1.0042
    -0.9975  -0.9824  -0.9756  -0.9593  -0.9394  -0.9274

     highest occupied, lowest unoccupied level (ev):    -3.3242   -1.5673

!    total energy              =  -24931.26166582 Ry
     total all-electron energy =    -24931.261666 Ry
     estimated scf accuracy    <          4.6E-11 Ry

     The total energy is the sum of the following terms:
     one-electron contribution =  -25177.48831154 Ry
     hartree contribution      =   12523.98445148 Ry
     xc contribution           =    -743.78339816 Ry
     ewald contribution        =    8913.20911809 Ry
     Hubbard energy            =      -0.08336807 Ry
     one-center paw contrib.   =  -20447.10015762 Ry

     total magnetization       =    54.00 Bohr mag/cell
     absolute magnetization    =    65.36 Bohr mag/cell

     convergence has been achieved in  15 iterations

     negative rho (up, down):  1.305E-01 1.474E-01

     Forces acting on atoms (cartesian axes, Ry/au):

     atom    1 type  1   force =    -0.00113046   -0.00198517    0.00012077
     atom    2 type  3   force =    -0.00246200   -0.00778557    0.00226585
     atom    3 type  3   force =    -0.00551075   -0.00602067    0.00226511
     atom    4 type  2   force =     0.00487134   -0.02270261   -0.00065675
     atom    5 type  2   force =    -0.00320524   -0.00555909   -0.00949226
     atom    6 type  2   force =    -0.02210275   -0.00713513   -0.00065826
     atom    7 type  2   force =     0.00731147   -0.02442378   -0.00194477
     atom    8 type  2   force =     0.00247466    0.00427766    0.00889182
     atom    9 type  2   force =    -0.02481066   -0.00588354   -0.00194311
     atom   10 type  3   force =    -0.00177586   -0.00209252    0.00022735
     atom   11 type  3   force =    -0.00562332   -0.00546419    0.00214621
     atom   12 type  2   force =     0.00494996    0.00062464   -0.00971074
     atom   13 type  2   force =    -0.00289937   -0.00482969   -0.00926318
     atom   14 type  2   force =    -0.02182063   -0.00648075   -0.00078157
     atom   15 type  2   force =    -0.00561030    0.00087519    0.00924598
     atom   16 type  2   force =     0.00235862    0.00469236    0.00945646
     atom   17 type  2   force =    -0.02497159   -0.00541902   -0.00195816
     atom   18 type  3   force =    -0.00134617   -0.00139060   -0.00052516
     atom   19 type  3   force =    -0.01444279    0.02876580    0.00308864
     atom   20 type  2   force =     0.00466533    0.00073166   -0.00975789
     atom   21 type  2   force =    -0.00418138    0.00236443   -0.00760061
     atom   22 type  2   force =    -0.01977011   -0.00451505    0.00137741
     atom   23 type  2   force =    -0.00560556    0.00077199    0.00953151
     atom   24 type  2   force =    -0.00279641    0.01174667    0.00748466
     atom   25 type  2   force =    -0.02316235    0.00011981   -0.00335665
     atom   26 type  3   force =    -0.00191843   -0.00760769    0.00214442
     atom   27 type  3   force =    -0.00092856   -0.00257354    0.00022780
     atom   28 type  2   force =     0.00529750   -0.02213163   -0.00078046
     atom   29 type  2   force =    -0.00272391   -0.00492891   -0.00927113
     atom   30 type  2   force =    -0.00192293    0.00462755   -0.00970353
     atom   31 type  2   force =     0.00779471   -0.02433238   -0.00196075
     atom   32 type  2   force =     0.00287512    0.00441928    0.00945209
     atom   33 type  2   force =     0.00355565   -0.00442347    0.00925416
     atom   34 type  3   force =    -0.00112872   -0.00196611    0.00012221
     atom   35 type  2   force =     0.00464200    0.00293296   -0.00854858
     atom   36 type  2   force =    -0.00057008   -0.00449292   -0.00787650
     atom   37 type  2   force =    -0.00172531    0.00532749   -0.00987248
     atom   38 type  2   force =    -0.00429509    0.00273182    0.00796900
     atom   39 type  2   force =     0.00388965    0.00324392    0.00867697
     atom   40 type  2   force =     0.00344065   -0.00396072    0.00928156
     atom   41 type  3   force =    -0.00068117   -0.00120803   -0.00063758
     atom   42 type  3   force =    -0.00990689    0.03240210    0.00109807
     atom   43 type  2   force =     0.00519326    0.00120414   -0.00989897
     atom   44 type  2   force =    -0.00376827    0.00280845   -0.00757524
     atom   45 type  2   force =    -0.00022012    0.00755316   -0.00794223
     atom   46 type  2   force =    -0.00513443    0.00082056    0.00957442
     atom   47 type  2   force =    -0.00238138    0.01193044    0.00802080
     atom   48 type  2   force =     0.00497974    0.00145641    0.00795445
     atom   49 type  3   force =     0.03213170    0.00187487    0.00308805
     atom   50 type  3   force =    -0.00052639   -0.00186033   -0.00052434
     atom   51 type  2   force =     0.00597359   -0.01937511    0.00137896
     atom   52 type  2   force =     0.00414371   -0.00244354   -0.00760137
     atom   53 type  2   force =    -0.00170860    0.00440414   -0.00976048
     atom   54 type  2   force =     0.01168490   -0.01999475   -0.00335706
     atom   55 type  2   force =     0.01157630    0.00344866    0.00748466
     atom   56 type  2   force =     0.00346545   -0.00447265    0.00953207
     atom   57 type  3   force =     0.03301556    0.00762417    0.00109846
     atom   58 type  3   force =    -0.00073560   -0.00120469   -0.00064098
     atom   59 type  2   force =     0.00665243    0.00359106   -0.00794306
     atom   60 type  2   force =     0.00428415   -0.00186638   -0.00757293
     atom   61 type  2   force =    -0.00260873    0.00350065   -0.00859116
     atom   62 type  2   force =    -0.00123216    0.00504603    0.00795732
     atom   63 type  2   force =     0.01153253    0.00389779    0.00803030
     atom   64 type  2   force =     0.00134415   -0.00418925    0.00825340
     atom   65 type  3   force =     0.03346315    0.00837521    0.00038687
     atom   66 type  3   force =    -0.00947604    0.03316916    0.00038838
     atom   67 type  2   force =     0.00635927    0.00365647   -0.00800203
     atom   68 type  2   force =     0.00304450    0.00526669   -0.00613029
     atom   69 type  2   force =    -0.00002300    0.00732934   -0.00799385
     atom   70 type  2   force =    -0.00133437    0.00475177    0.00826093
     atom   71 type  2   force =     0.00641369    0.01110628    0.00583115
     atom   72 type  2   force =     0.00479309    0.00124868    0.00826584

     Total force =     0.136786     Total SCF correction =     0.000010


     Computing stress (Cartesian axis) and pressure


     negative rho (up, down):  1.305E-01 1.474E-01
          total   stress  (Ry/bohr**3)                   (kbar)     P=        1.79
   0.00001204  -0.00000122   0.00000070            1.77       -0.18        0.10
  -0.00000122   0.00001064   0.00000121           -0.18        1.56        0.18
   0.00000070   0.00000121   0.00001386            0.10        0.18        2.04


     Writing all to output data dir ./Cr_-0.2_0/Cr_0_0.save/ :
     XML data file, charge density, pseudopotentials, collected wavefunctions

     init_run     :    169.33s CPU     99.12s WALL (       1 calls)
     electrons    :   4001.93s CPU   2163.67s WALL (       1 calls)
     forces       :    142.89s CPU     75.26s WALL (       1 calls)
     stress       :    851.11s CPU    449.59s WALL (       1 calls)

     Called by init_run:
     wfcinit      :    150.48s CPU     79.39s WALL (       1 calls)
     potinit      :      3.79s CPU      4.10s WALL (       1 calls)
     hinit0       :      2.57s CPU      2.69s WALL (       1 calls)

     Called by electrons:
     c_bands      :   3455.27s CPU   1838.26s WALL (      16 calls)
     sum_band     :    483.94s CPU    271.30s WALL (      16 calls)
     v_of_rho     :     20.80s CPU     17.10s WALL (      16 calls)
     newd         :     29.38s CPU     28.65s WALL (      16 calls)
     PAW_pot      :     10.54s CPU      7.45s WALL (      16 calls)
     mix_rho      :      3.17s CPU      2.51s WALL (      16 calls)

     Called by c_bands:
     init_us_2    :     27.72s CPU     14.26s WALL (     304 calls)
     init_us_2:cp :     27.72s CPU     14.25s WALL (     304 calls)
     cegterg      :   3421.99s CPU   1818.03s WALL (     128 calls)

     Called by *egterg:
     cdiaghg      :    373.31s CPU    214.11s WALL (     744 calls)
     h_psi        :   2031.27s CPU   1048.52s WALL (     760 calls)
     s_psi        :    243.02s CPU    122.82s WALL (     784 calls)
     g_psi        :      7.21s CPU      3.68s WALL (     624 calls)

     Called by h_psi:
     h_psi:calbec :    258.55s CPU    134.28s WALL (     760 calls)
     vloc_psi     :   1511.82s CPU    773.06s WALL (     760 calls)
     add_vuspsi   :    222.79s CPU    112.74s WALL (     760 calls)
     vhpsi        :     32.11s CPU     17.63s WALL (     760 calls)

     General routines
     calbec       :    797.79s CPU    419.88s WALL (   29576 calls)
     fft          :     21.52s CPU     20.75s WALL (     440 calls)
     ffts         :      2.32s CPU      1.90s WALL (      64 calls)
     fftw         :   1317.86s CPU    675.03s WALL (  303072 calls)
     interpolate  :      2.92s CPU      2.54s WALL (      32 calls)

     Parallel routines

     Hubbard U routines
     new_ns       :      7.23s CPU      5.18s WALL (      16 calls)
     vhpsi        :     32.11s CPU     17.63s WALL (     760 calls)
     force_hub    :    110.59s CPU     56.99s WALL (       1 calls)
                                        0.00s GPU  (       1 calls)
     stres_hub    :    313.53s CPU    163.75s WALL (       1 calls)
                                        0.00s GPU  (       1 calls)

     PWSCF        :      1h26m CPU  47m10.50s WALL


   This run was terminated on:  22:26: 4   4Sep2025            

=------------------------------------------------------------------------------=
   JOB DONE.
=------------------------------------------------------------------------------=
[1757021164.442367] [node082:2243149:0]          mpool.c:43   UCX  WARN  object 0x5c9d340 was not returned to mpool ucp_requests
[1757021164.442384] [node082:2243149:0]          mpool.c:43   UCX  WARN  object 0x5ca0600 was not returned to mpool ucp_requests
[1757021164.442386] [node082:2243149:0]          mpool.c:43   UCX  WARN  object 0x5ca4500 was not returned to mpool ucp_requests
[1757021164.442388] [node082:2243149:0]          mpool.c:43   UCX  WARN  object 0x5c8a0c0 was not returned to mpool ucp_requests
[1757021164.442389] [node082:2243149:0]          mpool.c:43   UCX  WARN  object 0x5c8fd80 was not returned to mpool ucp_requests
[1757021164.442390] [node082:2243149:0]          mpool.c:43   UCX  WARN  object 0x5c93200 was not returned to mpool ucp_requests
[1757021164.442391] [node082:2243149:0]          mpool.c:43   UCX  WARN  object 0x5c94c40 was not returned to mpool ucp_requests
[1757021164.442393] [node082:2243149:0]          mpool.c:43   UCX  WARN  object 0x5c95500 was not returned to mpool ucp_requests
[1757021164.442394] [node082:2243149:0]          mpool.c:43   UCX  WARN  object 0x5c964c0 was not returned to mpool ucp_requests
[1757021164.442395] [node082:2243149:0]          mpool.c:43   UCX  WARN  object 0x3002740 was not returned to mpool ucp_requests
[1757021164.442396] [node082:2243149:0]          mpool.c:43   UCX  WARN  object 0x300b880 was not returned to mpool ucp_requests
[1757021164.456061] [node082:2243133:0]          mpool.c:43   UCX  WARN  object 0x66e58c0 was not returned to mpool ucp_requests
[1757021164.456078] [node082:2243133:0]          mpool.c:43   UCX  WARN  object 0x66e6500 was not returned to mpool ucp_requests
[1757021164.456080] [node082:2243133:0]          mpool.c:43   UCX  WARN  object 0x66e8b80 was not returned to mpool ucp_requests
[1757021164.456081] [node082:2243133:0]          mpool.c:43   UCX  WARN  object 0x66eab00 was not returned to mpool ucp_requests
[1757021164.456082] [node082:2243133:0]          mpool.c:43   UCX  WARN  object 0x66eb040 was not returned to mpool ucp_requests
[1757021164.456084] [node082:2243133:0]          mpool.c:43   UCX  WARN  object 0x66d0140 was not returned to mpool ucp_requests
[1757021164.456085] [node082:2243133:0]          mpool.c:43   UCX  WARN  object 0x66d2ec0 was not returned to mpool ucp_requests
[1757021164.456086] [node082:2243133:0]          mpool.c:43   UCX  WARN  object 0x66d5540 was not returned to mpool ucp_requests
[1757021164.456087] [node082:2243133:0]          mpool.c:43   UCX  WARN  object 0x66dab00 was not returned to mpool ucp_requests
[1757021164.456088] [node082:2243133:0]          mpool.c:43   UCX  WARN  object 0x66dc540 was not returned to mpool ucp_requests
[1757021164.456090] [node082:2243133:0]          mpool.c:43   UCX  WARN  object 0x3a50ec0 was not returned to mpool ucp_requests
[1757021164.456091] [node082:2243133:0]          mpool.c:43   UCX  WARN  object 0x3a56480 was not returned to mpool ucp_requests
[1757021164.456092] [node082:2243133:0]          mpool.c:43   UCX  WARN  object 0x3a56f00 was not returned to mpool ucp_requests
[1757021164.456093] [node082:2243133:0]          mpool.c:43   UCX  WARN  object 0x3a59200 was not returned to mpool ucp_requests
[1757021164.456094] [node082:2243133:0]          mpool.c:43   UCX  WARN  object 0x3a59580 was not returned to mpool ucp_requests
[1757021164.434166] [node082:2243145:0]          mpool.c:43   UCX  WARN  object 0x72fb380 was not returned to mpool ucp_requests
[1757021164.434185] [node082:2243145:0]          mpool.c:43   UCX  WARN  object 0x72fc180 was not returned to mpool ucp_requests
[1757021164.434187] [node082:2243145:0]          mpool.c:43   UCX  WARN  object 0x7302700 was not returned to mpool ucp_requests
[1757021164.434188] [node082:2243145:0]          mpool.c:43   UCX  WARN  object 0x72f0d00 was not returned to mpool ucp_requests
[1757021164.434190] [node082:2243145:0]          mpool.c:43   UCX  WARN  object 0x4652480 was not returned to mpool ucp_requests
[1757021164.434191] [node082:2243145:0]          mpool.c:43   UCX  WARN  object 0x465d540 was not returned to mpool ucp_requests
[1757021164.434192] [node082:2243145:0]          mpool.c:43   UCX  WARN  object 0x465d8c0 was not returned to mpool ucp_requests
