
     Program PWSCF v.7.3 starts on  4Sep2025 at 16:45:44 

     This program is part of the open-source Quantum ESPRESSO suite
     for quantum simulation of materials; please cite
         "P. Giannozzi et al., J. Phys.:Condens. Matter 21 395502 (2009);
         "P. Giannozzi et al., J. Phys.:Condens. Matter 29 465901 (2017);
         "P. Giannozzi et al., J. Chem. Phys. 152 154105 (2020);
          URL http://www.quantum-espresso.org", 
     in publications or presentations arising from this work. More details at
     http://www.quantum-espresso.org/quote

     Parallel version (MPI & OpenMP), running on     256 processor cores
     Number of MPI processes:               128
     Threads/MPI process:                     2

     MPI processes distributed on     2 nodes
     436988 MiB available memory on the printing compute node when the environment starts

open_input_file: fatal error opening Cr_0.20_0.in

 %%%%%%%%%%%%%%%%%%%%%%%%%%%%%%%%%%%%%%%%%%%%%%%%%%%%%%%%%%%%%%%%%%%%%%%%%%%%%%
     Error in routine read_input (1):
     opening input file
 %%%%%%%%%%%%%%%%%%%%%%%%%%%%%%%%%%%%%%%%%%%%%%%%%%%%%%%%%%%%%%%%%%%%%%%%%%%%%%

     stopping ...

     Program PWSCF v.7.3 starts on  4Sep2025 at 21:43:55 

     This program is part of the open-source Quantum ESPRESSO suite
     for quantum simulation of materials; please cite
         "P. Giannozzi et al., J. Phys.:Condens. Matter 21 395502 (2009);
         "P. Giannozzi et al., J. Phys.:Condens. Matter 29 465901 (2017);
         "P. Giannozzi et al., J. Chem. Phys. 152 154105 (2020);
          URL http://www.quantum-espresso.org", 
     in publications or presentations arising from this work. More details at
     http://www.quantum-espresso.org/quote

     Parallel version (MPI & OpenMP), running on     256 processor cores
     Number of MPI processes:               128
     Threads/MPI process:                     2

     MPI processes distributed on     2 nodes
     438020 MiB available memory on the printing compute node when the environment starts

     Reading input from Cr_0.2_0.in
Warning: card &CELL ignored
Warning: card / ignored
Warning: card &FCP ignored
Warning: card / ignored
Warning: card &RISM ignored
Warning: card / ignored

     Current dimensions of program PWSCF are:
     Max number of different atomic species (ntypx) = 10
     Max number of k-points (npk) =  40000
     Max angular momentum in pseudopotentials (lmaxx) =  4
read_pp_mesh; mismatch in mesh size, discarding the one in header
read_pp_mesh; mismatch in mesh size, discarding the one in header
read_pp_mesh; mismatch in mesh size, discarding the one in header
     file Cr.GGA-PBE-paw.UPF: wavefunction(s)  3S 4S 3P 4P 3D 4D renormalized
     file I.GGA-PBE-paw.UPF: wavefunction(s)  6S 6P renormalized
     file Cr.GGA-PBE-paw.UPF: wavefunction(s)  3S 4S 3P 4P 3D 4D renormalized

     IMPORTANT: XC functional enforced from input :
     Exchange-correlation= PBE
                           (   1   4   3   4   0   0   0)
     Any further DFT definition will be discarded
     Please, verify this is what you really want


     R & G space division:  proc/nbgrp/npool/nimage =     128
     Subspace diagonalization in iterative solution of the eigenvalue problem:
     one sub-group per band group will be used
     ELPA distributed-memory algorithm (size of sub-group:  3*  3 procs)


     Parallelization info
     --------------------
     sticks:   dense  smooth     PW     G-vecs:    dense   smooth      PW
     Min         509     305     78               140391    65241    8388
     Max         510     306     79               140404    65254    8400
     Sum       65263   39121   9985             17971031  8351671 1074593

     Using Slab Decomposition



     bravais-lattice index     =            0
     lattice parameter (alat)  =      39.7293  a.u.
     unit-cell volume          =   72410.5124 (a.u.)^3
     number of atoms/cell      =           72
     number of atomic types    =            3
     number of electrons       =       630.00 (up: 342.00, down: 288.00)
     number of Kohn-Sham states=          342
     kinetic-energy cutoff     =      90.0000  Ry
     charge density cutoff     =     600.0000  Ry
     scf convergence threshold =      1.0E-10
     mixing beta               =       0.3000
     number of iterations used =            8  plain     mixing
     Exchange-correlation= PBE
                           (   1   4   3   4   0   0   0)
     Hubbard projectors: atomic
     Hubbard parameters of DFT+U (Dudarev formulation) in eV:
     U(Cr1-3d) =  0.0000
     J0(Cr1-3d) =  0.0000
     alpha(Cr1-3d) =  0.2000

     Internal variables: lda_plus_u =T, lda_plus_u_kind = 0

     celldm(1)=  39.729285  celldm(2)=   0.000000  celldm(3)=   0.000000
     celldm(4)=   0.000000  celldm(5)=   0.000000  celldm(6)=   0.000000

     crystal axes: (cart. coord. in units of alat)
               a(1) = (   1.000000   0.000000   0.000000 )  
               a(2) = (  -0.500000   0.866025   0.000000 )  
               a(3) = (   0.000000   0.000000   1.333333 )  

     reciprocal axes: (cart. coord. in units 2 pi/alat)
               b(1) = (  1.000000  0.577350 -0.000000 )  
               b(2) = (  0.000000  1.154701  0.000000 )  
               b(3) = (  0.000000 -0.000000  0.750000 )  


     PseudoPot. # 1 for Cr read from file:
     ./Cr.GGA-PBE-paw.UPF
     MD5 check sum: 389087661106aa6caf57455f2e439c97
     Pseudo is Projector augmented-wave + core cor, Zval = 14.0
     Generated using ATOMPAW code
     Shape of augmentation charge: SINC**2
     Using radial grid of 2342 points,  6 beta functions with: 
                l(1) =   0
                l(2) =   0
                l(3) =   1
                l(4) =   1
                l(5) =   2
                l(6) =   2
     Q(r) pseudized with 0 coefficients 


     PseudoPot. # 2 for I  read from file:
     ./I.GGA-PBE-paw.UPF
     MD5 check sum: 736bb4145856fa7ed29d0984862794a4
     Pseudo is Projector augmented-wave + core cor, Zval =  7.0
     Generated using ATOMPAW code
     Shape of augmentation charge: SINC**2
     Using radial grid of 2342 points,  4 beta functions with: 
                l(1) =   0
                l(2) =   0
                l(3) =   1
                l(4) =   1
     Q(r) pseudized with 0 coefficients 


     PseudoPot. # 3 for Cr read from file:
     ./Cr.GGA-PBE-paw.UPF
     MD5 check sum: 389087661106aa6caf57455f2e439c97
     Pseudo is Projector augmented-wave + core cor, Zval = 14.0
     Generated using ATOMPAW code
     Shape of augmentation charge: SINC**2
     Using radial grid of 2342 points,  6 beta functions with: 
                l(1) =   0
                l(2) =   0
                l(3) =   1
                l(4) =   1
                l(5) =   2
                l(6) =   2
     Q(r) pseudized with 0 coefficients 


     atomic species   valence    mass     pseudopotential
     Cr1              14.00    51.99610     Cr( 1.00)
     I                 7.00   126.90447     I ( 1.00)
     Cr               14.00    51.99610     Cr( 1.00)

     Starting magnetic structure 
     atomic species   magnetization
     Cr1             0.214
     I               0.000
     Cr              0.214

     No symmetry found



   Cartesian axes

     site n.     atom                  positions (alat units)
         1        Cr1    tau(   1) = (   0.3271041   0.3777073   0.4295967  )
         2        Cr     tau(   2) = (   0.1635521   0.0944268   0.4295967  )
         3        Cr     tau(   3) = (   0.0000000   0.1888536   0.4295967  )
         4        I      tau(   4) = (   0.2103614  -0.0000006   0.3558127  )
         5        I      tau(   5) = (   0.0583708   0.1011024   0.3558127  )
         6        I      tau(   6) = (  -0.1051802   0.1821787   0.3558127  )
         7        I      tau(   7) = (   0.1167427  -0.0000005   0.5033806  )
         8        I      tau(   8) = (   0.1051802   0.1821786   0.5033806  )
         9        I      tau(   9) = (  -0.0583709   0.1011024   0.5033806  )
        10        Cr     tau(  10) = (  -0.0000000   0.3777073   0.4295967  )
        11        Cr     tau(  11) = (  -0.1635521   0.4721341   0.4295967  )
        12        I      tau(  12) = (   0.0468094   0.2832798   0.3558127  )
        13        I      tau(  13) = (  -0.1051813   0.3843829   0.3558127  )
        14        I      tau(  14) = (  -0.2687322   0.4654591   0.3558127  )
        15        I      tau(  15) = (  -0.0468094   0.2832799   0.5033806  )
        16        I      tau(  16) = (  -0.0583718   0.4654591   0.5033806  )
        17        I      tau(  17) = (  -0.2219229   0.3843829   0.5033806  )
        18        Cr     tau(  18) = (  -0.1635521   0.6609878   0.4295967  )
        19        Cr     tau(  19) = (  -0.3271041   0.7554146   0.4295967  )
        20        I      tau(  20) = (  -0.1167427   0.5665603   0.3558127  )
        21        I      tau(  21) = (  -0.2687333   0.6676634   0.3558127  )
        22        I      tau(  22) = (  -0.4322843   0.7487396   0.3558127  )
        23        I      tau(  23) = (  -0.2103614   0.5665604   0.5033806  )
        24        I      tau(  24) = (  -0.2219239   0.7487396   0.5033806  )
        25        I      tau(  25) = (  -0.3854750   0.6676633   0.5033806  )
        26        Cr     tau(  26) = (   0.4906562   0.0944268   0.4295967  )
        27        Cr     tau(  27) = (   0.3271041   0.1888536   0.4295967  )
        28        I      tau(  28) = (   0.5374655  -0.0000006   0.3558127  )
        29        I      tau(  29) = (   0.3854749   0.1011024   0.3558127  )
        30        I      tau(  30) = (   0.2219239   0.1821787   0.3558127  )
        31        I      tau(  31) = (   0.4438468  -0.0000005   0.5033806  )
        32        I      tau(  32) = (   0.4322844   0.1821786   0.5033806  )
        33        I      tau(  33) = (   0.2687332   0.1011024   0.5033806  )
        34        Cr     tau(  34) = (   0.1635521   0.4721341   0.4295967  )
        35        I      tau(  35) = (   0.3739135   0.2832798   0.3558127  )
        36        I      tau(  36) = (   0.2219229   0.3843829   0.3558127  )
        37        I      tau(  37) = (   0.0583719   0.4654591   0.3558127  )
        38        I      tau(  38) = (   0.2802947   0.2832799   0.5033806  )
        39        I      tau(  39) = (   0.2687323   0.4654591   0.5033806  )
        40        I      tau(  40) = (   0.1051812   0.3843829   0.5033806  )
        41        Cr     tau(  41) = (   0.1635521   0.6609878   0.4295967  )
        42        Cr     tau(  42) = (   0.0000000   0.7554146   0.4295967  )
        43        I      tau(  43) = (   0.2103614   0.5665603   0.3558127  )
        44        I      tau(  44) = (   0.0583708   0.6676634   0.3558127  )
        45        I      tau(  45) = (  -0.1051802   0.7487396   0.3558127  )
        46        I      tau(  46) = (   0.1167427   0.5665604   0.5033806  )
        47        I      tau(  47) = (   0.1051802   0.7487396   0.5033806  )
        48        I      tau(  48) = (  -0.0583709   0.6676633   0.5033806  )
        49        Cr     tau(  49) = (   0.8177603   0.0944268   0.4295967  )
        50        Cr     tau(  50) = (   0.6542082   0.1888536   0.4295967  )
        51        I      tau(  51) = (   0.8645697  -0.0000006   0.3558127  )
        52        I      tau(  52) = (   0.7125790   0.1011024   0.3558127  )
        53        I      tau(  53) = (   0.5490281   0.1821787   0.3558127  )
        54        I      tau(  54) = (   0.7709509  -0.0000005   0.5033806  )
        55        I      tau(  55) = (   0.7593885   0.1821786   0.5033806  )
        56        I      tau(  56) = (   0.5958374   0.1011024   0.5033806  )
        57        Cr     tau(  57) = (   0.6542082   0.3777073   0.4295967  )
        58        Cr     tau(  58) = (   0.4906562   0.4721341   0.4295967  )
        59        I      tau(  59) = (   0.7010176   0.2832798   0.3558127  )
        60        I      tau(  60) = (   0.5490270   0.3843829   0.3558127  )
        61        I      tau(  61) = (   0.3854760   0.4654591   0.3558127  )
        62        I      tau(  62) = (   0.6073989   0.2832799   0.5033806  )
        63        I      tau(  63) = (   0.5958364   0.4654591   0.5033806  )
        64        I      tau(  64) = (   0.4322853   0.3843829   0.5033806  )
        65        Cr     tau(  65) = (   0.4906562   0.6609878   0.4295967  )
        66        Cr     tau(  66) = (   0.3271041   0.7554146   0.4295967  )
        67        I      tau(  67) = (   0.5374655   0.5665603   0.3558127  )
        68        I      tau(  68) = (   0.3854749   0.6676634   0.3558127  )
        69        I      tau(  69) = (   0.2219239   0.7487396   0.3558127  )
        70        I      tau(  70) = (   0.4438468   0.5665604   0.5033806  )
        71        I      tau(  71) = (   0.4322844   0.7487396   0.5033806  )
        72        I      tau(  72) = (   0.2687332   0.6676633   0.5033806  )

     number of k points=     4
                       cart. coord. in units 2pi/alat
        k(    1) = (   0.0000000   0.0000000   0.0000000), wk =   0.2500000
        k(    2) = (   0.0000000  -0.5773503   0.0000000), wk =   0.2500000
        k(    3) = (   0.5000000  -0.2886751   0.0000000), wk =   0.2500000
        k(    4) = (  -0.5000000  -0.2886751   0.0000000), wk =   0.2500000

     Dense  grid: 17971031 G-vectors     FFT dimensions: ( 320, 320, 432)

     Smooth grid:  8351671 G-vectors     FFT dimensions: ( 240, 240, 320)

     Estimated max dynamical RAM per process >       1.67 GB

     Estimated total dynamical RAM >     213.14 GB
     Generating pointlists ...
     new r_m :   0.0531 (alat units)  2.1084 (a.u.) for type    1
     new r_m :   0.0531 (alat units)  2.1084 (a.u.) for type    2
     new r_m :   0.0531 (alat units)  2.1084 (a.u.) for type    3

     The initial density is read from file :
     ./Cr_0.2_0/Cr_0_0.save/charge-density


     negative rho (up, down):  1.304E-01 1.474E-01

     STARTING HUBBARD OCCUPATIONS:

     =================== HUBBARD OCCUPATIONS ===================
     ------------------------ ATOM    1 ------------------------
     Tr[ns(  1)] (up, down, total) =   4.25332  1.37309  5.62641
     Atomic magnetic moment for atom   1 =   2.88023
     SPIN  1
     eigenvalues:
       0.638  0.640  0.991  0.992  0.992
     eigenvectors (columns):
      -0.000  0.000 -0.955  0.236 -0.180
      -0.801  0.198  0.165  0.485 -0.238
      -0.198 -0.802 -0.031  0.257  0.501
       0.549 -0.135  0.240  0.709 -0.348
      -0.135 -0.547  0.046 -0.375 -0.734
     occupation matrix ns (before diag.):
       0.991  0.000 -0.000  0.000  0.000
       0.000  0.751 -0.000  0.165 -0.000
      -0.000 -0.000  0.752  0.000 -0.164
       0.000  0.165  0.000  0.879  0.000
       0.000 -0.000 -0.164  0.000  0.880
     SPIN  2
     eigenvalues:
       0.158  0.167  0.169  0.439  0.440
     eigenvectors (columns):
      -0.999  0.031 -0.025  0.000 -0.000
      -0.020 -0.549  0.128  0.794 -0.226
       0.010 -0.129 -0.547  0.226  0.795
      -0.030 -0.804  0.188 -0.543  0.154
      -0.014  0.188  0.805  0.154  0.541
     occupation matrix ns (before diag.):
       0.158 -0.000  0.000 -0.000 -0.000
      -0.000  0.353 -0.000 -0.127 -0.000
       0.000 -0.000  0.354 -0.000  0.126
      -0.000 -0.127 -0.000  0.254  0.000
      -0.000 -0.000  0.126  0.000  0.255

     Number of occupied Hubbard levels =    5.6264

     Atomic wfc used for Hubbard projectors are NOT orthogonalized

     Starting wfcs are  756 atomic wfcs
     Checking if some PAW data can be deallocated... 

     total cpu time spent up to now is      100.0 secs

     Self-consistent Calculation

     iteration #  1     ecut=    90.00 Ry     beta= 0.30
     Davidson diagonalization with overlap
     ethr =  1.00E-05,  avg # of iterations =  8.5

     =================== HUBBARD OCCUPATIONS ===================
     ------------------------ ATOM    1 ------------------------
     Tr[ns(  1)] (up, down, total) =   4.20860  1.30339  5.51199
     Atomic magnetic moment for atom   1 =   2.90521
     SPIN  1
     eigenvalues:
       0.617  0.619  0.991  0.991  0.991
     eigenvectors (columns):
      -0.000  0.000 -0.934  0.285 -0.217
      -0.800  0.202  0.200  0.467 -0.247
      -0.202 -0.801 -0.031  0.274  0.492
       0.548 -0.138  0.292  0.682 -0.361
      -0.138 -0.547  0.045 -0.401 -0.721
     occupation matrix ns (before diag.):
       0.991  0.000 -0.000  0.000  0.000
       0.000  0.736 -0.000  0.174 -0.000
      -0.000 -0.000  0.737  0.000 -0.174
       0.000  0.174  0.000  0.872  0.000
       0.000 -0.000 -0.174  0.000  0.873
     SPIN  2
     eigenvalues:
       0.147  0.156  0.157  0.422  0.423
     eigenvectors (columns):
      -0.999  0.028 -0.023  0.000 -0.000
      -0.018 -0.550  0.126  0.794 -0.226
       0.009 -0.127 -0.549  0.226  0.795
      -0.027 -0.804  0.184 -0.543  0.154
      -0.013  0.185  0.805  0.155  0.542
     occupation matrix ns (before diag.):
       0.147 -0.000  0.000 -0.000 -0.000
      -0.000  0.337 -0.000 -0.124 -0.000
       0.000 -0.000  0.338 -0.000  0.124
      -0.000 -0.124 -0.000  0.241  0.000
      -0.000 -0.000  0.124  0.000  0.241

     Number of occupied Hubbard levels =    5.5120

     Threshold (ethr) on eigenvalues was too large:
     Diagonalizing with lowered threshold

     Davidson diagonalization with overlap
     ethr =  7.22E-07,  avg # of iterations =  2.0

     negative rho (up, down):  1.305E-01 1.475E-01

     total cpu time spent up to now is      565.2 secs

     total energy              =  -24931.09440274 Ry
     estimated scf accuracy    <       0.00454742 Ry

     total magnetization       =    54.00 Bohr mag/cell
     absolute magnetization    =    65.39 Bohr mag/cell

     iteration #  2     ecut=    90.00 Ry     beta= 0.30
     Davidson diagonalization with overlap
     ethr =  7.22E-07,  avg # of iterations =  7.6

     negative rho (up, down):  1.304E-01 1.475E-01

     total cpu time spent up to now is      732.3 secs

     total energy              =  -24931.09478276 Ry
     estimated scf accuracy    <       0.01428520 Ry

     total magnetization       =    54.00 Bohr mag/cell
     absolute magnetization    =    65.44 Bohr mag/cell

     iteration #  3     ecut=    90.00 Ry     beta= 0.30
     Davidson diagonalization with overlap
     ethr =  7.22E-07,  avg # of iterations =  6.6

     negative rho (up, down):  1.304E-01 1.475E-01

     total cpu time spent up to now is      863.5 secs

     total energy              =  -24931.09624356 Ry
     estimated scf accuracy    <       0.00002057 Ry

     total magnetization       =    54.00 Bohr mag/cell
     absolute magnetization    =    65.42 Bohr mag/cell

     iteration #  4     ecut=    90.00 Ry     beta= 0.30
     Davidson diagonalization with overlap
     ethr =  3.27E-09,  avg # of iterations =  4.5

     negative rho (up, down):  1.304E-01 1.475E-01

     total cpu time spent up to now is      995.3 secs

     total energy              =  -24931.09624978 Ry
     estimated scf accuracy    <       0.00001025 Ry

     total magnetization       =    54.00 Bohr mag/cell
     absolute magnetization    =    65.41 Bohr mag/cell

     iteration #  5     ecut=    90.00 Ry     beta= 0.30
     Davidson diagonalization with overlap
     ethr =  1.63E-09,  avg # of iterations =  2.5

     negative rho (up, down):  1.304E-01 1.475E-01

     total cpu time spent up to now is     1099.6 secs

     total energy              =  -24931.09625197 Ry
     estimated scf accuracy    <       0.00000434 Ry

     total magnetization       =    54.00 Bohr mag/cell
     absolute magnetization    =    65.42 Bohr mag/cell

     iteration #  6     ecut=    90.00 Ry     beta= 0.30
     Davidson diagonalization with overlap
     ethr =  6.89E-10,  avg # of iterations =  3.8

     negative rho (up, down):  1.304E-01 1.475E-01

     total cpu time spent up to now is     1209.7 secs

     total energy              =  -24931.09625282 Ry
     estimated scf accuracy    <       0.00000130 Ry

     total magnetization       =    54.00 Bohr mag/cell
     absolute magnetization    =    65.42 Bohr mag/cell

     iteration #  7     ecut=    90.00 Ry     beta= 0.30
     Davidson diagonalization with overlap
     ethr =  2.07E-10,  avg # of iterations =  3.5

     negative rho (up, down):  1.304E-01 1.475E-01

     total cpu time spent up to now is     1310.6 secs

     total energy              =  -24931.09625313 Ry
     estimated scf accuracy    <       0.00000051 Ry

     total magnetization       =    54.00 Bohr mag/cell
     absolute magnetization    =    65.42 Bohr mag/cell

     iteration #  8     ecut=    90.00 Ry     beta= 0.30
     Davidson diagonalization with overlap
     ethr =  8.10E-11,  avg # of iterations =  3.6

     negative rho (up, down):  1.304E-01 1.475E-01

     total cpu time spent up to now is     1409.5 secs

     total energy              =  -24931.09625325 Ry
     estimated scf accuracy    <       0.00000010 Ry

     total magnetization       =    54.00 Bohr mag/cell
     absolute magnetization    =    65.42 Bohr mag/cell

     iteration #  9     ecut=    90.00 Ry     beta= 0.30
     Davidson diagonalization with overlap
     ethr =  1.52E-11,  avg # of iterations =  5.5

     negative rho (up, down):  1.304E-01 1.475E-01

     total cpu time spent up to now is     1554.8 secs

     total energy              =  -24931.09625330 Ry
     estimated scf accuracy    <       0.00000006 Ry

     total magnetization       =    54.00 Bohr mag/cell
     absolute magnetization    =    65.42 Bohr mag/cell

     iteration # 10     ecut=    90.00 Ry     beta= 0.30
     Davidson diagonalization with overlap
     ethr =  8.76E-12,  avg # of iterations =  3.0

     negative rho (up, down):  1.304E-01 1.475E-01

     total cpu time spent up to now is     1660.9 secs

     total energy              =  -24931.09625331 Ry
     estimated scf accuracy    <       0.00000001 Ry

     total magnetization       =    54.00 Bohr mag/cell
     absolute magnetization    =    65.42 Bohr mag/cell

     iteration # 11     ecut=    90.00 Ry     beta= 0.30
     Davidson diagonalization with overlap
     ethr =  2.12E-12,  avg # of iterations =  5.8

     negative rho (up, down):  1.304E-01 1.475E-01

     total cpu time spent up to now is     1805.2 secs

     total energy              =  -24931.09625332 Ry
     estimated scf accuracy    <          8.0E-09 Ry

     total magnetization       =    54.00 Bohr mag/cell
     absolute magnetization    =    65.42 Bohr mag/cell

     iteration # 12     ecut=    90.00 Ry     beta= 0.30
     Davidson diagonalization with overlap
     ethr =  1.27E-12,  avg # of iterations =  3.0

     negative rho (up, down):  1.304E-01 1.475E-01

     total cpu time spent up to now is     1911.8 secs

     total energy              =  -24931.09625332 Ry
     estimated scf accuracy    <          2.7E-09 Ry

     total magnetization       =    54.00 Bohr mag/cell
     absolute magnetization    =    65.42 Bohr mag/cell

     iteration # 13     ecut=    90.00 Ry     beta= 0.30
     Davidson diagonalization with overlap
     ethr =  4.24E-13,  avg # of iterations =  5.1

     negative rho (up, down):  1.304E-01 1.475E-01

     total cpu time spent up to now is     2038.6 secs

     total energy              =  -24931.09625332 Ry
     estimated scf accuracy    <          1.8E-09 Ry

     total magnetization       =    54.00 Bohr mag/cell
     absolute magnetization    =    65.42 Bohr mag/cell

     iteration # 14     ecut=    90.00 Ry     beta= 0.30
     Davidson diagonalization with overlap
     ethr =  2.85E-13,  avg # of iterations =  3.0

     negative rho (up, down):  1.304E-01 1.475E-01

     total cpu time spent up to now is     2149.9 secs

     total energy              =  -24931.09625332 Ry
     estimated scf accuracy    <          1.6E-10 Ry

     total magnetization       =    54.00 Bohr mag/cell
     absolute magnetization    =    65.42 Bohr mag/cell

     iteration # 15     ecut=    90.00 Ry     beta= 0.30
     Davidson diagonalization with overlap
     ethr =  1.00E-13,  avg # of iterations =  5.0

     negative rho (up, down):  1.304E-01 1.475E-01

     total cpu time spent up to now is     2255.1 secs

     total energy              =  -24931.09625332 Ry
     estimated scf accuracy    <          1.1E-10 Ry

     total magnetization       =    54.00 Bohr mag/cell
     absolute magnetization    =    65.42 Bohr mag/cell

     iteration # 16     ecut=    90.00 Ry     beta= 0.30
     Davidson diagonalization with overlap
     ethr =  1.00E-13,  avg # of iterations =  2.1

     negative rho (up, down):  1.304E-01 1.475E-01

     Magnetic moment per site  (integrated on atomic sphere of radius R)
     atom   1 (R=0.053)  charge= 12.3986  magn=  2.9496
     atom   2 (R=0.053)  charge= 12.4086  magn=  2.9135
     atom   3 (R=0.053)  charge= 12.4086  magn=  2.9136
     atom   4 (R=0.053)  charge=  4.0328  magn= -0.0666
     atom   5 (R=0.053)  charge=  4.0497  magn= -0.0522
     atom   6 (R=0.053)  charge=  4.0328  magn= -0.0666
     atom   7 (R=0.053)  charge=  4.0248  magn= -0.0724
     atom   8 (R=0.053)  charge=  4.0502  magn= -0.0558
     atom   9 (R=0.053)  charge=  4.0248  magn= -0.0724
     atom  10 (R=0.053)  charge= 12.4124  magn=  2.9202
     atom  11 (R=0.053)  charge= 12.4091  magn=  2.9162
     atom  12 (R=0.053)  charge=  4.0513  magn= -0.0516
     atom  13 (R=0.053)  charge=  4.0498  magn= -0.0517
     atom  14 (R=0.053)  charge=  4.0336  magn= -0.0637
     atom  15 (R=0.053)  charge=  4.0499  magn= -0.0523
     atom  16 (R=0.053)  charge=  4.0513  magn= -0.0523
     atom  17 (R=0.053)  charge=  4.0253  magn= -0.0710
     atom  18 (R=0.053)  charge= 12.4122  magn=  2.9227
     atom  19 (R=0.053)  charge= 12.3252  magn=  3.0168
     atom  20 (R=0.053)  charge=  4.0507  magn= -0.0525
     atom  21 (R=0.053)  charge=  4.0444  magn= -0.0604
     atom  22 (R=0.053)  charge=  4.0302  magn= -0.0695
     atom  23 (R=0.053)  charge=  4.0499  magn= -0.0520
     atom  24 (R=0.053)  charge=  4.0486  magn= -0.0515
     atom  25 (R=0.053)  charge=  4.0214  magn= -0.0769
     atom  26 (R=0.053)  charge= 12.4090  magn=  2.9161
     atom  27 (R=0.053)  charge= 12.4124  magn=  2.9199
     atom  28 (R=0.053)  charge=  4.0336  magn= -0.0638
     atom  29 (R=0.053)  charge=  4.0498  magn= -0.0518
     atom  30 (R=0.053)  charge=  4.0513  magn= -0.0516
     atom  31 (R=0.053)  charge=  4.0253  magn= -0.0709
     atom  32 (R=0.053)  charge=  4.0514  magn= -0.0523
     atom  33 (R=0.053)  charge=  4.0499  magn= -0.0524
     atom  34 (R=0.053)  charge= 12.4127  magn=  2.9230
     atom  35 (R=0.053)  charge=  4.0537  magn= -0.0518
     atom  36 (R=0.053)  charge=  4.0517  magn= -0.0533
     atom  37 (R=0.053)  charge=  4.0520  magn= -0.0496
     atom  38 (R=0.053)  charge=  4.0523  magn= -0.0530
     atom  39 (R=0.053)  charge=  4.0541  magn= -0.0508
     atom  40 (R=0.053)  charge=  4.0506  magn= -0.0507
     atom  41 (R=0.053)  charge= 12.4124  magn=  2.9257
     atom  42 (R=0.053)  charge= 12.3292  magn=  3.0258
     atom  43 (R=0.053)  charge=  4.0514  magn= -0.0505
     atom  44 (R=0.053)  charge=  4.0448  magn= -0.0597
     atom  45 (R=0.053)  charge=  4.0486  magn= -0.0544
     atom  46 (R=0.053)  charge=  4.0507  magn= -0.0505
     atom  47 (R=0.053)  charge=  4.0495  magn= -0.0482
     atom  48 (R=0.053)  charge=  4.0467  magn= -0.0568
     atom  49 (R=0.053)  charge= 12.3252  magn=  3.0168
     atom  50 (R=0.053)  charge= 12.4122  magn=  2.9227
     atom  51 (R=0.053)  charge=  4.0302  magn= -0.0695
     atom  52 (R=0.053)  charge=  4.0444  magn= -0.0604
     atom  53 (R=0.053)  charge=  4.0507  magn= -0.0525
     atom  54 (R=0.053)  charge=  4.0214  magn= -0.0769
     atom  55 (R=0.053)  charge=  4.0486  magn= -0.0515
     atom  56 (R=0.053)  charge=  4.0499  magn= -0.0520
     atom  57 (R=0.053)  charge= 12.3291  magn=  3.0258
     atom  58 (R=0.053)  charge= 12.4124  magn=  2.9254
     atom  59 (R=0.053)  charge=  4.0486  magn= -0.0544
     atom  60 (R=0.053)  charge=  4.0448  magn= -0.0597
     atom  61 (R=0.053)  charge=  4.0531  magn= -0.0525
     atom  62 (R=0.053)  charge=  4.0467  magn= -0.0568
     atom  63 (R=0.053)  charge=  4.0495  magn= -0.0483
     atom  64 (R=0.053)  charge=  4.0524  magn= -0.0525
     atom  65 (R=0.053)  charge= 12.3290  magn=  3.0298
     atom  66 (R=0.053)  charge= 12.3290  magn=  3.0298
     atom  67 (R=0.053)  charge=  4.0479  magn= -0.0556
     atom  68 (R=0.053)  charge=  4.0397  magn= -0.0676
     atom  69 (R=0.053)  charge=  4.0479  magn= -0.0555
     atom  70 (R=0.053)  charge=  4.0471  magn= -0.0559
     atom  71 (R=0.053)  charge=  4.0465  magn= -0.0471
     atom  72 (R=0.053)  charge=  4.0471  magn= -0.0559

     total cpu time spent up to now is     2342.5 secs

     End of self-consistent calculation

     =================== HUBBARD OCCUPATIONS ===================
     ------------------------ ATOM    1 ------------------------
     Tr[ns(  1)] (up, down, total) =   4.24632  1.33496  5.58128
     Atomic magnetic moment for atom   1 =   2.91136
     SPIN  1
     eigenvalues:
       0.635  0.637  0.991  0.992  0.992
     eigenvectors (columns):
      -0.000  0.000 -0.962  0.219 -0.165
      -0.801  0.197  0.152  0.492 -0.234
      -0.197 -0.802 -0.030  0.250  0.505
       0.549 -0.135  0.222  0.718 -0.341
      -0.135 -0.548  0.044 -0.365 -0.740
     occupation matrix ns (before diag.):
       0.991  0.000 -0.000  0.000  0.000
       0.000  0.749 -0.000  0.166 -0.000
      -0.000 -0.000  0.750  0.000 -0.166
       0.000  0.166  0.000  0.878  0.000
       0.000 -0.000 -0.166  0.000  0.879
     SPIN  2
     eigenvalues:
       0.150  0.160  0.161  0.431  0.432
     eigenvectors (columns):
      -0.999  0.029 -0.024  0.000 -0.000
      -0.019 -0.550  0.128  0.794 -0.226
       0.009 -0.128 -0.548  0.226  0.795
      -0.028 -0.804  0.187 -0.543  0.154
      -0.014  0.187  0.805  0.154  0.541
     occupation matrix ns (before diag.):
       0.150 -0.000  0.000 -0.000 -0.000
      -0.000  0.345 -0.000 -0.126 -0.000
       0.000 -0.000  0.346 -0.000  0.126
      -0.000 -0.126 -0.000  0.246  0.000
      -0.000 -0.000  0.126  0.000  0.247

     Number of occupied Hubbard levels =    5.5813

 ------ SPIN UP ------------


          k = 0.0000 0.0000 0.0000 (****** PWs)   bands (ev):

   -76.1370 -76.1369 -76.1211 -76.0608 -76.0607 -76.0130 -76.0125 -75.9806
   -75.9806 -75.9328 -75.9300 -75.9299 -75.8506 -75.8506 -75.8505 -75.8503
   -75.7723 -75.7723 -47.4875 -47.4865 -47.4631 -47.4620 -47.4577 -47.4574
   -47.4550 -47.4484 -47.4456 -47.4084 -47.4083 -47.3880 -47.3879 -47.3822
   -47.3821 -47.3525 -47.3519 -47.3460 -47.3454 -47.3398 -47.3393 -47.3272
   -47.3271 -47.3058 -47.3058 -47.3013 -47.3012 -47.2714 -47.2696 -47.2695
   -47.2648 -47.2631 -47.2630 -47.2621 -47.2559 -47.2558 -47.1889 -47.1887
   -47.1886 -47.1883 -47.1835 -47.1834 -47.1817 -47.1814 -47.1797 -47.1794
   -47.1762 -47.1762 -47.1101 -47.1098 -47.1062 -47.1043 -47.0971 -47.0970
   -16.2053 -16.0679 -16.0163 -15.9916 -15.9547 -15.8950 -15.8619 -15.7102
   -15.6638 -15.6336 -15.6074 -15.4951 -15.4788 -15.4545 -15.4250 -15.4087
   -15.3797 -15.3553 -15.3464 -15.3324 -15.3316 -15.3105 -15.2940 -15.2752
   -15.2689 -15.2477 -15.2373 -15.2355 -15.2030 -15.1869 -15.1747 -15.1716
   -15.1652 -15.1533 -15.1261 -15.1212 -15.1105 -15.0992 -15.0946 -15.0824
   -15.0759 -15.0579 -15.0309 -15.0207 -15.0062 -14.9950 -14.9859 -14.9099
   -14.8806 -14.8793 -14.8182 -14.8158 -14.7419 -14.7134  -7.9525  -7.8738
    -7.8398  -7.7905  -7.7792  -7.7428  -7.6945  -7.4070  -7.3817  -7.3757
    -7.3648  -7.3310  -7.2903  -7.2645  -7.2331  -7.2185  -7.1428  -7.1355
    -6.9819  -6.9498  -6.9410  -6.8971  -6.8792  -6.8581  -6.8469  -6.8341
    -6.8105  -6.8090  -6.7732  -6.7491  -6.7285  -6.7213  -6.7027  -6.6854
    -6.6826  -6.6708  -6.6484  -6.6396  -6.6278  -6.6030  -6.5876  -6.5873
    -6.5638  -6.5388  -6.5052  -6.4944  -6.4731  -6.4639  -6.4243  -6.4048
    -6.3964  -6.3754  -6.3420  -6.3397  -6.3354  -6.2964  -6.2828  -6.2654
    -6.2542  -6.2331  -6.1925  -6.1628  -6.1521  -6.1214  -6.1181  -6.0795
    -6.0517  -6.0281  -6.0216  -5.9872  -5.9851  -5.9799  -5.9700  -5.9359
    -5.9270  -5.9157  -5.8885  -5.8857  -5.8554  -5.8429  -5.8053  -5.7736
    -5.6804  -5.6505  -5.6269  -5.6197  -5.5743  -5.5162  -5.4969  -5.4707
    -5.4576  -5.4280  -5.3851  -5.3623  -5.3477  -5.3186  -5.2868  -5.2649
    -5.2459  -5.2274  -5.2118  -5.1984  -5.1764  -5.1723  -5.1523  -5.1406
    -5.1251  -5.1205  -5.0624  -5.0454  -5.0259  -5.0202  -5.0186  -5.0070
    -4.9886  -4.9788  -4.9512  -4.9453  -4.9287  -4.9116  -4.8750  -4.8673
    -4.8530  -4.8397  -4.8187  -4.7865  -4.7776  -4.7667  -4.7374  -4.7135
    -4.7060  -4.6935  -4.6845  -4.6768  -4.6761  -4.6262  -4.6090  -4.5537
    -4.5381  -4.5150  -4.4850  -4.4469  -4.4407  -4.4327  -4.3997  -4.3957
    -4.3729  -4.3702  -4.3551  -4.3479  -4.3461  -4.3219  -4.3170  -4.2883
    -4.2844  -4.2395  -4.2199  -4.2153  -4.1901  -4.1843  -4.1544  -4.1292
    -4.1064  -4.0840  -4.0810  -4.0514  -4.0136  -4.0109  -4.0025  -3.9848
    -3.9532  -3.9506  -3.9316  -3.9261  -3.9213  -3.9130  -3.8978  -3.8923
    -3.8849  -3.8840  -3.8810  -3.8530  -3.8396  -3.8371  -3.8288  -3.8284
    -3.8184  -3.8165  -3.7934  -3.7856  -3.7679  -3.7651  -3.7493  -3.7293
    -3.7231  -3.7028  -3.6960  -3.6851  -3.6360  -3.6290  -3.6163  -3.6010
    -3.5969  -3.5789  -3.5046  -3.4972  -3.4890  -3.4714  -3.4415  -3.4352
    -3.4183  -3.3965  -3.3518  -3.3491  -3.3404  -3.3265

          k = 0.0000-0.5774 0.0000 (****** PWs)   bands (ev):

   -76.1370 -76.1369 -76.1211 -76.0608 -76.0607 -76.0130 -76.0125 -75.9806
   -75.9806 -75.9328 -75.9300 -75.9299 -75.8506 -75.8506 -75.8505 -75.8503
   -75.7723 -75.7723 -47.4875 -47.4865 -47.4631 -47.4620 -47.4577 -47.4574
   -47.4550 -47.4484 -47.4456 -47.4084 -47.4083 -47.3880 -47.3879 -47.3822
   -47.3821 -47.3525 -47.3519 -47.3460 -47.3454 -47.3398 -47.3393 -47.3272
   -47.3271 -47.3058 -47.3058 -47.3013 -47.3012 -47.2714 -47.2696 -47.2695
   -47.2648 -47.2631 -47.2630 -47.2621 -47.2559 -47.2558 -47.1889 -47.1887
   -47.1886 -47.1883 -47.1835 -47.1834 -47.1817 -47.1814 -47.1797 -47.1794
   -47.1762 -47.1762 -47.1101 -47.1098 -47.1062 -47.1043 -47.0971 -47.0970
   -16.1943 -16.0988 -16.0242 -15.9980 -15.9277 -15.8640 -15.8451 -15.7595
   -15.6898 -15.5935 -15.5685 -15.5201 -15.5162 -15.4632 -15.4509 -15.3947
   -15.3752 -15.3602 -15.3510 -15.3229 -15.3117 -15.3095 -15.2927 -15.2742
   -15.2516 -15.2407 -15.2291 -15.2170 -15.2061 -15.1945 -15.1810 -15.1721
   -15.1605 -15.1459 -15.1423 -15.1255 -15.1201 -15.1022 -15.0949 -15.0813
   -15.0741 -15.0581 -15.0336 -15.0278 -15.0021 -14.9953 -14.9870 -14.9086
   -14.8799 -14.8789 -14.8169 -14.8166 -14.7418 -14.7133  -7.9381  -7.8817
    -7.8170  -7.7833  -7.7649  -7.7054  -7.6424  -7.5961  -7.5254  -7.3735
    -7.3393  -7.2847  -7.2733  -7.2603  -7.2130  -7.1995  -7.1362  -7.1297
    -6.9742  -6.9504  -6.9358  -6.8949  -6.8746  -6.8642  -6.8360  -6.8341
    -6.8186  -6.8023  -6.7834  -6.7605  -6.7330  -6.7284  -6.7236  -6.7047
    -6.6964  -6.6755  -6.6514  -6.6442  -6.6290  -6.5971  -6.5627  -6.5477
    -6.5270  -6.5120  -6.4891  -6.4808  -6.4543  -6.4410  -6.4245  -6.4128
    -6.3969  -6.3893  -6.3789  -6.3321  -6.3212  -6.2920  -6.2786  -6.2677
    -6.2478  -6.2239  -6.1893  -6.1833  -6.1578  -6.1059  -6.0809  -6.0741
    -6.0573  -6.0397  -6.0199  -5.9985  -5.9795  -5.9764  -5.9586  -5.9189
    -5.9081  -5.8955  -5.8613  -5.8426  -5.8233  -5.7986  -5.7760  -5.7173
    -5.6484  -5.6185  -5.5951  -5.5912  -5.5694  -5.5519  -5.5315  -5.5250
    -5.5077  -5.4893  -5.4674  -5.4462  -5.4367  -5.4063  -5.3878  -5.3629
    -5.3457  -5.3178  -5.3028  -5.2641  -5.2423  -5.2282  -5.1993  -5.1484
    -5.1314  -5.1137  -5.0920  -5.0744  -5.0507  -5.0246  -5.0046  -4.9718
    -4.9504  -4.9158  -4.9045  -4.8935  -4.8760  -4.8529  -4.8124  -4.8005
    -4.7818  -4.7644  -4.7442  -4.7334  -4.7088  -4.6912  -4.6842  -4.6703
    -4.6644  -4.6408  -4.6184  -4.6036  -4.5966  -4.5661  -4.5531  -4.5433
    -4.5344  -4.5244  -4.5050  -4.4905  -4.4705  -4.4456  -4.4418  -4.4343
    -4.4123  -4.4060  -4.3823  -4.3745  -4.3459  -4.3049  -4.2916  -4.2723
    -4.2611  -4.2513  -4.2265  -4.2060  -4.1936  -4.1783  -4.1732  -4.1677
    -4.1592  -4.1465  -4.1183  -4.1118  -4.0849  -4.0627  -4.0412  -4.0039
    -3.9797  -3.9688  -3.9502  -3.9316  -3.9224  -3.9087  -3.8949  -3.8837
    -3.8815  -3.8692  -3.8556  -3.8537  -3.8456  -3.8379  -3.8325  -3.8191
    -3.8112  -3.7903  -3.7856  -3.7783  -3.7696  -3.7521  -3.7269  -3.7128
    -3.6897  -3.6824  -3.6611  -3.6460  -3.6370  -3.6300  -3.6164  -3.6045
    -3.5991  -3.5801  -3.5707  -3.5330  -3.4778  -3.4661  -3.4247  -3.4225
    -3.4109  -3.3961  -3.3711  -3.3518  -3.3442  -3.3298

          k = 0.5000-0.2887 0.0000 (****** PWs)   bands (ev):

   -76.1370 -76.1369 -76.1211 -76.0608 -76.0607 -76.0130 -76.0125 -75.9806
   -75.9806 -75.9328 -75.9300 -75.9299 -75.8506 -75.8506 -75.8505 -75.8503
   -75.7723 -75.7723 -47.4875 -47.4865 -47.4631 -47.4620 -47.4577 -47.4574
   -47.4550 -47.4484 -47.4456 -47.4084 -47.4083 -47.3880 -47.3879 -47.3822
   -47.3821 -47.3525 -47.3519 -47.3460 -47.3454 -47.3398 -47.3393 -47.3272
   -47.3271 -47.3058 -47.3058 -47.3013 -47.3012 -47.2714 -47.2696 -47.2695
   -47.2648 -47.2631 -47.2630 -47.2621 -47.2559 -47.2558 -47.1889 -47.1887
   -47.1886 -47.1883 -47.1835 -47.1834 -47.1817 -47.1814 -47.1797 -47.1794
   -47.1762 -47.1762 -47.1101 -47.1098 -47.1062 -47.1043 -47.0971 -47.0970
   -16.1880 -16.1186 -16.0222 -15.9706 -15.9336 -15.8687 -15.8514 -15.7684
   -15.6567 -15.6292 -15.5558 -15.5247 -15.5195 -15.4711 -15.4489 -15.3962
   -15.3641 -15.3539 -15.3497 -15.3119 -15.3083 -15.2996 -15.2962 -15.2769
   -15.2516 -15.2478 -15.2263 -15.2205 -15.2173 -15.2008 -15.1942 -15.1639
   -15.1626 -15.1428 -15.1385 -15.1233 -15.1214 -15.1028 -15.0973 -15.0756
   -15.0717 -15.0643 -15.0299 -15.0290 -15.0021 -14.9965 -14.9847 -14.9072
   -14.8802 -14.8795 -14.8183 -14.8153 -14.7420 -14.7132  -7.9323  -7.8933
    -7.7974  -7.7908  -7.7448  -7.7041  -7.6974  -7.5589  -7.5434  -7.3756
    -7.3314  -7.2922  -7.2484  -7.2437  -7.2250  -7.2186  -7.1422  -7.1248
    -6.9710  -6.9483  -6.9411  -6.8937  -6.8779  -6.8695  -6.8401  -6.8311
    -6.8251  -6.8096  -6.7970  -6.7664  -6.7638  -6.7529  -6.7097  -6.6963
    -6.6694  -6.6669  -6.6229  -6.6213  -6.5993  -6.5878  -6.5605  -6.5234
    -6.5197  -6.5037  -6.5000  -6.4979  -6.4668  -6.4537  -6.4309  -6.4079
    -6.3915  -6.3743  -6.3724  -6.3596  -6.3085  -6.3057  -6.2877  -6.2801
    -6.2660  -6.2480  -6.1952  -6.1822  -6.1233  -6.1155  -6.0742  -6.0638
    -6.0367  -6.0325  -6.0213  -5.9952  -5.9924  -5.9676  -5.9452  -5.9149
    -5.9080  -5.8989  -5.8975  -5.8712  -5.8629  -5.8420  -5.7923  -5.6710
    -5.6468  -5.6072  -5.5717  -5.5536  -5.5454  -5.5261  -5.5219  -5.5086
    -5.5037  -5.4887  -5.4766  -5.4652  -5.4466  -5.4315  -5.3946  -5.3775
    -5.3651  -5.3451  -5.3299  -5.2642  -5.2267  -5.2016  -5.1824  -5.1534
    -5.1264  -5.0844  -5.0792  -5.0609  -5.0476  -5.0247  -5.0004  -4.9952
    -4.9448  -4.9389  -4.9140  -4.8753  -4.8721  -4.8381  -4.8117  -4.7998
    -4.7847  -4.7785  -4.7343  -4.7334  -4.7168  -4.7015  -4.6861  -4.6659
    -4.6632  -4.6305  -4.6286  -4.6044  -4.5957  -4.5805  -4.5678  -4.5621
    -4.5468  -4.5084  -4.4720  -4.4708  -4.4588  -4.4584  -4.4385  -4.4268
    -4.4214  -4.4066  -4.4049  -4.3881  -4.3601  -4.2930  -4.2854  -4.2747
    -4.2660  -4.2333  -4.2202  -4.2122  -4.1998  -4.1847  -4.1738  -4.1594
    -4.1507  -4.1353  -4.1279  -4.0958  -4.0807  -4.0782  -4.0255  -4.0101
    -3.9913  -3.9692  -3.9406  -3.9313  -3.9127  -3.9122  -3.9068  -3.8926
    -3.8828  -3.8797  -3.8682  -3.8612  -3.8496  -3.8353  -3.8258  -3.8244
    -3.8063  -3.7976  -3.7899  -3.7722  -3.7643  -3.7394  -3.7263  -3.7098
    -3.6915  -3.6911  -3.6663  -3.6514  -3.6299  -3.6257  -3.6227  -3.6117
    -3.5761  -3.5749  -3.5556  -3.5311  -3.4982  -3.4501  -3.4499  -3.4248
    -3.4216  -3.3867  -3.3598  -3.3581  -3.3358  -3.3258

          k =-0.5000-0.2887 0.0000 (****** PWs)   bands (ev):

   -76.1370 -76.1369 -76.1211 -76.0608 -76.0607 -76.0130 -76.0125 -75.9806
   -75.9806 -75.9328 -75.9300 -75.9299 -75.8506 -75.8506 -75.8505 -75.8503
   -75.7723 -75.7723 -47.4875 -47.4865 -47.4631 -47.4620 -47.4577 -47.4574
   -47.4550 -47.4484 -47.4456 -47.4084 -47.4083 -47.3880 -47.3879 -47.3822
   -47.3821 -47.3525 -47.3519 -47.3460 -47.3454 -47.3398 -47.3393 -47.3272
   -47.3271 -47.3058 -47.3058 -47.3013 -47.3012 -47.2714 -47.2696 -47.2695
   -47.2648 -47.2631 -47.2630 -47.2621 -47.2559 -47.2558 -47.1889 -47.1887
   -47.1886 -47.1883 -47.1835 -47.1834 -47.1817 -47.1814 -47.1797 -47.1794
   -47.1762 -47.1762 -47.1101 -47.1098 -47.1062 -47.1043 -47.0971 -47.0970
   -16.1943 -16.0985 -16.0248 -15.9982 -15.9270 -15.8636 -15.8455 -15.7600
   -15.6898 -15.5928 -15.5685 -15.5202 -15.5165 -15.4634 -15.4510 -15.3947
   -15.3746 -15.3602 -15.3512 -15.3233 -15.3119 -15.3095 -15.2925 -15.2742
   -15.2510 -15.2409 -15.2295 -15.2171 -15.2059 -15.1938 -15.1813 -15.1721
   -15.1598 -15.1482 -15.1423 -15.1251 -15.1188 -15.1008 -15.0944 -15.0836
   -15.0755 -15.0573 -15.0324 -15.0277 -15.0034 -14.9947 -14.9870 -14.9086
   -14.8799 -14.8789 -14.8169 -14.8166 -14.7418 -14.7133  -7.9382  -7.8796
    -7.8221  -7.7812  -7.7654  -7.7044  -7.6398  -7.5971  -7.5263  -7.3750
    -7.3394  -7.2836  -7.2729  -7.2606  -7.2130  -7.1989  -7.1361  -7.1302
    -6.9739  -6.9492  -6.9370  -6.8971  -6.8714  -6.8656  -6.8357  -6.8304
    -6.8210  -6.8056  -6.7813  -6.7616  -6.7336  -6.7285  -6.7232  -6.7048
    -6.6969  -6.6750  -6.6516  -6.6445  -6.6283  -6.5963  -6.5630  -6.5474
    -6.5231  -6.5131  -6.4856  -6.4831  -6.4575  -6.4415  -6.4262  -6.4113
    -6.3960  -6.3890  -6.3811  -6.3325  -6.3218  -6.2911  -6.2795  -6.2687
    -6.2465  -6.2236  -6.1895  -6.1821  -6.1585  -6.1091  -6.0820  -6.0701
    -6.0511  -6.0386  -6.0192  -5.9988  -5.9816  -5.9802  -5.9597  -5.9176
    -5.9083  -5.8949  -5.8614  -5.8433  -5.8228  -5.7997  -5.7770  -5.7163
    -5.6475  -5.6194  -5.5976  -5.5889  -5.5714  -5.5531  -5.5289  -5.5251
    -5.5074  -5.4883  -5.4674  -5.4458  -5.4374  -5.4062  -5.3869  -5.3632
    -5.3457  -5.3185  -5.3030  -5.2655  -5.2426  -5.2258  -5.1996  -5.1478
    -5.1337  -5.1141  -5.0919  -5.0737  -5.0501  -5.0232  -5.0048  -4.9717
    -4.9511  -4.9157  -4.9050  -4.8938  -4.8757  -4.8511  -4.8124  -4.8007
    -4.7804  -4.7653  -4.7445  -4.7332  -4.7079  -4.6901  -4.6847  -4.6716
    -4.6657  -4.6416  -4.6176  -4.6041  -4.5968  -4.5664  -4.5535  -4.5429
    -4.5348  -4.5246  -4.5060  -4.4901  -4.4702  -4.4470  -4.4419  -4.4334
    -4.4109  -4.4051  -4.3818  -4.3752  -4.3452  -4.3048  -4.2916  -4.2734
    -4.2607  -4.2516  -4.2261  -4.2061  -4.1936  -4.1789  -4.1731  -4.1674
    -4.1588  -4.1467  -4.1184  -4.1120  -4.0845  -4.0627  -4.0414  -4.0037
    -3.9796  -3.9690  -3.9501  -3.9312  -3.9228  -3.9090  -3.8944  -3.8840
    -3.8813  -3.8692  -3.8557  -3.8541  -3.8458  -3.8375  -3.8326  -3.8179
    -3.8111  -3.7904  -3.7857  -3.7789  -3.7698  -3.7518  -3.7265  -3.7125
    -3.6902  -3.6828  -3.6614  -3.6455  -3.6373  -3.6301  -3.6165  -3.6042
    -3.5990  -3.5806  -3.5705  -3.5326  -3.4767  -3.4669  -3.4249  -3.4236
    -3.4102  -3.3962  -3.3716  -3.3516  -3.3430  -3.3305

 ------ SPIN DOWN ----------


          k = 0.0000 0.0000 0.0000 (****** PWs)   bands (ev):

   -73.0514 -72.9791 -72.9789 -72.9729 -72.9723 -72.9068 -72.9067 -72.8952
   -72.8927 -72.8927 -72.8342 -72.8341 -72.8185 -72.8184 -72.8160 -72.8155
   -72.7427 -72.7427 -44.4525 -44.4182 -44.4149 -44.3883 -44.3870 -44.3789
   -44.3781 -44.3621 -44.3604 -44.3483 -44.3475 -44.3353 -44.3346 -44.3319
   -44.3316 -44.3122 -44.3120 -44.3005 -44.2981 -44.2981 -44.2841 -44.2839
   -44.2691 -44.2691 -44.2672 -44.2671 -44.2661 -44.2628 -44.2542 -44.2541
   -44.2347 -44.2346 -44.2205 -44.2201 -44.2187 -44.2187 -44.2121 -44.2121
   -44.1953 -44.1953 -44.1929 -44.1929 -44.1872 -44.1866 -44.1837 -44.1836
   -44.1831 -44.1827 -44.1427 -44.1422 -44.1179 -44.1159 -44.1082 -44.1075
   -16.2138 -16.0799 -16.0318 -16.0048 -15.9700 -15.9096 -15.8817 -15.7347
   -15.6902 -15.6629 -15.6390 -15.5371 -15.5155 -15.5038 -15.4626 -15.4508
   -15.4282 -15.4036 -15.3938 -15.3753 -15.3730 -15.3591 -15.3429 -15.3215
   -15.3173 -15.2958 -15.2869 -15.2844 -15.2515 -15.2350 -15.2258 -15.2207
   -15.2133 -15.2018 -15.1746 -15.1740 -15.1626 -15.1450 -15.1413 -15.1325
   -15.1275 -15.1050 -15.0887 -15.0737 -15.0615 -15.0431 -15.0351 -14.9689
   -14.9508 -14.9446 -14.8861 -14.8831 -14.8110 -14.7842  -7.6686  -7.6170
    -7.5775  -7.5327  -7.5250  -7.4867  -7.4400  -7.1623  -7.1342  -7.1305
    -7.1170  -7.0847  -7.0436  -7.0190  -6.9951  -6.9764  -6.9053  -6.9027
    -6.8579  -6.8534  -6.8147  -6.7782  -6.7585  -6.7252  -6.6689  -6.6423
    -6.6292  -6.6071  -6.6003  -6.5548  -6.5456  -6.5439  -6.5269  -6.5242
    -6.4737  -6.4649  -6.4500  -6.4189  -6.4153  -6.4022  -6.3765  -6.3502
    -6.3428  -6.2987  -6.2959  -6.2928  -6.2530  -6.1848  -6.1472  -6.1340
    -6.1296  -6.0558  -6.0436  -6.0233  -5.9994  -5.9935  -5.9450  -5.9359
    -5.9322  -5.9271  -5.8848  -5.8782  -5.8534  -5.8097  -5.7943  -5.6177
    -5.6044  -5.5934  -5.5767  -5.5673  -5.5479  -5.5422  -5.5292  -5.5030
    -5.4950  -5.4901  -5.4838  -5.4532  -5.3991  -5.3972  -5.3847  -5.3623
    -5.3054  -5.2756  -5.2246  -5.2079  -5.1867  -5.1423  -5.1058  -5.1038
    -5.0952  -5.0606  -5.0253  -5.0171  -4.9819  -4.9781  -4.9660  -4.9575
    -4.9444  -4.9224  -4.9094  -4.8766  -4.8598  -4.8471  -4.8205  -4.8184
    -4.8010  -4.7845  -4.7719  -4.7711  -4.7483  -4.7458  -4.7216  -4.7142
    -4.6932  -4.6768  -4.6753  -4.6326  -4.6304  -4.5712  -4.5611  -4.5539
    -4.5498  -4.5448  -4.4744  -4.4568  -4.4477  -4.4462  -4.4075  -4.3772
    -4.3665  -4.3480  -4.3216  -4.3154  -4.3016  -4.2892  -4.2567  -4.2447
    -4.2330  -4.2192  -4.2092  -4.1715  -4.1102  -4.0733  -4.0691  -4.0562
    -4.0547  -3.9978  -3.9965  -3.9812  -3.9804  -3.9676  -3.9188  -3.8957
    -3.8675  -3.8325  -3.8156  -3.7653  -3.7241  -3.6880  -3.6153  -3.5913
    -1.5492  -1.5387  -1.5071  -1.5032  -1.4795  -1.4719  -1.4575  -1.4544
    -1.4159  -1.4074  -1.4044  -1.3933  -1.3776  -1.3688  -1.3456  -1.3325
    -1.3282  -1.3187  -1.3108  -1.2900  -1.2767  -1.2653  -1.2551  -1.2463
    -1.2392  -1.2243  -1.2048  -1.2005  -1.1880  -1.1636  -1.1377  -1.1217
    -1.1162  -1.1035  -1.1004  -1.0911  -1.0715  -1.0708  -1.0553  -1.0523
    -1.0457  -1.0429  -1.0293  -1.0236  -1.0228  -1.0108  -1.0055  -1.0010
    -0.9894  -0.9822  -0.9715  -0.9633  -0.9508  -0.9293

          k = 0.0000-0.5774 0.0000 (****** PWs)   bands (ev):

   -73.0514 -72.9791 -72.9789 -72.9729 -72.9723 -72.9068 -72.9067 -72.8952
   -72.8927 -72.8927 -72.8342 -72.8341 -72.8185 -72.8184 -72.8160 -72.8155
   -72.7427 -72.7427 -44.4525 -44.4182 -44.4149 -44.3883 -44.3870 -44.3789
   -44.3781 -44.3621 -44.3604 -44.3483 -44.3475 -44.3353 -44.3346 -44.3319
   -44.3316 -44.3122 -44.3120 -44.3005 -44.2981 -44.2981 -44.2841 -44.2839
   -44.2691 -44.2691 -44.2672 -44.2671 -44.2661 -44.2628 -44.2542 -44.2541
   -44.2347 -44.2346 -44.2205 -44.2201 -44.2187 -44.2187 -44.2121 -44.2121
   -44.1953 -44.1953 -44.1929 -44.1929 -44.1872 -44.1866 -44.1837 -44.1836
   -44.1831 -44.1827 -44.1427 -44.1422 -44.1179 -44.1159 -44.1082 -44.1075
   -16.2030 -16.1101 -16.0388 -16.0117 -15.9434 -15.8796 -15.8642 -15.7818
   -15.7185 -15.6254 -15.6028 -15.5558 -15.5500 -15.5026 -15.4981 -15.4447
   -15.4204 -15.4047 -15.3996 -15.3666 -15.3586 -15.3570 -15.3415 -15.3225
   -15.2968 -15.2865 -15.2759 -15.2663 -15.2559 -15.2417 -15.2329 -15.2219
   -15.2102 -15.1957 -15.1936 -15.1759 -15.1692 -15.1496 -15.1419 -15.1317
   -15.1245 -15.1035 -15.0916 -15.0835 -15.0575 -15.0443 -15.0340 -14.9681
   -14.9501 -14.9435 -14.8845 -14.8841 -14.8109 -14.7841  -7.6604  -7.6143
    -7.5563  -7.5213  -7.5116  -7.4536  -7.3903  -7.3476  -7.2760  -7.1249
    -7.0925  -7.0413  -7.0270  -7.0176  -6.9706  -6.9651  -6.9043  -6.8958
    -6.8597  -6.8360  -6.8148  -6.7642  -6.7305  -6.7156  -6.6839  -6.6603
    -6.6538  -6.6302  -6.6160  -6.5927  -6.5583  -6.5498  -6.5214  -6.4906
    -6.4875  -6.4663  -6.4548  -6.4284  -6.4260  -6.3854  -6.3342  -6.3203
    -6.3130  -6.2692  -6.2505  -6.2257  -6.1967  -6.1911  -6.1647  -6.1510
    -6.1290  -6.1092  -6.0953  -6.0769  -6.0431  -6.0266  -5.9746  -5.9618
    -5.9406  -5.8972  -5.8520  -5.8012  -5.8003  -5.6628  -5.6523  -5.6294
    -5.6226  -5.6036  -5.5795  -5.5715  -5.5475  -5.5330  -5.5103  -5.4984
    -5.4770  -5.4669  -5.4502  -5.4239  -5.4149  -5.3753  -5.3511  -5.3209
    -5.2992  -5.2828  -5.2451  -5.2374  -5.2191  -5.2119  -5.1884  -5.1683
    -5.1513  -5.1266  -5.1189  -5.0944  -5.0815  -5.0787  -5.0569  -5.0299
    -5.0055  -4.9543  -4.9366  -4.9308  -4.9217  -4.8890  -4.8738  -4.8599
    -4.8413  -4.8238  -4.8147  -4.7911  -4.7025  -4.6869  -4.6724  -4.6704
    -4.6427  -4.6242  -4.5892  -4.5746  -4.5628  -4.5413  -4.4962  -4.4938
    -4.4862  -4.4682  -4.4450  -4.4433  -4.4243  -4.4091  -4.3944  -4.3430
    -4.3237  -4.3054  -4.2965  -4.2836  -4.2642  -4.2503  -4.2345  -4.2131
    -4.1741  -4.1587  -4.1529  -4.1261  -4.1056  -4.0883  -4.0837  -4.0607
    -4.0589  -4.0331  -4.0068  -3.9838  -3.9608  -3.9522  -3.9473  -3.9088
    -3.9015  -3.8661  -3.8336  -3.8101  -3.7741  -3.7676  -3.7064  -3.6393
    -1.5538  -1.5516  -1.5207  -1.5129  -1.4899  -1.4698  -1.4597  -1.4505
    -1.4363  -1.4194  -1.4027  -1.3858  -1.3753  -1.3620  -1.3518  -1.3292
    -1.3174  -1.3061  -1.2843  -1.2767  -1.2644  -1.2516  -1.2398  -1.2339
    -1.2210  -1.2024  -1.1894  -1.1786  -1.1693  -1.1598  -1.1439  -1.1366
    -1.1308  -1.1252  -1.1208  -1.1024  -1.0943  -1.0815  -1.0766  -1.0694
    -1.0577  -1.0464  -1.0357  -1.0282  -1.0255  -1.0190  -1.0045  -1.0001
    -0.9959  -0.9810  -0.9719  -0.9547  -0.9370  -0.9263

          k = 0.5000-0.2887 0.0000 (****** PWs)   bands (ev):

   -73.0514 -72.9791 -72.9789 -72.9729 -72.9723 -72.9068 -72.9067 -72.8952
   -72.8927 -72.8927 -72.8342 -72.8341 -72.8185 -72.8184 -72.8160 -72.8155
   -72.7427 -72.7427 -44.4525 -44.4182 -44.4149 -44.3883 -44.3870 -44.3789
   -44.3781 -44.3621 -44.3604 -44.3483 -44.3475 -44.3353 -44.3346 -44.3319
   -44.3316 -44.3122 -44.3120 -44.3005 -44.2981 -44.2981 -44.2841 -44.2839
   -44.2691 -44.2691 -44.2672 -44.2671 -44.2661 -44.2628 -44.2542 -44.2541
   -44.2347 -44.2346 -44.2205 -44.2201 -44.2187 -44.2187 -44.2121 -44.2121
   -44.1953 -44.1953 -44.1929 -44.1929 -44.1872 -44.1866 -44.1837 -44.1836
   -44.1831 -44.1827 -44.1427 -44.1422 -44.1179 -44.1159 -44.1082 -44.1075
   -16.1970 -16.1293 -16.0365 -15.9854 -15.9490 -15.8869 -15.8660 -15.7920
   -15.6904 -15.6597 -15.5867 -15.5612 -15.5511 -15.5067 -15.4986 -15.4462
   -15.4129 -15.3991 -15.3976 -15.3567 -15.3549 -15.3468 -15.3438 -15.3245
   -15.2993 -15.2938 -15.2735 -15.2689 -15.2676 -15.2485 -15.2451 -15.2157
   -15.2138 -15.1894 -15.1851 -15.1760 -15.1700 -15.1510 -15.1455 -15.1249
   -15.1208 -15.1105 -15.0888 -15.0840 -15.0581 -15.0452 -15.0315 -14.9673
   -14.9508 -14.9435 -14.8862 -14.8826 -14.8111 -14.7840  -7.6559  -7.6216
    -7.5393  -7.5355  -7.4841  -7.4540  -7.4446  -7.3111  -7.2941  -7.1269
    -7.0834  -7.0484  -7.0063  -7.0046  -6.9818  -6.9718  -6.9073  -6.8934
    -6.8501  -6.8402  -6.8234  -6.7549  -6.7264  -6.7097  -6.7022  -6.6850
    -6.6558  -6.6473  -6.6343  -6.5753  -6.5722  -6.5604  -6.5350  -6.4924
    -6.4613  -6.4424  -6.4161  -6.4091  -6.3859  -6.3695  -6.3538  -6.3256
    -6.2968  -6.2925  -6.2731  -6.2282  -6.2237  -6.1895  -6.1587  -6.1489
    -6.1409  -6.1169  -6.0826  -6.0580  -5.9951  -5.9886  -5.9860  -5.9715
    -5.9491  -5.9333  -5.9196  -5.8058  -5.7686  -5.6940  -5.6674  -5.6535
    -5.6257  -5.5899  -5.5609  -5.5583  -5.5496  -5.5249  -5.5030  -5.4853
    -5.4809  -5.4707  -5.4653  -5.4369  -5.4083  -5.4048  -5.3692  -5.2970
    -5.2886  -5.2631  -5.2472  -5.2225  -5.2182  -5.1987  -5.1816  -5.1768
    -5.1552  -5.1418  -5.1276  -5.0989  -5.0722  -5.0697  -5.0346  -5.0230
    -5.0053  -4.9652  -4.9558  -4.9346  -4.9163  -4.9095  -4.8599  -4.8465
    -4.8338  -4.8190  -4.8185  -4.7014  -4.7005  -4.6965  -4.6759  -4.6606
    -4.6517  -4.6382  -4.6214  -4.6065  -4.5625  -4.5380  -4.5182  -4.5182
    -4.4983  -4.4526  -4.4301  -4.4251  -4.4029  -4.3893  -4.3737  -4.3469
    -4.3329  -4.3193  -4.2882  -4.2832  -4.2715  -4.2417  -4.2397  -4.2335
    -4.2114  -4.1884  -4.1567  -4.1191  -4.0960  -4.0835  -4.0733  -4.0449
    -4.0359  -4.0344  -4.0235  -3.9887  -3.9599  -3.9531  -3.9477  -3.9257
    -3.9075  -3.8397  -3.8393  -3.8281  -3.8159  -3.6946  -3.6881  -3.6638
    -1.5648  -1.5529  -1.5175  -1.5092  -1.4944  -1.4779  -1.4703  -1.4393
    -1.4255  -1.4187  -1.3994  -1.3938  -1.3753  -1.3563  -1.3495  -1.3323
    -1.3019  -1.2937  -1.2828  -1.2716  -1.2601  -1.2462  -1.2449  -1.2303
    -1.2272  -1.2093  -1.1932  -1.1851  -1.1680  -1.1612  -1.1532  -1.1390
    -1.1342  -1.1147  -1.1117  -1.1033  -1.0981  -1.0864  -1.0848  -1.0787
    -1.0718  -1.0484  -1.0357  -1.0248  -1.0203  -1.0181  -1.0165  -0.9967
    -0.9954  -0.9754  -0.9670  -0.9644  -0.9338  -0.9180

          k =-0.5000-0.2887 0.0000 (****** PWs)   bands (ev):

   -73.0514 -72.9791 -72.9789 -72.9729 -72.9723 -72.9068 -72.9067 -72.8952
   -72.8927 -72.8927 -72.8342 -72.8341 -72.8185 -72.8184 -72.8160 -72.8155
   -72.7427 -72.7427 -44.4525 -44.4182 -44.4149 -44.3883 -44.3870 -44.3789
   -44.3781 -44.3621 -44.3604 -44.3483 -44.3475 -44.3353 -44.3346 -44.3319
   -44.3316 -44.3122 -44.3120 -44.3005 -44.2981 -44.2981 -44.2841 -44.2839
   -44.2691 -44.2691 -44.2672 -44.2671 -44.2661 -44.2628 -44.2542 -44.2541
   -44.2347 -44.2346 -44.2205 -44.2201 -44.2187 -44.2187 -44.2121 -44.2121
   -44.1953 -44.1953 -44.1929 -44.1929 -44.1872 -44.1866 -44.1837 -44.1836
   -44.1831 -44.1827 -44.1427 -44.1422 -44.1179 -44.1159 -44.1082 -44.1075
   -16.2030 -16.1097 -16.0395 -16.0119 -15.9427 -15.8790 -15.8647 -15.7824
   -15.7185 -15.6250 -15.6028 -15.5562 -15.5502 -15.5026 -15.4978 -15.4448
   -15.4197 -15.4048 -15.4000 -15.3667 -15.3587 -15.3573 -15.3413 -15.3227
   -15.2959 -15.2867 -15.2762 -15.2665 -15.2557 -15.2413 -15.2332 -15.2220
   -15.2098 -15.1961 -15.1949 -15.1747 -15.1692 -15.1484 -15.1412 -15.1332
   -15.1257 -15.1035 -15.0910 -15.0829 -15.0579 -15.0443 -15.0339 -14.9681
   -14.9501 -14.9435 -14.8845 -14.8841 -14.8109 -14.7841  -7.6602  -7.6130
    -7.5599  -7.5198  -7.5122  -7.4525  -7.3886  -7.3482  -7.2767  -7.1262
    -7.0927  -7.0400  -7.0264  -7.0178  -6.9716  -6.9642  -6.9040  -6.8963
    -6.8598  -6.8362  -6.8145  -6.7656  -6.7284  -6.7138  -6.6856  -6.6589
    -6.6536  -6.6335  -6.6149  -6.5936  -6.5585  -6.5493  -6.5218  -6.4904
    -6.4887  -6.4679  -6.4547  -6.4273  -6.4234  -6.3850  -6.3346  -6.3213
    -6.3113  -6.2690  -6.2489  -6.2281  -6.1968  -6.1911  -6.1647  -6.1508
    -6.1299  -6.1097  -6.0951  -6.0783  -6.0434  -6.0242  -5.9739  -5.9616
    -5.9415  -5.8976  -5.8526  -5.8015  -5.7998  -5.6612  -5.6529  -5.6306
    -5.6238  -5.5997  -5.5759  -5.5702  -5.5478  -5.5333  -5.5140  -5.5022
    -5.4788  -5.4664  -5.4467  -5.4238  -5.4159  -5.3754  -5.3517  -5.3207
    -5.2996  -5.2812  -5.2441  -5.2372  -5.2215  -5.2113  -5.1891  -5.1675
    -5.1527  -5.1268  -5.1180  -5.0942  -5.0812  -5.0780  -5.0567  -5.0303
    -5.0066  -4.9539  -4.9361  -4.9303  -4.9219  -4.8891  -4.8740  -4.8604
    -4.8415  -4.8227  -4.8138  -4.7910  -4.7028  -4.6878  -4.6724  -4.6712
    -4.6429  -4.6241  -4.5896  -4.5751  -4.5626  -4.5412  -4.4953  -4.4934
    -4.4856  -4.4687  -4.4447  -4.4436  -4.4237  -4.4090  -4.3936  -4.3436
    -4.3241  -4.3057  -4.2967  -4.2829  -4.2645  -4.2505  -4.2346  -4.2134
    -4.1744  -4.1587  -4.1525  -4.1260  -4.1059  -4.0882  -4.0834  -4.0608
    -4.0589  -4.0333  -4.0071  -3.9837  -3.9608  -3.9522  -3.9471  -3.9087
    -3.9020  -3.8662  -3.8333  -3.8102  -3.7740  -3.7672  -3.7068  -3.6392
    -1.5548  -1.5498  -1.5214  -1.5108  -1.4885  -1.4709  -1.4665  -1.4514
    -1.4348  -1.4206  -1.4001  -1.3837  -1.3773  -1.3583  -1.3517  -1.3307
    -1.3162  -1.3032  -1.2833  -1.2782  -1.2619  -1.2519  -1.2493  -1.2323
    -1.2206  -1.1998  -1.1878  -1.1798  -1.1694  -1.1573  -1.1482  -1.1377
    -1.1312  -1.1272  -1.1208  -1.1008  -1.0923  -1.0828  -1.0775  -1.0697
    -1.0546  -1.0478  -1.0343  -1.0270  -1.0266  -1.0201  -1.0047  -0.9979
    -0.9957  -0.9811  -0.9715  -0.9558  -0.9376  -0.9263

     highest occupied, lowest unoccupied level (ev):    -3.3258   -1.5648

!    total energy              =  -24931.09625332 Ry
     total all-electron energy =    -24931.096253 Ry
     estimated scf accuracy    <          1.9E-11 Ry

     The total energy is the sum of the following terms:
     one-electron contribution =  -25177.15501390 Ry
     hartree contribution      =   12523.66790928 Ry
     xc contribution           =    -743.78103804 Ry
     ewald contribution        =    8913.20911809 Ry
     Hubbard energy            =       0.08204331 Ry
     one-center paw contrib.   =  -20447.11927205 Ry

     total magnetization       =    54.00 Bohr mag/cell
     absolute magnetization    =    65.42 Bohr mag/cell

     convergence has been achieved in  16 iterations

     negative rho (up, down):  1.304E-01 1.475E-01

     Forces acting on atoms (cartesian axes, Ry/au):

     atom    1 type  1   force =    -0.00111803   -0.00196013    0.00011983
     atom    2 type  3   force =    -0.00245686   -0.00776945    0.00226462
     atom    3 type  3   force =    -0.00550064   -0.00601658    0.00226540
     atom    4 type  2   force =     0.00487056   -0.02270564   -0.00065690
     atom    5 type  2   force =    -0.00320428   -0.00555879   -0.00949182
     atom    6 type  2   force =    -0.02210424   -0.00713706   -0.00065770
     atom    7 type  2   force =     0.00731219   -0.02442541   -0.00194495
     atom    8 type  2   force =     0.00246991    0.00427175    0.00888560
     atom    9 type  2   force =    -0.02481302   -0.00588351   -0.00194368
     atom   10 type  3   force =    -0.00176342   -0.00209840    0.00022934
     atom   11 type  3   force =    -0.00562067   -0.00546355    0.00214580
     atom   12 type  2   force =     0.00494311    0.00062454   -0.00970529
     atom   13 type  2   force =    -0.00289837   -0.00482850   -0.00926263
     atom   14 type  2   force =    -0.02182138   -0.00648103   -0.00078155
     atom   15 type  2   force =    -0.00560924    0.00087743    0.00924544
     atom   16 type  2   force =     0.00235626    0.00469255    0.00945662
     atom   17 type  2   force =    -0.02497709   -0.00541939   -0.00196059
     atom   18 type  3   force =    -0.00134510   -0.00138956   -0.00052510
     atom   19 type  3   force =    -0.01444102    0.02876926    0.00308870
     atom   20 type  2   force =     0.00466494    0.00073095   -0.00975768
     atom   21 type  2   force =    -0.00418109    0.00236419   -0.00760124
     atom   22 type  2   force =    -0.01977358   -0.00451912    0.00137925
     atom   23 type  2   force =    -0.00560597    0.00077190    0.00953190
     atom   24 type  2   force =    -0.00279668    0.01174644    0.00748416
     atom   25 type  2   force =    -0.02316329    0.00011900   -0.00335610
     atom   26 type  3   force =    -0.00192390   -0.00759389    0.00214606
     atom   27 type  3   force =    -0.00093160   -0.00259114    0.00023056
     atom   28 type  2   force =     0.00529678   -0.02213226   -0.00077995
     atom   29 type  2   force =    -0.00272699   -0.00493085   -0.00925439
     atom   30 type  2   force =    -0.00195512    0.00455799   -0.00971249
     atom   31 type  2   force =     0.00779570   -0.02433421   -0.00196082
     atom   32 type  2   force =     0.00290710    0.00435040    0.00946086
     atom   33 type  2   force =     0.00355898   -0.00442533    0.00923687
     atom   34 type  3   force =    -0.00116557   -0.00194979    0.00011889
     atom   35 type  2   force =     0.00631219   -0.00057507   -0.01118367
     atom   36 type  2   force =    -0.00443714   -0.00418484   -0.01051389
     atom   37 type  2   force =    -0.00172048    0.00533133   -0.00985460
     atom   38 type  2   force =    -0.00596288   -0.00078514    0.01060733
     atom   39 type  2   force =     0.00170213    0.00643707    0.01130706
     atom   40 type  2   force =     0.00336650   -0.00395333    0.00928984
     atom   41 type  3   force =    -0.00067364   -0.00121464   -0.00063947
     atom   42 type  3   force =    -0.00990730    0.03240432    0.00109847
     atom   43 type  2   force =     0.00515109    0.00126351   -0.00990781
     atom   44 type  2   force =    -0.00376777    0.00280904   -0.00757549
     atom   45 type  2   force =    -0.00022067    0.00755275   -0.00794206
     atom   46 type  2   force =    -0.00513551    0.00081503    0.00955771
     atom   47 type  2   force =    -0.00238078    0.01192814    0.00801982
     atom   48 type  2   force =     0.00497913    0.00145631    0.00795473
     atom   49 type  3   force =     0.03213223    0.00187617    0.00308797
     atom   50 type  3   force =    -0.00053541   -0.00185978   -0.00052499
     atom   51 type  2   force =     0.00597327   -0.01937609    0.00137971
     atom   52 type  2   force =     0.00414501   -0.00244265   -0.00760068
     atom   53 type  2   force =    -0.00170391    0.00439927   -0.00975509
     atom   54 type  2   force =     0.01168608   -0.01999643   -0.00335822
     atom   55 type  2   force =     0.01157722    0.00344730    0.00748440
     atom   56 type  2   force =     0.00346478   -0.00447199    0.00953131
     atom   57 type  3   force =     0.03301051    0.00761740    0.00109744
     atom   58 type  3   force =    -0.00068183   -0.00117786   -0.00063599
     atom   59 type  2   force =     0.00665036    0.00359557   -0.00794158
     atom   60 type  2   force =     0.00435961   -0.00185979   -0.00757817
     atom   61 type  2   force =    -0.00043457    0.00668764   -0.01122041
     atom   62 type  2   force =    -0.00122579    0.00504820    0.00795219
     atom   63 type  2   force =     0.01152357    0.00390102    0.00801051
     atom   64 type  2   force =     0.00519913   -0.00389186    0.01088397
     atom   65 type  3   force =     0.03345601    0.00837306    0.00038848
     atom   66 type  3   force =    -0.00947880    0.03316401    0.00038904
     atom   67 type  2   force =     0.00635841    0.00364907   -0.00798417
     atom   68 type  2   force =     0.00304855    0.00527270   -0.00612704
     atom   69 type  2   force =    -0.00002314    0.00732770   -0.00799267
     atom   70 type  2   force =    -0.00129149    0.00481245    0.00826721
     atom   71 type  2   force =     0.00641583    0.01110309    0.00582967
     atom   72 type  2   force =     0.00479113    0.00125449    0.00826208

     Total force =     0.138261     Total SCF correction =     0.000005


     Computing stress (Cartesian axis) and pressure


     negative rho (up, down):  1.304E-01 1.475E-01
          total   stress  (Ry/bohr**3)                   (kbar)     P=        1.89
   0.00001273  -0.00000122   0.00000070            1.87       -0.18        0.10
  -0.00000122   0.00001133   0.00000121           -0.18        1.67        0.18
   0.00000070   0.00000121   0.00001449            0.10        0.18        2.13


     Writing all to output data dir ./Cr_0.2_0/Cr_0_0.save/ :
     XML data file, charge density, pseudopotentials, collected wavefunctions

     init_run     :    169.72s CPU     99.25s WALL (       1 calls)
     electrons    :   4156.91s CPU   2243.44s WALL (       1 calls)
     forces       :    145.38s CPU     77.54s WALL (       1 calls)
     stress       :    848.34s CPU    445.05s WALL (       1 calls)

     Called by init_run:
     wfcinit      :    151.36s CPU     79.66s WALL (       1 calls)
     potinit      :      3.54s CPU      4.02s WALL (       1 calls)
     hinit0       :      2.30s CPU      2.53s WALL (       1 calls)

     Called by electrons:
     c_bands      :   3568.12s CPU   1891.16s WALL (      17 calls)
     sum_band     :    522.97s CPU    294.80s WALL (      17 calls)
     v_of_rho     :     21.02s CPU     17.95s WALL (      17 calls)
     newd         :     31.05s CPU     30.50s WALL (      17 calls)
     PAW_pot      :     11.15s CPU      7.90s WALL (      17 calls)
     mix_rho      :      3.38s CPU      2.68s WALL (      17 calls)

     Called by c_bands:
     init_us_2    :     29.11s CPU     15.01s WALL (     320 calls)
     init_us_2:cp :     29.11s CPU     15.01s WALL (     320 calls)
     cegterg      :   3533.11s CPU   1870.06s WALL (     136 calls)

     Called by *egterg:
     cdiaghg      :    352.51s CPU    201.08s WALL (     729 calls)
     h_psi        :   2132.75s CPU   1098.26s WALL (     745 calls)
     s_psi        :    254.12s CPU    128.05s WALL (     769 calls)
     g_psi        :      7.75s CPU      3.94s WALL (     601 calls)

     Called by h_psi:
     h_psi:calbec :    269.75s CPU    139.08s WALL (     745 calls)
     vloc_psi     :   1590.36s CPU    812.09s WALL (     745 calls)
     add_vuspsi   :    233.70s CPU    117.90s WALL (     745 calls)
     vhpsi        :     32.62s CPU     17.85s WALL (     745 calls)

     General routines
     calbec       :    808.69s CPU    421.68s WALL (   29562 calls)
     fft          :     21.14s CPU     20.90s WALL (     465 calls)
     ffts         :      2.34s CPU      1.90s WALL (      68 calls)
     fftw         :   1396.67s CPU    716.75s WALL (  318038 calls)
     interpolate  :      2.99s CPU      2.50s WALL (      34 calls)

     Parallel routines

     Hubbard U routines
     new_ns       :      7.70s CPU      5.48s WALL (      17 calls)
     vhpsi        :     32.62s CPU     17.85s WALL (     745 calls)
     force_hub    :    112.89s CPU     59.03s WALL (       1 calls)
                                        0.00s GPU  (       1 calls)
     stres_hub    :    309.16s CPU    160.19s WALL (       1 calls)
                                        0.00s GPU  (       1 calls)

     PWSCF        :      1h29m CPU  48m26.57s WALL


   This run was terminated on:  22:32:21   4Sep2025            

=------------------------------------------------------------------------------=
   JOB DONE.
=------------------------------------------------------------------------------=
[1757021541.853345] [node028:916512:0]          mpool.c:43   UCX  WARN  object 0x61317c0 was not returned to mpool ucp_requests
[1757021541.853364] [node028:916512:0]          mpool.c:43   UCX  WARN  object 0x611de00 was not returned to mpool ucp_requests
[1757021541.853366] [node028:916512:0]          mpool.c:43   UCX  WARN  object 0x61202c0 was not returned to mpool ucp_requests
[1757021541.853367] [node028:916512:0]          mpool.c:43   UCX  WARN  object 0x6122400 was not returned to mpool ucp_requests
[1757021541.853368] [node028:916512:0]          mpool.c:43   UCX  WARN  object 0x61264c0 was not returned to mpool ucp_requests
[1757021541.853370] [node028:916512:0]          mpool.c:43   UCX  WARN  object 0x3494a40 was not returned to mpool ucp_requests
[1757021541.853371] [node028:916512:0]          mpool.c:43   UCX  WARN  object 0x3495d80 was not returned to mpool ucp_requests
[1757021541.853372] [node028:916512:0]          mpool.c:43   UCX  WARN  object 0x349ba40 was not returned to mpool ucp_requests
[1757021541.853373] [node028:916512:0]          mpool.c:43   UCX  WARN  object 0x349cbc0 was not returned to mpool ucp_requests
[1757021541.853374] [node028:916512:0]          mpool.c:43   UCX  WARN  object 0x349d800 was not returned to mpool ucp_requests
[1757021541.853375] [node028:916512:0]          mpool.c:43   UCX  WARN  object 0x349fcc0 was not returned to mpool ucp_requests
[1757021541.853696] [node028:916508:0]          mpool.c:43   UCX  WARN  object 0x5a97800 was not returned to mpool ucp_requests
[1757021541.853715] [node028:916508:0]          mpool.c:43   UCX  WARN  object 0x5a81100 was not returned to mpool ucp_requests
[1757021541.853717] [node028:916508:0]          mpool.c:43   UCX  WARN  object 0x5a819c0 was not returned to mpool ucp_requests
[1757021541.853719] [node028:916508:0]          mpool.c:43   UCX  WARN  object 0x5a83240 was not returned to mpool ucp_requests
[1757021541.853720] [node028:916508:0]          mpool.c:43   UCX  WARN  object 0x2de70c0 was not returned to mpool ucp_requests
[1757021541.853721] [node028:916508:0]          mpool.c:43   UCX  WARN  object 0x2deb500 was not returned to mpool ucp_requests
[1757021541.853723] [node028:916508:0]          mpool.c:43   UCX  WARN  object 0x2df1c40 was not returned to mpool ucp_requests
[1757021541.853778] [node028:916496:0]          mpool.c:43   UCX  WARN  object 0x5b39cc0 was not returned to mpool ucp_requests
[1757021541.853798] [node028:916496:0]          mpool.c:43   UCX  WARN  object 0x5b3a900 was not returned to mpool ucp_requests
[1757021541.853799] [node028:916496:0]          mpool.c:43   UCX  WARN  object 0x5b3b540 was not returned to mpool ucp_requests
[1757021541.853801] [node028:916496:0]          mpool.c:43   UCX  WARN  object 0x5b3e100 was not returned to mpool ucp_requests
[1757021541.853802] [node028:916496:0]          mpool.c:43   UCX  WARN  object 0x5b3f600 was not returned to mpool ucp_requests
[1757021541.853804] [node028:916496:0]          mpool.c:43   UCX  WARN  object 0x5b2b200 was not returned to mpool ucp_requests
[1757021541.853805] [node028:916496:0]          mpool.c:43   UCX  WARN  object 0x5b2ce00 was not returned to mpool ucp_requests
[1757021541.853806] [node028:916496:0]          mpool.c:43   UCX  WARN  object 0x5b2dc00 was not returned to mpool ucp_requests
[1757021541.853807] [node028:916496:0]          mpool.c:43   UCX  WARN  object 0x5b2e4c0 was not returned to mpool ucp_requests
[1757021541.853808] [node028:916496:0]          mpool.c:43   UCX  WARN  object 0x5b2ef40 was not returned to mpool ucp_requests
[1757021541.853810] [node028:916496:0]          mpool.c:43   UCX  WARN  object 0x2e9f100 was not returned to mpool ucp_requests
[1757021541.853811] [node028:916496:0]          mpool.c:43   UCX  WARN  object 0x2ea0440 was not returned to mpool ucp_requests
[1757021541.853812] [node028:916496:0]          mpool.c:43   UCX  WARN  object 0x2ea15c0 was not returned to mpool ucp_requests
[1757021541.853813] [node028:916496:0]          mpool.c:43   UCX  WARN  object 0x2ea1b00 was not returned to mpool ucp_requests
[1757021541.853814] [node028:916496:0]          mpool.c:43   UCX  WARN  object 0x2ea7280 was not returned to mpool ucp_requests
