
     Program PWSCF v.7.3 starts on  4Sep2025 at 12:13:50 

     This program is part of the open-source Quantum ESPRESSO suite
     for quantum simulation of materials; please cite
         "P. Giannozzi et al., J. Phys.:Condens. Matter 21 395502 (2009);
         "P. Giannozzi et al., J. Phys.:Condens. Matter 29 465901 (2017);
         "P. Giannozzi et al., J. Chem. Phys. 152 154105 (2020);
          URL http://www.quantum-espresso.org", 
     in publications or presentations arising from this work. More details at
     http://www.quantum-espresso.org/quote

     Parallel version (MPI & OpenMP), running on     256 processor cores
     Number of MPI processes:               128
     Threads/MPI process:                     2

     MPI processes distributed on     2 nodes
     435402 MiB available memory on the printing compute node when the environment starts

     Reading input from Cr_0.1_0.in
Warning: card &CELL ignored
Warning: card / ignored
Warning: card &FCP ignored
Warning: card / ignored
Warning: card &RISM ignored
Warning: card / ignored

     Current dimensions of program PWSCF are:
     Max number of different atomic species (ntypx) = 10
     Max number of k-points (npk) =  40000
     Max angular momentum in pseudopotentials (lmaxx) =  4
read_pp_mesh; mismatch in mesh size, discarding the one in header
read_pp_mesh; mismatch in mesh size, discarding the one in header
read_pp_mesh; mismatch in mesh size, discarding the one in header
     file Cr.GGA-PBE-paw.UPF: wavefunction(s)  3S 4S 3P 4P 3D 4D renormalized
     file I.GGA-PBE-paw.UPF: wavefunction(s)  6S 6P renormalized
     file Cr.GGA-PBE-paw.UPF: wavefunction(s)  3S 4S 3P 4P 3D 4D renormalized

     IMPORTANT: XC functional enforced from input :
     Exchange-correlation= PBE
                           (   1   4   3   4   0   0   0)
     Any further DFT definition will be discarded
     Please, verify this is what you really want


     R & G space division:  proc/nbgrp/npool/nimage =     128
     Subspace diagonalization in iterative solution of the eigenvalue problem:
     one sub-group per band group will be used
     ELPA distributed-memory algorithm (size of sub-group:  3*  3 procs)


     Parallelization info
     --------------------
     sticks:   dense  smooth     PW     G-vecs:    dense   smooth      PW
     Min         509     305     78               140391    65241    8388
     Max         510     306     79               140404    65254    8400
     Sum       65263   39121   9985             17971031  8351671 1074593

     Using Slab Decomposition



     bravais-lattice index     =            0
     lattice parameter (alat)  =      39.7293  a.u.
     unit-cell volume          =   72410.5124 (a.u.)^3
     number of atoms/cell      =           72
     number of atomic types    =            3
     number of electrons       =       630.00 (up: 342.00, down: 288.00)
     number of Kohn-Sham states=          342
     kinetic-energy cutoff     =      90.0000  Ry
     charge density cutoff     =     600.0000  Ry
     scf convergence threshold =      1.0E-10
     mixing beta               =       0.3000
     number of iterations used =            8  plain     mixing
     Exchange-correlation= PBE
                           (   1   4   3   4   0   0   0)
     Hubbard projectors: atomic
     Hubbard parameters of DFT+U (Dudarev formulation) in eV:
     U(Cr1-3d) =  0.0000
     J0(Cr1-3d) =  0.0000
     alpha(Cr1-3d) =  0.1000

     Internal variables: lda_plus_u =T, lda_plus_u_kind = 0

     celldm(1)=  39.729285  celldm(2)=   0.000000  celldm(3)=   0.000000
     celldm(4)=   0.000000  celldm(5)=   0.000000  celldm(6)=   0.000000

     crystal axes: (cart. coord. in units of alat)
               a(1) = (   1.000000   0.000000   0.000000 )  
               a(2) = (  -0.500000   0.866025   0.000000 )  
               a(3) = (   0.000000   0.000000   1.333333 )  

     reciprocal axes: (cart. coord. in units 2 pi/alat)
               b(1) = (  1.000000  0.577350 -0.000000 )  
               b(2) = (  0.000000  1.154701  0.000000 )  
               b(3) = (  0.000000 -0.000000  0.750000 )  


     PseudoPot. # 1 for Cr read from file:
     ./Cr.GGA-PBE-paw.UPF
     MD5 check sum: 389087661106aa6caf57455f2e439c97
     Pseudo is Projector augmented-wave + core cor, Zval = 14.0
     Generated using ATOMPAW code
     Shape of augmentation charge: SINC**2
     Using radial grid of 2342 points,  6 beta functions with: 
                l(1) =   0
                l(2) =   0
                l(3) =   1
                l(4) =   1
                l(5) =   2
                l(6) =   2
     Q(r) pseudized with 0 coefficients 


     PseudoPot. # 2 for I  read from file:
     ./I.GGA-PBE-paw.UPF
     MD5 check sum: 736bb4145856fa7ed29d0984862794a4
     Pseudo is Projector augmented-wave + core cor, Zval =  7.0
     Generated using ATOMPAW code
     Shape of augmentation charge: SINC**2
     Using radial grid of 2342 points,  4 beta functions with: 
                l(1) =   0
                l(2) =   0
                l(3) =   1
                l(4) =   1
     Q(r) pseudized with 0 coefficients 


     PseudoPot. # 3 for Cr read from file:
     ./Cr.GGA-PBE-paw.UPF
     MD5 check sum: 389087661106aa6caf57455f2e439c97
     Pseudo is Projector augmented-wave + core cor, Zval = 14.0
     Generated using ATOMPAW code
     Shape of augmentation charge: SINC**2
     Using radial grid of 2342 points,  6 beta functions with: 
                l(1) =   0
                l(2) =   0
                l(3) =   1
                l(4) =   1
                l(5) =   2
                l(6) =   2
     Q(r) pseudized with 0 coefficients 


     atomic species   valence    mass     pseudopotential
     Cr1              14.00    51.99610     Cr( 1.00)
     I                 7.00   126.90447     I ( 1.00)
     Cr               14.00    51.99610     Cr( 1.00)

     Starting magnetic structure 
     atomic species   magnetization
     Cr1             0.214
     I               0.000
     Cr              0.214

     No symmetry found



   Cartesian axes

     site n.     atom                  positions (alat units)
         1        Cr1    tau(   1) = (   0.3271041   0.3777073   0.4295967  )
         2        Cr     tau(   2) = (   0.1635521   0.0944268   0.4295967  )
         3        Cr     tau(   3) = (   0.0000000   0.1888536   0.4295967  )
         4        I      tau(   4) = (   0.2103614  -0.0000006   0.3558127  )
         5        I      tau(   5) = (   0.0583708   0.1011024   0.3558127  )
         6        I      tau(   6) = (  -0.1051802   0.1821787   0.3558127  )
         7        I      tau(   7) = (   0.1167427  -0.0000005   0.5033806  )
         8        I      tau(   8) = (   0.1051802   0.1821786   0.5033806  )
         9        I      tau(   9) = (  -0.0583709   0.1011024   0.5033806  )
        10        Cr     tau(  10) = (  -0.0000000   0.3777073   0.4295967  )
        11        Cr     tau(  11) = (  -0.1635521   0.4721341   0.4295967  )
        12        I      tau(  12) = (   0.0468094   0.2832798   0.3558127  )
        13        I      tau(  13) = (  -0.1051813   0.3843829   0.3558127  )
        14        I      tau(  14) = (  -0.2687322   0.4654591   0.3558127  )
        15        I      tau(  15) = (  -0.0468094   0.2832799   0.5033806  )
        16        I      tau(  16) = (  -0.0583718   0.4654591   0.5033806  )
        17        I      tau(  17) = (  -0.2219229   0.3843829   0.5033806  )
        18        Cr     tau(  18) = (  -0.1635521   0.6609878   0.4295967  )
        19        Cr     tau(  19) = (  -0.3271041   0.7554146   0.4295967  )
        20        I      tau(  20) = (  -0.1167427   0.5665603   0.3558127  )
        21        I      tau(  21) = (  -0.2687333   0.6676634   0.3558127  )
        22        I      tau(  22) = (  -0.4322843   0.7487396   0.3558127  )
        23        I      tau(  23) = (  -0.2103614   0.5665604   0.5033806  )
        24        I      tau(  24) = (  -0.2219239   0.7487396   0.5033806  )
        25        I      tau(  25) = (  -0.3854750   0.6676633   0.5033806  )
        26        Cr     tau(  26) = (   0.4906562   0.0944268   0.4295967  )
        27        Cr     tau(  27) = (   0.3271041   0.1888536   0.4295967  )
        28        I      tau(  28) = (   0.5374655  -0.0000006   0.3558127  )
        29        I      tau(  29) = (   0.3854749   0.1011024   0.3558127  )
        30        I      tau(  30) = (   0.2219239   0.1821787   0.3558127  )
        31        I      tau(  31) = (   0.4438468  -0.0000005   0.5033806  )
        32        I      tau(  32) = (   0.4322844   0.1821786   0.5033806  )
        33        I      tau(  33) = (   0.2687332   0.1011024   0.5033806  )
        34        Cr     tau(  34) = (   0.1635521   0.4721341   0.4295967  )
        35        I      tau(  35) = (   0.3739135   0.2832798   0.3558127  )
        36        I      tau(  36) = (   0.2219229   0.3843829   0.3558127  )
        37        I      tau(  37) = (   0.0583719   0.4654591   0.3558127  )
        38        I      tau(  38) = (   0.2802947   0.2832799   0.5033806  )
        39        I      tau(  39) = (   0.2687323   0.4654591   0.5033806  )
        40        I      tau(  40) = (   0.1051812   0.3843829   0.5033806  )
        41        Cr     tau(  41) = (   0.1635521   0.6609878   0.4295967  )
        42        Cr     tau(  42) = (   0.0000000   0.7554146   0.4295967  )
        43        I      tau(  43) = (   0.2103614   0.5665603   0.3558127  )
        44        I      tau(  44) = (   0.0583708   0.6676634   0.3558127  )
        45        I      tau(  45) = (  -0.1051802   0.7487396   0.3558127  )
        46        I      tau(  46) = (   0.1167427   0.5665604   0.5033806  )
        47        I      tau(  47) = (   0.1051802   0.7487396   0.5033806  )
        48        I      tau(  48) = (  -0.0583709   0.6676633   0.5033806  )
        49        Cr     tau(  49) = (   0.8177603   0.0944268   0.4295967  )
        50        Cr     tau(  50) = (   0.6542082   0.1888536   0.4295967  )
        51        I      tau(  51) = (   0.8645697  -0.0000006   0.3558127  )
        52        I      tau(  52) = (   0.7125790   0.1011024   0.3558127  )
        53        I      tau(  53) = (   0.5490281   0.1821787   0.3558127  )
        54        I      tau(  54) = (   0.7709509  -0.0000005   0.5033806  )
        55        I      tau(  55) = (   0.7593885   0.1821786   0.5033806  )
        56        I      tau(  56) = (   0.5958374   0.1011024   0.5033806  )
        57        Cr     tau(  57) = (   0.6542082   0.3777073   0.4295967  )
        58        Cr     tau(  58) = (   0.4906562   0.4721341   0.4295967  )
        59        I      tau(  59) = (   0.7010176   0.2832798   0.3558127  )
        60        I      tau(  60) = (   0.5490270   0.3843829   0.3558127  )
        61        I      tau(  61) = (   0.3854760   0.4654591   0.3558127  )
        62        I      tau(  62) = (   0.6073989   0.2832799   0.5033806  )
        63        I      tau(  63) = (   0.5958364   0.4654591   0.5033806  )
        64        I      tau(  64) = (   0.4322853   0.3843829   0.5033806  )
        65        Cr     tau(  65) = (   0.4906562   0.6609878   0.4295967  )
        66        Cr     tau(  66) = (   0.3271041   0.7554146   0.4295967  )
        67        I      tau(  67) = (   0.5374655   0.5665603   0.3558127  )
        68        I      tau(  68) = (   0.3854749   0.6676634   0.3558127  )
        69        I      tau(  69) = (   0.2219239   0.7487396   0.3558127  )
        70        I      tau(  70) = (   0.4438468   0.5665604   0.5033806  )
        71        I      tau(  71) = (   0.4322844   0.7487396   0.5033806  )
        72        I      tau(  72) = (   0.2687332   0.6676633   0.5033806  )

     number of k points=     4
                       cart. coord. in units 2pi/alat
        k(    1) = (   0.0000000   0.0000000   0.0000000), wk =   0.2500000
        k(    2) = (   0.0000000  -0.5773503   0.0000000), wk =   0.2500000
        k(    3) = (   0.5000000  -0.2886751   0.0000000), wk =   0.2500000
        k(    4) = (  -0.5000000  -0.2886751   0.0000000), wk =   0.2500000

     Dense  grid: 17971031 G-vectors     FFT dimensions: ( 320, 320, 432)

     Smooth grid:  8351671 G-vectors     FFT dimensions: ( 240, 240, 320)

     Estimated max dynamical RAM per process >       1.67 GB

     Estimated total dynamical RAM >     213.14 GB
     Generating pointlists ...
     new r_m :   0.0531 (alat units)  2.1084 (a.u.) for type    1
     new r_m :   0.0531 (alat units)  2.1084 (a.u.) for type    2
     new r_m :   0.0531 (alat units)  2.1084 (a.u.) for type    3

     The initial density is read from file :
     ./Cr_0.1_0/Cr_0_0.save/charge-density


     negative rho (up, down):  1.304E-01 1.474E-01

     STARTING HUBBARD OCCUPATIONS:

     =================== HUBBARD OCCUPATIONS ===================
     ------------------------ ATOM    1 ------------------------
     Tr[ns(  1)] (up, down, total) =   4.25332  1.37309  5.62641
     Atomic magnetic moment for atom   1 =   2.88023
     SPIN  1
     eigenvalues:
       0.638  0.640  0.991  0.992  0.992
     eigenvectors (columns):
      -0.000  0.000 -0.955  0.236 -0.180
      -0.801  0.198  0.165  0.485 -0.238
      -0.198 -0.802 -0.031  0.257  0.501
       0.549 -0.135  0.240  0.709 -0.348
      -0.135 -0.547  0.046 -0.375 -0.734
     occupation matrix ns (before diag.):
       0.991  0.000 -0.000  0.000  0.000
       0.000  0.751 -0.000  0.165 -0.000
      -0.000 -0.000  0.752  0.000 -0.164
       0.000  0.165  0.000  0.879  0.000
       0.000 -0.000 -0.164  0.000  0.880
     SPIN  2
     eigenvalues:
       0.158  0.167  0.169  0.439  0.440
     eigenvectors (columns):
      -0.999  0.031 -0.025  0.000 -0.000
      -0.020 -0.549  0.128  0.794 -0.226
       0.010 -0.129 -0.547  0.226  0.795
      -0.030 -0.804  0.188 -0.543  0.154
      -0.014  0.188  0.805  0.154  0.541
     occupation matrix ns (before diag.):
       0.158 -0.000  0.000 -0.000 -0.000
      -0.000  0.353 -0.000 -0.127 -0.000
       0.000 -0.000  0.354 -0.000  0.126
      -0.000 -0.127 -0.000  0.254  0.000
      -0.000 -0.000  0.126  0.000  0.255

     Number of occupied Hubbard levels =    5.6264

     Atomic wfc used for Hubbard projectors are NOT orthogonalized

     Starting wfcs are  756 atomic wfcs
     Checking if some PAW data can be deallocated... 

     total cpu time spent up to now is      102.4 secs

     Self-consistent Calculation

     iteration #  1     ecut=    90.00 Ry     beta= 0.30
     Davidson diagonalization with overlap
     ethr =  1.00E-05,  avg # of iterations =  8.6

     =================== HUBBARD OCCUPATIONS ===================
     ------------------------ ATOM    1 ------------------------
     Tr[ns(  1)] (up, down, total) =   4.23120  1.33772  5.56892
     Atomic magnetic moment for atom   1 =   2.89347
     SPIN  1
     eigenvalues:
       0.628  0.629  0.991  0.991  0.992
     eigenvectors (columns):
      -0.000  0.000 -0.945  0.258 -0.199
      -0.800  0.200  0.181  0.477 -0.242
      -0.200 -0.801 -0.032  0.265  0.497
       0.548 -0.137  0.265  0.697 -0.354
      -0.137 -0.547  0.047 -0.387 -0.728
     occupation matrix ns (before diag.):
       0.991  0.000 -0.000  0.000  0.000
       0.000  0.744 -0.000  0.170 -0.000
      -0.000 -0.000  0.745  0.000 -0.169
       0.000  0.170  0.000  0.875  0.000
       0.000 -0.000 -0.169  0.000  0.876
     SPIN  2
     eigenvalues:
       0.152  0.161  0.163  0.430  0.431
     eigenvectors (columns):
      -0.999  0.029 -0.024  0.000 -0.000
      -0.019 -0.550  0.127  0.794 -0.226
       0.009 -0.128 -0.548  0.226  0.795
      -0.028 -0.804  0.186 -0.543  0.154
      -0.014  0.186  0.805  0.154  0.541
     occupation matrix ns (before diag.):
       0.152 -0.000  0.000 -0.000 -0.000
      -0.000  0.345 -0.000 -0.125 -0.000
       0.000 -0.000  0.346 -0.000  0.125
      -0.000 -0.125 -0.000  0.247  0.000
      -0.000 -0.000  0.125  0.000  0.248

     Number of occupied Hubbard levels =    5.5689

     Threshold (ethr) on eigenvalues was too large:
     Diagonalizing with lowered threshold

     Davidson diagonalization with overlap
     ethr =  1.83E-07,  avg # of iterations =  2.8

     negative rho (up, down):  1.305E-01 1.475E-01

     total cpu time spent up to now is      600.6 secs

     total energy              =  -24931.13688454 Ry
     estimated scf accuracy    <       0.00115437 Ry

     total magnetization       =    54.00 Bohr mag/cell
     absolute magnetization    =    65.39 Bohr mag/cell

     iteration #  2     ecut=    90.00 Ry     beta= 0.30
     Davidson diagonalization with overlap
     ethr =  1.83E-07,  avg # of iterations =  6.1

     negative rho (up, down):  1.304E-01 1.475E-01

     total cpu time spent up to now is      749.9 secs

     total energy              =  -24931.13699212 Ry
     estimated scf accuracy    <       0.00357806 Ry

     total magnetization       =    54.00 Bohr mag/cell
     absolute magnetization    =    65.42 Bohr mag/cell

     iteration #  3     ecut=    90.00 Ry     beta= 0.30
     Davidson diagonalization with overlap
     ethr =  1.83E-07,  avg # of iterations =  5.0

     negative rho (up, down):  1.304E-01 1.475E-01

     total cpu time spent up to now is      872.9 secs

     total energy              =  -24931.13735307 Ry
     estimated scf accuracy    <       0.00000409 Ry

     total magnetization       =    54.00 Bohr mag/cell
     absolute magnetization    =    65.40 Bohr mag/cell

     iteration #  4     ecut=    90.00 Ry     beta= 0.30
     Davidson diagonalization with overlap
     ethr =  6.50E-10,  avg # of iterations =  6.1

     negative rho (up, down):  1.304E-01 1.475E-01

     total cpu time spent up to now is     1045.1 secs

     total energy              =  -24931.13735701 Ry
     estimated scf accuracy    <       0.00000314 Ry

     total magnetization       =    54.00 Bohr mag/cell
     absolute magnetization    =    65.40 Bohr mag/cell

     iteration #  5     ecut=    90.00 Ry     beta= 0.30
     Davidson diagonalization with overlap
     ethr =  4.98E-10,  avg # of iterations =  2.5

     negative rho (up, down):  1.304E-01 1.475E-01

     total cpu time spent up to now is     1149.9 secs

     total energy              =  -24931.13735755 Ry
     estimated scf accuracy    <       0.00000119 Ry

     total magnetization       =    54.00 Bohr mag/cell
     absolute magnetization    =    65.41 Bohr mag/cell

     iteration #  6     ecut=    90.00 Ry     beta= 0.30
     Davidson diagonalization with overlap
     ethr =  1.88E-10,  avg # of iterations =  3.5

     negative rho (up, down):  1.304E-01 1.475E-01

     total cpu time spent up to now is     1267.5 secs

     total energy              =  -24931.13735781 Ry
     estimated scf accuracy    <       0.00000059 Ry

     total magnetization       =    54.00 Bohr mag/cell
     absolute magnetization    =    65.41 Bohr mag/cell

     iteration #  7     ecut=    90.00 Ry     beta= 0.30
     Davidson diagonalization with overlap
     ethr =  9.44E-11,  avg # of iterations =  2.4

     negative rho (up, down):  1.304E-01 1.475E-01

     total cpu time spent up to now is     1362.1 secs

     total energy              =  -24931.13735787 Ry
     estimated scf accuracy    <       0.00000024 Ry

     total magnetization       =    54.00 Bohr mag/cell
     absolute magnetization    =    65.41 Bohr mag/cell

     iteration #  8     ecut=    90.00 Ry     beta= 0.30
     Davidson diagonalization with overlap
     ethr =  3.76E-11,  avg # of iterations =  3.9

     negative rho (up, down):  1.304E-01 1.475E-01

     total cpu time spent up to now is     1464.9 secs

     total energy              =  -24931.13735792 Ry
     estimated scf accuracy    <       0.00000003 Ry

     total magnetization       =    54.00 Bohr mag/cell
     absolute magnetization    =    65.41 Bohr mag/cell

     iteration #  9     ecut=    90.00 Ry     beta= 0.30
     Davidson diagonalization with overlap
     ethr =  4.21E-12,  avg # of iterations =  5.1

     negative rho (up, down):  1.304E-01 1.475E-01

     total cpu time spent up to now is     1604.1 secs

     total energy              =  -24931.13735793 Ry
     estimated scf accuracy    <       0.00000002 Ry

     total magnetization       =    54.00 Bohr mag/cell
     absolute magnetization    =    65.41 Bohr mag/cell

     iteration # 10     ecut=    90.00 Ry     beta= 0.30
     Davidson diagonalization with overlap
     ethr =  2.59E-12,  avg # of iterations =  3.9

     negative rho (up, down):  1.304E-01 1.475E-01

     total cpu time spent up to now is     1716.8 secs

     total energy              =  -24931.13735793 Ry
     estimated scf accuracy    <          5.1E-09 Ry

     total magnetization       =    54.00 Bohr mag/cell
     absolute magnetization    =    65.41 Bohr mag/cell

     iteration # 11     ecut=    90.00 Ry     beta= 0.30
     Davidson diagonalization with overlap
     ethr =  8.11E-13,  avg # of iterations =  5.2

     negative rho (up, down):  1.304E-01 1.475E-01

     total cpu time spent up to now is     1856.2 secs

     total energy              =  -24931.13735793 Ry
     estimated scf accuracy    <          4.0E-09 Ry

     total magnetization       =    54.00 Bohr mag/cell
     absolute magnetization    =    65.41 Bohr mag/cell

     iteration # 12     ecut=    90.00 Ry     beta= 0.30
     Davidson diagonalization with overlap
     ethr =  6.27E-13,  avg # of iterations =  3.0

     negative rho (up, down):  1.304E-01 1.475E-01

     total cpu time spent up to now is     1964.1 secs

     total energy              =  -24931.13735793 Ry
     estimated scf accuracy    <          4.5E-10 Ry

     total magnetization       =    54.00 Bohr mag/cell
     absolute magnetization    =    65.41 Bohr mag/cell

     iteration # 13     ecut=    90.00 Ry     beta= 0.30
     Davidson diagonalization with overlap
     ethr =  1.00E-13,  avg # of iterations =  5.2

     negative rho (up, down):  1.304E-01 1.475E-01

     total cpu time spent up to now is     2122.7 secs

     total energy              =  -24931.13735793 Ry
     estimated scf accuracy    <          7.6E-10 Ry

     total magnetization       =    54.00 Bohr mag/cell
     absolute magnetization    =    65.41 Bohr mag/cell

     iteration # 14     ecut=    90.00 Ry     beta= 0.30
     Davidson diagonalization with overlap
     ethr =  1.00E-13,  avg # of iterations =  3.2

     negative rho (up, down):  1.304E-01 1.475E-01

     Magnetic moment per site  (integrated on atomic sphere of radius R)
     atom   1 (R=0.053)  charge= 12.4057  magn=  2.9366
     atom   2 (R=0.053)  charge= 12.4086  magn=  2.9136
     atom   3 (R=0.053)  charge= 12.4086  magn=  2.9136
     atom   4 (R=0.053)  charge=  4.0328  magn= -0.0666
     atom   5 (R=0.053)  charge=  4.0497  magn= -0.0522
     atom   6 (R=0.053)  charge=  4.0328  magn= -0.0666
     atom   7 (R=0.053)  charge=  4.0248  magn= -0.0724
     atom   8 (R=0.053)  charge=  4.0502  magn= -0.0558
     atom   9 (R=0.053)  charge=  4.0248  magn= -0.0723
     atom  10 (R=0.053)  charge= 12.4124  magn=  2.9202
     atom  11 (R=0.053)  charge= 12.4091  magn=  2.9162
     atom  12 (R=0.053)  charge=  4.0513  magn= -0.0516
     atom  13 (R=0.053)  charge=  4.0498  magn= -0.0517
     atom  14 (R=0.053)  charge=  4.0336  magn= -0.0637
     atom  15 (R=0.053)  charge=  4.0499  magn= -0.0523
     atom  16 (R=0.053)  charge=  4.0513  magn= -0.0523
     atom  17 (R=0.053)  charge=  4.0253  magn= -0.0709
     atom  18 (R=0.053)  charge= 12.4122  magn=  2.9227
     atom  19 (R=0.053)  charge= 12.3252  magn=  3.0168
     atom  20 (R=0.053)  charge=  4.0507  magn= -0.0525
     atom  21 (R=0.053)  charge=  4.0444  magn= -0.0604
     atom  22 (R=0.053)  charge=  4.0302  magn= -0.0695
     atom  23 (R=0.053)  charge=  4.0499  magn= -0.0520
     atom  24 (R=0.053)  charge=  4.0486  magn= -0.0515
     atom  25 (R=0.053)  charge=  4.0214  magn= -0.0769
     atom  26 (R=0.053)  charge= 12.4090  magn=  2.9162
     atom  27 (R=0.053)  charge= 12.4124  magn=  2.9201
     atom  28 (R=0.053)  charge=  4.0336  magn= -0.0638
     atom  29 (R=0.053)  charge=  4.0498  magn= -0.0517
     atom  30 (R=0.053)  charge=  4.0513  magn= -0.0516
     atom  31 (R=0.053)  charge=  4.0253  magn= -0.0709
     atom  32 (R=0.053)  charge=  4.0513  magn= -0.0523
     atom  33 (R=0.053)  charge=  4.0499  magn= -0.0524
     atom  34 (R=0.053)  charge= 12.4128  magn=  2.9231
     atom  35 (R=0.053)  charge=  4.0528  magn= -0.0506
     atom  36 (R=0.053)  charge=  4.0508  magn= -0.0522
     atom  37 (R=0.053)  charge=  4.0520  magn= -0.0495
     atom  38 (R=0.053)  charge=  4.0515  magn= -0.0519
     atom  39 (R=0.053)  charge=  4.0533  magn= -0.0497
     atom  40 (R=0.053)  charge=  4.0506  magn= -0.0507
     atom  41 (R=0.053)  charge= 12.4124  magn=  2.9257
     atom  42 (R=0.053)  charge= 12.3292  magn=  3.0258
     atom  43 (R=0.053)  charge=  4.0514  magn= -0.0505
     atom  44 (R=0.053)  charge=  4.0448  magn= -0.0597
     atom  45 (R=0.053)  charge=  4.0486  magn= -0.0544
     atom  46 (R=0.053)  charge=  4.0507  magn= -0.0504
     atom  47 (R=0.053)  charge=  4.0495  magn= -0.0482
     atom  48 (R=0.053)  charge=  4.0467  magn= -0.0568
     atom  49 (R=0.053)  charge= 12.3252  magn=  3.0168
     atom  50 (R=0.053)  charge= 12.4122  magn=  2.9227
     atom  51 (R=0.053)  charge=  4.0302  magn= -0.0695
     atom  52 (R=0.053)  charge=  4.0444  magn= -0.0604
     atom  53 (R=0.053)  charge=  4.0507  magn= -0.0525
     atom  54 (R=0.053)  charge=  4.0214  magn= -0.0769
     atom  55 (R=0.053)  charge=  4.0486  magn= -0.0515
     atom  56 (R=0.053)  charge=  4.0499  magn= -0.0520
     atom  57 (R=0.053)  charge= 12.3291  magn=  3.0258
     atom  58 (R=0.053)  charge= 12.4125  magn=  2.9256
     atom  59 (R=0.053)  charge=  4.0486  magn= -0.0544
     atom  60 (R=0.053)  charge=  4.0448  magn= -0.0597
     atom  61 (R=0.053)  charge=  4.0523  magn= -0.0515
     atom  62 (R=0.053)  charge=  4.0467  magn= -0.0568
     atom  63 (R=0.053)  charge=  4.0495  magn= -0.0482
     atom  64 (R=0.053)  charge=  4.0515  magn= -0.0515
     atom  65 (R=0.053)  charge= 12.3290  magn=  3.0298
     atom  66 (R=0.053)  charge= 12.3290  magn=  3.0298
     atom  67 (R=0.053)  charge=  4.0479  magn= -0.0556
     atom  68 (R=0.053)  charge=  4.0397  magn= -0.0675
     atom  69 (R=0.053)  charge=  4.0479  magn= -0.0555
     atom  70 (R=0.053)  charge=  4.0471  magn= -0.0559
     atom  71 (R=0.053)  charge=  4.0465  magn= -0.0471
     atom  72 (R=0.053)  charge=  4.0471  magn= -0.0559

     total cpu time spent up to now is     2231.4 secs

     End of self-consistent calculation

     =================== HUBBARD OCCUPATIONS ===================
     ------------------------ ATOM    1 ------------------------
     Tr[ns(  1)] (up, down, total) =   4.24989  1.35397  5.60385
     Atomic magnetic moment for atom   1 =   2.89592
     SPIN  1
     eigenvalues:
       0.637  0.638  0.991  0.992  0.992
     eigenvectors (columns):
      -0.000  0.000 -0.958  0.227 -0.173
      -0.801  0.198  0.159  0.489 -0.236
      -0.198 -0.802 -0.030  0.253  0.503
       0.549 -0.135  0.231  0.713 -0.344
      -0.135 -0.547  0.045 -0.370 -0.737
     occupation matrix ns (before diag.):
       0.991  0.000 -0.000  0.000  0.000
       0.000  0.750 -0.000  0.166 -0.000
      -0.000 -0.000  0.751  0.000 -0.165
       0.000  0.166  0.000  0.878  0.000
       0.000 -0.000 -0.165  0.000  0.879
     SPIN  2
     eigenvalues:
       0.154  0.164  0.165  0.435  0.436
     eigenvectors (columns):
      -0.999  0.030 -0.024  0.000 -0.000
      -0.019 -0.549  0.128  0.794 -0.226
       0.010 -0.128 -0.548  0.226  0.795
      -0.029 -0.804  0.187 -0.543  0.154
      -0.014  0.188  0.805  0.154  0.541
     occupation matrix ns (before diag.):
       0.154 -0.000  0.000 -0.000 -0.000
      -0.000  0.349 -0.000 -0.127 -0.000
       0.000 -0.000  0.350 -0.000  0.126
      -0.000 -0.127 -0.000  0.250  0.000
      -0.000 -0.000  0.126  0.000  0.251

     Number of occupied Hubbard levels =    5.6039

 ------ SPIN UP ------------


          k = 0.0000 0.0000 0.0000 (****** PWs)   bands (ev):

   -76.1370 -76.1369 -76.0608 -76.0608 -76.0270 -76.0128 -76.0125 -75.9807
   -75.9807 -75.9327 -75.9300 -75.9300 -75.8507 -75.8507 -75.8504 -75.8503
   -75.7724 -75.7724 -47.4876 -47.4866 -47.4632 -47.4621 -47.4578 -47.4574
   -47.4085 -47.4084 -47.3880 -47.3880 -47.3822 -47.3822 -47.3631 -47.3567
   -47.3538 -47.3522 -47.3519 -47.3458 -47.3455 -47.3395 -47.3393 -47.3272
   -47.3272 -47.3059 -47.3059 -47.3013 -47.3013 -47.2712 -47.2696 -47.2696
   -47.2646 -47.2631 -47.2631 -47.2619 -47.2559 -47.2559 -47.1888 -47.1888
   -47.1886 -47.1884 -47.1835 -47.1835 -47.1816 -47.1815 -47.1796 -47.1795
   -47.1762 -47.1762 -47.1102 -47.1099 -47.1063 -47.1044 -47.0972 -47.0970
   -16.2048 -16.0677 -16.0164 -15.9910 -15.9548 -15.8950 -15.8619 -15.7102
   -15.6637 -15.6336 -15.6073 -15.4952 -15.4789 -15.4546 -15.4249 -15.4087
   -15.3800 -15.3553 -15.3463 -15.3328 -15.3317 -15.3105 -15.2941 -15.2752
   -15.2692 -15.2477 -15.2377 -15.2357 -15.2032 -15.1880 -15.1753 -15.1717
   -15.1652 -15.1536 -15.1263 -15.1213 -15.1112 -15.1023 -15.0971 -15.0827
   -15.0763 -15.0610 -15.0311 -15.0216 -15.0066 -14.9955 -14.9860 -14.9100
   -14.8807 -14.8793 -14.8183 -14.8158 -14.7420 -14.7135  -7.9505  -7.8743
    -7.8387  -7.7907  -7.7801  -7.7426  -7.6949  -7.4070  -7.3806  -7.3760
    -7.3653  -7.3307  -7.2907  -7.2645  -7.2336  -7.2190  -7.1429  -7.1357
    -6.9820  -6.9485  -6.9414  -6.8976  -6.8800  -6.8583  -6.8479  -6.8380
    -6.8110  -6.8106  -6.7735  -6.7491  -6.7288  -6.7223  -6.7039  -6.6869
    -6.6837  -6.6717  -6.6487  -6.6404  -6.6286  -6.6033  -6.5880  -6.5878
    -6.5643  -6.5392  -6.5055  -6.4947  -6.4732  -6.4658  -6.4275  -6.4049
    -6.3968  -6.3763  -6.3420  -6.3408  -6.3359  -6.2979  -6.2830  -6.2671
    -6.2546  -6.2341  -6.1929  -6.1641  -6.1524  -6.1219  -6.1182  -6.0818
    -6.0526  -6.0287  -6.0229  -5.9876  -5.9868  -5.9816  -5.9726  -5.9367
    -5.9278  -5.9172  -5.8888  -5.8859  -5.8565  -5.8432  -5.8056  -5.7739
    -5.6816  -5.6510  -5.6270  -5.6216  -5.5766  -5.5166  -5.4978  -5.4714
    -5.4588  -5.4287  -5.3859  -5.3634  -5.3480  -5.3195  -5.2876  -5.2656
    -5.2473  -5.2297  -5.2121  -5.1986  -5.1765  -5.1728  -5.1521  -5.1408
    -5.1256  -5.1209  -5.0629  -5.0459  -5.0263  -5.0203  -5.0190  -5.0072
    -4.9892  -4.9792  -4.9517  -4.9460  -4.9290  -4.9122  -4.8752  -4.8673
    -4.8535  -4.8400  -4.8188  -4.7865  -4.7781  -4.7667  -4.7375  -4.7148
    -4.7063  -4.6936  -4.6847  -4.6771  -4.6766  -4.6262  -4.6094  -4.5540
    -4.5383  -4.5153  -4.4857  -4.4471  -4.4416  -4.4328  -4.4002  -4.3958
    -4.3730  -4.3703  -4.3552  -4.3478  -4.3465  -4.3223  -4.3170  -4.2883
    -4.2847  -4.2397  -4.2199  -4.2155  -4.1904  -4.1843  -4.1544  -4.1291
    -4.1062  -4.0840  -4.0809  -4.0514  -4.0136  -4.0107  -4.0025  -3.9849
    -3.9532  -3.9506  -3.9316  -3.9261  -3.9212  -3.9129  -3.8977  -3.8921
    -3.8846  -3.8837  -3.8810  -3.8529  -3.8396  -3.8371  -3.8287  -3.8284
    -3.8184  -3.8162  -3.7932  -3.7854  -3.7677  -3.7651  -3.7493  -3.7292
    -3.7226  -3.7026  -3.6957  -3.6851  -3.6360  -3.6285  -3.6163  -3.6008
    -3.5969  -3.5786  -3.5043  -3.4971  -3.4890  -3.4713  -3.4411  -3.4349
    -3.4183  -3.3963  -3.3517  -3.3490  -3.3403  -3.3260

          k = 0.0000-0.5774 0.0000 (****** PWs)   bands (ev):

   -76.1370 -76.1369 -76.0608 -76.0608 -76.0270 -76.0128 -76.0125 -75.9807
   -75.9807 -75.9327 -75.9300 -75.9300 -75.8507 -75.8507 -75.8504 -75.8503
   -75.7724 -75.7724 -47.4876 -47.4866 -47.4632 -47.4621 -47.4578 -47.4574
   -47.4085 -47.4084 -47.3880 -47.3880 -47.3822 -47.3822 -47.3631 -47.3567
   -47.3538 -47.3522 -47.3519 -47.3458 -47.3455 -47.3395 -47.3393 -47.3272
   -47.3272 -47.3059 -47.3059 -47.3013 -47.3013 -47.2712 -47.2696 -47.2696
   -47.2646 -47.2631 -47.2631 -47.2619 -47.2559 -47.2559 -47.1888 -47.1888
   -47.1886 -47.1884 -47.1835 -47.1835 -47.1816 -47.1815 -47.1796 -47.1795
   -47.1762 -47.1762 -47.1102 -47.1099 -47.1063 -47.1044 -47.0972 -47.0970
   -16.1937 -16.0986 -16.0243 -15.9979 -15.9275 -15.8639 -15.8451 -15.7596
   -15.6898 -15.5932 -15.5685 -15.5202 -15.5162 -15.4633 -15.4510 -15.3949
   -15.3753 -15.3602 -15.3510 -15.3230 -15.3118 -15.3096 -15.2928 -15.2745
   -15.2514 -15.2409 -15.2296 -15.2172 -15.2062 -15.1953 -15.1813 -15.1723
   -15.1606 -15.1471 -15.1424 -15.1257 -15.1210 -15.1025 -15.0987 -15.0825
   -15.0749 -15.0606 -15.0337 -15.0281 -15.0031 -14.9956 -14.9871 -14.9087
   -14.8799 -14.8789 -14.8169 -14.8166 -14.7419 -14.7133  -7.9359  -7.8815
    -7.8177  -7.7828  -7.7656  -7.7052  -7.6422  -7.5965  -7.5256  -7.3739
    -7.3397  -7.2846  -7.2734  -7.2604  -7.2133  -7.1994  -7.1363  -7.1299
    -6.9742  -6.9489  -6.9357  -6.8961  -6.8744  -6.8652  -6.8374  -6.8360
    -6.8206  -6.8048  -6.7836  -6.7623  -6.7338  -6.7289  -6.7244  -6.7052
    -6.6973  -6.6758  -6.6519  -6.6447  -6.6290  -6.5973  -6.5632  -6.5484
    -6.5270  -6.5126  -6.4893  -6.4826  -6.4563  -6.4419  -6.4256  -6.4133
    -6.3981  -6.3897  -6.3803  -6.3327  -6.3218  -6.2924  -6.2793  -6.2687
    -6.2484  -6.2240  -6.1896  -6.1839  -6.1581  -6.1080  -6.0822  -6.0749
    -6.0591  -6.0410  -6.0206  -6.0003  -5.9810  -5.9786  -5.9593  -5.9190
    -5.9084  -5.8962  -5.8619  -5.8435  -5.8239  -5.7996  -5.7767  -5.7180
    -5.6488  -5.6197  -5.5967  -5.5923  -5.5716  -5.5527  -5.5323  -5.5253
    -5.5079  -5.4906  -5.4684  -5.4467  -5.4372  -5.4074  -5.3882  -5.3639
    -5.3460  -5.3191  -5.3032  -5.2648  -5.2429  -5.2280  -5.1997  -5.1486
    -5.1325  -5.1150  -5.0925  -5.0744  -5.0510  -5.0247  -5.0050  -4.9721
    -4.9507  -4.9161  -4.9048  -4.8937  -4.8761  -4.8529  -4.8126  -4.8011
    -4.7822  -4.7651  -4.7446  -4.7336  -4.7087  -4.6912  -4.6850  -4.6713
    -4.6654  -4.6414  -4.6185  -4.6039  -4.5967  -4.5663  -4.5533  -4.5439
    -4.5344  -4.5244  -4.5060  -4.4906  -4.4704  -4.4463  -4.4419  -4.4344
    -4.4126  -4.4059  -4.3824  -4.3749  -4.3459  -4.3050  -4.2916  -4.2728
    -4.2610  -4.2517  -4.2265  -4.2060  -4.1936  -4.1784  -4.1732  -4.1677
    -4.1592  -4.1466  -4.1185  -4.1119  -4.0848  -4.0627  -4.0413  -4.0037
    -3.9797  -3.9687  -3.9501  -3.9314  -3.9224  -3.9086  -3.8946  -3.8837
    -3.8814  -3.8692  -3.8555  -3.8536  -3.8456  -3.8375  -3.8321  -3.8185
    -3.8111  -3.7902  -3.7856  -3.7783  -3.7694  -3.7519  -3.7266  -3.7126
    -3.6897  -3.6824  -3.6610  -3.6458  -3.6369  -3.6296  -3.6164  -3.6041
    -3.5990  -3.5801  -3.5706  -3.5328  -3.4771  -3.4659  -3.4246  -3.4225
    -3.4106  -3.3961  -3.3711  -3.3518  -3.3436  -3.3295

          k = 0.5000-0.2887 0.0000 (****** PWs)   bands (ev):

   -76.1370 -76.1369 -76.0608 -76.0608 -76.0270 -76.0128 -76.0125 -75.9807
   -75.9807 -75.9327 -75.9300 -75.9300 -75.8507 -75.8507 -75.8504 -75.8503
   -75.7724 -75.7724 -47.4876 -47.4866 -47.4632 -47.4621 -47.4578 -47.4574
   -47.4085 -47.4084 -47.3880 -47.3880 -47.3822 -47.3822 -47.3631 -47.3567
   -47.3538 -47.3522 -47.3519 -47.3458 -47.3455 -47.3395 -47.3393 -47.3272
   -47.3272 -47.3059 -47.3059 -47.3013 -47.3013 -47.2712 -47.2696 -47.2696
   -47.2646 -47.2631 -47.2631 -47.2619 -47.2559 -47.2559 -47.1888 -47.1888
   -47.1886 -47.1884 -47.1835 -47.1835 -47.1816 -47.1815 -47.1796 -47.1795
   -47.1762 -47.1762 -47.1102 -47.1099 -47.1063 -47.1044 -47.0972 -47.0970
   -16.1874 -16.1185 -16.0221 -15.9705 -15.9336 -15.8684 -15.8514 -15.7684
   -15.6567 -15.6292 -15.5556 -15.5247 -15.5194 -15.4710 -15.4490 -15.3964
   -15.3641 -15.3542 -15.3496 -15.3121 -15.3083 -15.2998 -15.2964 -15.2771
   -15.2515 -15.2479 -15.2269 -15.2206 -15.2174 -15.2016 -15.1947 -15.1641
   -15.1626 -15.1435 -15.1387 -15.1243 -15.1220 -15.1030 -15.1010 -15.0759
   -15.0733 -15.0667 -15.0301 -15.0297 -15.0024 -14.9973 -14.9848 -14.9073
   -14.8802 -14.8796 -14.8183 -14.8154 -14.7420 -14.7133  -7.9299  -7.8935
    -7.7964  -7.7916  -7.7449  -7.7045  -7.6980  -7.5589  -7.5435  -7.3755
    -7.3317  -7.2921  -7.2485  -7.2439  -7.2251  -7.2191  -7.1423  -7.1248
    -6.9711  -6.9469  -6.9410  -6.8943  -6.8783  -6.8705  -6.8427  -6.8325
    -6.8260  -6.8111  -6.7996  -6.7667  -6.7646  -6.7533  -6.7102  -6.6973
    -6.6698  -6.6674  -6.6231  -6.6213  -6.6003  -6.5883  -6.5612  -6.5232
    -6.5200  -6.5050  -6.5010  -6.4998  -6.4689  -6.4542  -6.4319  -6.4081
    -6.3919  -6.3751  -6.3728  -6.3599  -6.3090  -6.3068  -6.2881  -6.2805
    -6.2665  -6.2482  -6.1952  -6.1849  -6.1243  -6.1160  -6.0766  -6.0651
    -6.0374  -6.0353  -6.0219  -5.9966  -5.9943  -5.9682  -5.9460  -5.9152
    -5.9101  -5.8990  -5.8980  -5.8719  -5.8629  -5.8424  -5.7927  -5.6718
    -5.6474  -5.6087  -5.5735  -5.5546  -5.5467  -5.5265  -5.5237  -5.5090
    -5.5051  -5.4894  -5.4778  -5.4654  -5.4475  -5.4325  -5.3949  -5.3783
    -5.3651  -5.3459  -5.3306  -5.2646  -5.2274  -5.2019  -5.1826  -5.1547
    -5.1266  -5.0845  -5.0798  -5.0621  -5.0478  -5.0248  -5.0009  -4.9960
    -4.9448  -4.9389  -4.9141  -4.8754  -4.8728  -4.8384  -4.8118  -4.8000
    -4.7856  -4.7789  -4.7346  -4.7341  -4.7172  -4.7026  -4.6863  -4.6664
    -4.6634  -4.6302  -4.6291  -4.6044  -4.5957  -4.5808  -4.5679  -4.5624
    -4.5471  -4.5088  -4.4723  -4.4710  -4.4588  -4.4586  -4.4390  -4.4273
    -4.4219  -4.4066  -4.4049  -4.3885  -4.3607  -4.2930  -4.2854  -4.2747
    -4.2660  -4.2335  -4.2205  -4.2123  -4.1998  -4.1849  -4.1738  -4.1597
    -4.1506  -4.1354  -4.1280  -4.0958  -4.0807  -4.0783  -4.0255  -4.0101
    -3.9912  -3.9691  -3.9405  -3.9312  -3.9127  -3.9121  -3.9067  -3.8926
    -3.8827  -3.8797  -3.8680  -3.8610  -3.8494  -3.8352  -3.8257  -3.8239
    -3.8063  -3.7975  -3.7898  -3.7720  -3.7641  -3.7394  -3.7261  -3.7094
    -3.6911  -3.6910  -3.6663  -3.6513  -3.6299  -3.6254  -3.6226  -3.6117
    -3.5758  -3.5749  -3.5556  -3.5309  -3.4977  -3.4500  -3.4493  -3.4247
    -3.4216  -3.3865  -3.3598  -3.3579  -3.3352  -3.3259

          k =-0.5000-0.2887 0.0000 (****** PWs)   bands (ev):

   -76.1370 -76.1369 -76.0608 -76.0608 -76.0270 -76.0128 -76.0125 -75.9807
   -75.9807 -75.9327 -75.9300 -75.9300 -75.8507 -75.8507 -75.8504 -75.8503
   -75.7724 -75.7724 -47.4876 -47.4866 -47.4632 -47.4621 -47.4578 -47.4574
   -47.4085 -47.4084 -47.3880 -47.3880 -47.3822 -47.3822 -47.3631 -47.3567
   -47.3538 -47.3522 -47.3519 -47.3458 -47.3455 -47.3395 -47.3393 -47.3272
   -47.3272 -47.3059 -47.3059 -47.3013 -47.3013 -47.2712 -47.2696 -47.2696
   -47.2646 -47.2631 -47.2631 -47.2619 -47.2559 -47.2559 -47.1888 -47.1888
   -47.1886 -47.1884 -47.1835 -47.1835 -47.1816 -47.1815 -47.1796 -47.1795
   -47.1762 -47.1762 -47.1102 -47.1099 -47.1063 -47.1044 -47.0972 -47.0970
   -16.1937 -16.0985 -16.0246 -15.9980 -15.9271 -15.8637 -15.8453 -15.7599
   -15.6898 -15.5928 -15.5685 -15.5202 -15.5164 -15.4634 -15.4510 -15.3949
   -15.3749 -15.3602 -15.3511 -15.3233 -15.3119 -15.3096 -15.2927 -15.2745
   -15.2511 -15.2409 -15.2298 -15.2173 -15.2061 -15.1950 -15.1815 -15.1723
   -15.1602 -15.1483 -15.1424 -15.1255 -15.1202 -15.1018 -15.0986 -15.0837
   -15.0756 -15.0601 -15.0332 -15.0281 -15.0037 -14.9953 -14.9871 -14.9087
   -14.8799 -14.8789 -14.8170 -14.8166 -14.7419 -14.7133  -7.9359  -7.8804
    -7.8203  -7.7817  -7.7659  -7.7047  -7.6408  -7.5970  -7.5260  -7.3746
    -7.3397  -7.2840  -7.2732  -7.2606  -7.2133  -7.1992  -7.1362  -7.1302
    -6.9740  -6.9483  -6.9363  -6.8972  -6.8726  -6.8662  -6.8364  -6.8350
    -6.8216  -6.8064  -6.7827  -6.7628  -6.7341  -6.7290  -6.7241  -6.7053
    -6.6975  -6.6756  -6.6519  -6.6449  -6.6287  -6.5969  -6.5633  -6.5482
    -6.5250  -6.5132  -6.4875  -6.4839  -6.4579  -6.4422  -6.4264  -6.4125
    -6.3978  -6.3895  -6.3813  -6.3329  -6.3221  -6.2920  -6.2797  -6.2692
    -6.2477  -6.2238  -6.1897  -6.1833  -6.1585  -6.1097  -6.0827  -6.0727
    -6.0559  -6.0407  -6.0203  -6.0006  -5.9820  -5.9804  -5.9599  -5.9184
    -5.9085  -5.8959  -5.8620  -5.8438  -5.8236  -5.8001  -5.7772  -5.7174
    -5.6484  -5.6202  -5.5980  -5.5911  -5.5726  -5.5532  -5.5309  -5.5255
    -5.5077  -5.4900  -5.4684  -5.4465  -5.4376  -5.4074  -5.3878  -5.3640
    -5.3460  -5.3195  -5.3033  -5.2656  -5.2431  -5.2268  -5.1998  -5.1483
    -5.1336  -5.1151  -5.0924  -5.0741  -5.0507  -5.0240  -5.0052  -4.9720
    -4.9511  -4.9160  -4.9051  -4.8939  -4.8760  -4.8520  -4.8126  -4.8012
    -4.7815  -4.7656  -4.7448  -4.7334  -4.7082  -4.6907  -4.6852  -4.6720
    -4.6660  -4.6418  -4.6182  -4.6041  -4.5968  -4.5665  -4.5535  -4.5437
    -4.5346  -4.5245  -4.5065  -4.4904  -4.4703  -4.4470  -4.4419  -4.4340
    -4.4119  -4.4055  -4.3822  -4.3753  -4.3455  -4.3049  -4.2917  -4.2734
    -4.2609  -4.2518  -4.2263  -4.2061  -4.1936  -4.1787  -4.1731  -4.1675
    -4.1590  -4.1467  -4.1185  -4.1120  -4.0846  -4.0627  -4.0414  -4.0036
    -3.9797  -3.9689  -3.9501  -3.9312  -3.9226  -3.9088  -3.8943  -3.8839
    -3.8813  -3.8692  -3.8556  -3.8539  -3.8457  -3.8373  -3.8322  -3.8179
    -3.8111  -3.7903  -3.7856  -3.7786  -3.7695  -3.7517  -3.7264  -3.7124
    -3.6900  -3.6826  -3.6612  -3.6456  -3.6371  -3.6297  -3.6164  -3.6040
    -3.5990  -3.5804  -3.5705  -3.5326  -3.4766  -3.4663  -3.4247  -3.4230
    -3.4103  -3.3962  -3.3713  -3.3517  -3.3430  -3.3298

 ------ SPIN DOWN ----------


          k = 0.0000 0.0000 0.0000 (****** PWs)   bands (ev):

   -72.9791 -72.9790 -72.9731 -72.9726 -72.9723 -72.9068 -72.9067 -72.8950
   -72.8928 -72.8928 -72.8342 -72.8342 -72.8185 -72.8185 -72.8158 -72.8156
   -72.7428 -72.7427 -44.3883 -44.3870 -44.3786 -44.3781 -44.3763 -44.3621
   -44.3604 -44.3479 -44.3475 -44.3421 -44.3386 -44.3348 -44.3346 -44.3319
   -44.3316 -44.3122 -44.3121 -44.3002 -44.2981 -44.2981 -44.2840 -44.2840
   -44.2692 -44.2692 -44.2672 -44.2672 -44.2658 -44.2625 -44.2542 -44.2542
   -44.2347 -44.2347 -44.2203 -44.2201 -44.2188 -44.2187 -44.2122 -44.2122
   -44.1954 -44.1953 -44.1930 -44.1930 -44.1869 -44.1866 -44.1837 -44.1836
   -44.1829 -44.1827 -44.1427 -44.1423 -44.1180 -44.1159 -44.1083 -44.1075
   -16.2131 -16.0797 -16.0318 -16.0040 -15.9701 -15.9095 -15.8816 -15.7345
   -15.6901 -15.6628 -15.6388 -15.5370 -15.5155 -15.5036 -15.4623 -15.4507
   -15.4283 -15.4036 -15.3934 -15.3749 -15.3731 -15.3588 -15.3430 -15.3213
   -15.3175 -15.2956 -15.2870 -15.2847 -15.2516 -15.2357 -15.2262 -15.2207
   -15.2133 -15.2020 -15.1747 -15.1742 -15.1629 -15.1472 -15.1436 -15.1329
   -15.1277 -15.1071 -15.0892 -15.0739 -15.0622 -15.0435 -15.0352 -14.9690
   -14.9508 -14.9446 -14.8861 -14.8832 -14.8111 -14.7843  -7.6664  -7.6172
    -7.5767  -7.5329  -7.5255  -7.4866  -7.4402  -7.1621  -7.1327  -7.1308
    -7.1173  -7.0840  -7.0438  -7.0189  -6.9954  -6.9767  -6.9053  -6.9027
    -6.8576  -6.8517  -6.8136  -6.7783  -6.7584  -6.7253  -6.6699  -6.6426
    -6.6291  -6.6082  -6.6003  -6.5550  -6.5457  -6.5445  -6.5270  -6.5243
    -6.4734  -6.4652  -6.4502  -6.4201  -6.4156  -6.4032  -6.3768  -6.3504
    -6.3430  -6.2985  -6.2961  -6.2930  -6.2533  -6.1854  -6.1474  -6.1348
    -6.1299  -6.0561  -6.0440  -6.0237  -6.0000  -5.9936  -5.9453  -5.9363
    -5.9334  -5.9272  -5.8849  -5.8789  -5.8543  -5.8105  -5.7944  -5.6183
    -5.6046  -5.5933  -5.5771  -5.5680  -5.5483  -5.5454  -5.5301  -5.5031
    -5.4961  -5.4941  -5.4841  -5.4535  -5.3995  -5.3973  -5.3846  -5.3625
    -5.3066  -5.2762  -5.2251  -5.2090  -5.1868  -5.1437  -5.1059  -5.1048
    -5.0954  -5.0608  -5.0251  -5.0173  -4.9819  -4.9784  -4.9658  -4.9581
    -4.9447  -4.9225  -4.9093  -4.8769  -4.8600  -4.8474  -4.8201  -4.8185
    -4.8008  -4.7849  -4.7717  -4.7713  -4.7482  -4.7460  -4.7217  -4.7144
    -4.6932  -4.6767  -4.6757  -4.6326  -4.6306  -4.5715  -4.5612  -4.5539
    -4.5500  -4.5450  -4.4743  -4.4571  -4.4478  -4.4466  -4.4076  -4.3773
    -4.3663  -4.3480  -4.3217  -4.3156  -4.3018  -4.2892  -4.2566  -4.2450
    -4.2333  -4.2192  -4.2093  -4.1718  -4.1103  -4.0732  -4.0689  -4.0562
    -4.0548  -3.9979  -3.9966  -3.9811  -3.9804  -3.9676  -3.9189  -3.8956
    -3.8676  -3.8326  -3.8153  -3.7653  -3.7240  -3.6878  -3.6151  -3.5913
    -1.5493  -1.5397  -1.5088  -1.5048  -1.4799  -1.4766  -1.4576  -1.4569
    -1.4181  -1.4100  -1.4049  -1.3973  -1.3780  -1.3704  -1.3463  -1.3338
    -1.3283  -1.3189  -1.3131  -1.2906  -1.2787  -1.2660  -1.2551  -1.2483
    -1.2414  -1.2255  -1.2053  -1.2012  -1.1898  -1.1660  -1.1387  -1.1218
    -1.1179  -1.1052  -1.1030  -1.0920  -1.0735  -1.0731  -1.0557  -1.0541
    -1.0469  -1.0466  -1.0295  -1.0246  -1.0237  -1.0119  -1.0082  -1.0037
    -0.9896  -0.9830  -0.9720  -0.9644  -0.9513  -0.9294

          k = 0.0000-0.5774 0.0000 (****** PWs)   bands (ev):

   -72.9791 -72.9790 -72.9731 -72.9726 -72.9723 -72.9068 -72.9067 -72.8950
   -72.8928 -72.8928 -72.8342 -72.8342 -72.8185 -72.8185 -72.8158 -72.8156
   -72.7428 -72.7427 -44.3883 -44.3870 -44.3786 -44.3781 -44.3763 -44.3621
   -44.3604 -44.3479 -44.3475 -44.3421 -44.3386 -44.3348 -44.3346 -44.3319
   -44.3316 -44.3122 -44.3121 -44.3002 -44.2981 -44.2981 -44.2840 -44.2840
   -44.2692 -44.2692 -44.2672 -44.2672 -44.2658 -44.2625 -44.2542 -44.2542
   -44.2347 -44.2347 -44.2203 -44.2201 -44.2188 -44.2187 -44.2122 -44.2122
   -44.1954 -44.1953 -44.1930 -44.1930 -44.1869 -44.1866 -44.1837 -44.1836
   -44.1829 -44.1827 -44.1427 -44.1423 -44.1180 -44.1159 -44.1083 -44.1075
   -16.2022 -16.1099 -16.0388 -16.0115 -15.9430 -15.8793 -15.8641 -15.7818
   -15.7185 -15.6250 -15.6028 -15.5558 -15.5498 -15.5025 -15.4979 -15.4448
   -15.4202 -15.4047 -15.3995 -15.3662 -15.3584 -15.3571 -15.3415 -15.3227
   -15.2963 -15.2865 -15.2761 -15.2665 -15.2559 -15.2423 -15.2331 -15.2221
   -15.2101 -15.1959 -15.1943 -15.1759 -15.1700 -15.1498 -15.1447 -15.1327
   -15.1253 -15.1057 -15.0916 -15.0836 -15.0582 -15.0448 -15.0340 -14.9682
   -14.9502 -14.9435 -14.8845 -14.8842 -14.8110 -14.7841  -7.6580  -7.6141
    -7.5567  -7.5209  -7.5122  -7.4532  -7.3901  -7.3479  -7.2761  -7.1245
    -7.0925  -7.0408  -7.0269  -7.0176  -6.9708  -6.9650  -6.9042  -6.8958
    -6.8591  -6.8348  -6.8136  -6.7645  -6.7300  -6.7154  -6.6847  -6.6605
    -6.6536  -6.6313  -6.6164  -6.5934  -6.5584  -6.5500  -6.5218  -6.4910
    -6.4884  -6.4666  -6.4555  -6.4288  -6.4256  -6.3858  -6.3345  -6.3209
    -6.3127  -6.2693  -6.2504  -6.2267  -6.1966  -6.1919  -6.1652  -6.1511
    -6.1296  -6.1096  -6.0954  -6.0781  -6.0435  -6.0269  -5.9748  -5.9618
    -5.9412  -5.8973  -5.8528  -5.8015  -5.8008  -5.6628  -5.6533  -5.6306
    -5.6234  -5.6041  -5.5801  -5.5718  -5.5482  -5.5333  -5.5127  -5.5014
    -5.4784  -5.4670  -5.4505  -5.4240  -5.4155  -5.3755  -5.3514  -5.3212
    -5.2994  -5.2832  -5.2452  -5.2378  -5.2210  -5.2124  -5.1888  -5.1683
    -5.1522  -5.1268  -5.1189  -5.0951  -5.0816  -5.0787  -5.0576  -5.0304
    -5.0060  -4.9543  -4.9365  -4.9313  -4.9219  -4.8892  -4.8742  -4.8599
    -4.8416  -4.8240  -4.8147  -4.7914  -4.7026  -4.6872  -4.6724  -4.6708
    -4.6428  -4.6242  -4.5892  -4.5748  -4.5628  -4.5413  -4.4961  -4.4938
    -4.4859  -4.4684  -4.4451  -4.4434  -4.4244  -4.4092  -4.3943  -4.3433
    -4.3238  -4.3055  -4.2966  -4.2834  -4.2644  -4.2502  -4.2345  -4.2132
    -4.1742  -4.1587  -4.1527  -4.1260  -4.1057  -4.0883  -4.0834  -4.0607
    -4.0589  -4.0331  -4.0071  -3.9838  -3.9607  -3.9523  -3.9473  -3.9089
    -3.9018  -3.8662  -3.8336  -3.8101  -3.7741  -3.7675  -3.7061  -3.6393
    -1.5544  -1.5520  -1.5230  -1.5146  -1.4917  -1.4710  -1.4645  -1.4517
    -1.4381  -1.4204  -1.4035  -1.3890  -1.3766  -1.3624  -1.3531  -1.3310
    -1.3176  -1.3062  -1.2844  -1.2778  -1.2655  -1.2517  -1.2451  -1.2352
    -1.2214  -1.2027  -1.1905  -1.1810  -1.1700  -1.1600  -1.1475  -1.1372
    -1.1322  -1.1292  -1.1219  -1.1041  -1.0962  -1.0828  -1.0774  -1.0703
    -1.0596  -1.0475  -1.0368  -1.0302  -1.0266  -1.0200  -1.0062  -1.0010
    -0.9968  -0.9815  -0.9732  -0.9565  -0.9380  -0.9268

          k = 0.5000-0.2887 0.0000 (****** PWs)   bands (ev):

   -72.9791 -72.9790 -72.9731 -72.9726 -72.9723 -72.9068 -72.9067 -72.8950
   -72.8928 -72.8928 -72.8342 -72.8342 -72.8185 -72.8185 -72.8158 -72.8156
   -72.7428 -72.7427 -44.3883 -44.3870 -44.3786 -44.3781 -44.3763 -44.3621
   -44.3604 -44.3479 -44.3475 -44.3421 -44.3386 -44.3348 -44.3346 -44.3319
   -44.3316 -44.3122 -44.3121 -44.3002 -44.2981 -44.2981 -44.2840 -44.2840
   -44.2692 -44.2692 -44.2672 -44.2672 -44.2658 -44.2625 -44.2542 -44.2542
   -44.2347 -44.2347 -44.2203 -44.2201 -44.2188 -44.2187 -44.2122 -44.2122
   -44.1954 -44.1953 -44.1930 -44.1930 -44.1869 -44.1866 -44.1837 -44.1836
   -44.1829 -44.1827 -44.1427 -44.1423 -44.1180 -44.1159 -44.1083 -44.1075
   -16.1962 -16.1292 -16.0363 -15.9853 -15.9490 -15.8865 -15.8658 -15.7919
   -15.6904 -15.6596 -15.5865 -15.5611 -15.5509 -15.5065 -15.4985 -15.4463
   -15.4127 -15.3988 -15.3978 -15.3567 -15.3545 -15.3467 -15.3437 -15.3246
   -15.2990 -15.2938 -15.2737 -15.2687 -15.2677 -15.2491 -15.2454 -15.2157
   -15.2139 -15.1899 -15.1854 -15.1761 -15.1708 -15.1512 -15.1482 -15.1254
   -15.1218 -15.1128 -15.0888 -15.0844 -15.0587 -15.0459 -15.0316 -14.9674
   -14.9509 -14.9435 -14.8862 -14.8827 -14.8111 -14.7841  -7.6535  -7.6217
    -7.5387  -7.5356  -7.4841  -7.4545  -7.4446  -7.3112  -7.2941  -7.1262
    -7.0834  -7.0480  -7.0064  -7.0047  -6.9818  -6.9720  -6.9073  -6.8932
    -6.8494  -6.8386  -6.8227  -6.7548  -6.7263  -6.7099  -6.7029  -6.6850
    -6.6561  -6.6470  -6.6343  -6.5751  -6.5732  -6.5620  -6.5352  -6.4931
    -6.4613  -6.4429  -6.4167  -6.4091  -6.3864  -6.3694  -6.3542  -6.3255
    -6.2971  -6.2927  -6.2736  -6.2289  -6.2243  -6.1901  -6.1588  -6.1492
    -6.1411  -6.1170  -6.0828  -6.0581  -5.9952  -5.9892  -5.9864  -5.9721
    -5.9495  -5.9332  -5.9200  -5.8076  -5.7687  -5.6943  -5.6684  -5.6541
    -5.6267  -5.5901  -5.5611  -5.5592  -5.5525  -5.5269  -5.5031  -5.4856
    -5.4829  -5.4712  -5.4654  -5.4370  -5.4087  -5.4052  -5.3691  -5.2976
    -5.2889  -5.2635  -5.2477  -5.2227  -5.2185  -5.2011  -5.1821  -5.1771
    -5.1555  -5.1419  -5.1281  -5.0990  -5.0725  -5.0706  -5.0347  -5.0231
    -5.0058  -4.9658  -4.9560  -4.9351  -4.9163  -4.9098  -4.8597  -4.8465
    -4.8344  -4.8190  -4.8187  -4.7015  -4.7010  -4.6963  -4.6761  -4.6605
    -4.6518  -4.6380  -4.6214  -4.6066  -4.5626  -4.5380  -4.5183  -4.5180
    -4.4982  -4.4529  -4.4303  -4.4253  -4.4031  -4.3897  -4.3738  -4.3469
    -4.3330  -4.3192  -4.2882  -4.2834  -4.2716  -4.2416  -4.2395  -4.2337
    -4.2114  -4.1884  -4.1567  -4.1191  -4.0960  -4.0834  -4.0733  -4.0449
    -4.0359  -4.0344  -4.0235  -3.9889  -3.9600  -3.9532  -3.9477  -3.9258
    -3.9075  -3.8396  -3.8393  -3.8282  -3.8160  -3.6944  -3.6882  -3.6637
    -1.5651  -1.5542  -1.5203  -1.5099  -1.4953  -1.4823  -1.4705  -1.4413
    -1.4290  -1.4195  -1.3995  -1.3948  -1.3783  -1.3579  -1.3507  -1.3334
    -1.3036  -1.2946  -1.2841  -1.2722  -1.2613  -1.2467  -1.2453  -1.2311
    -1.2288  -1.2102  -1.1944  -1.1873  -1.1691  -1.1635  -1.1546  -1.1439
    -1.1351  -1.1157  -1.1124  -1.1043  -1.0993  -1.0874  -1.0851  -1.0814
    -1.0740  -1.0499  -1.0368  -1.0248  -1.0222  -1.0197  -1.0179  -0.9998
    -0.9962  -0.9760  -0.9681  -0.9649  -0.9349  -0.9184

          k =-0.5000-0.2887 0.0000 (****** PWs)   bands (ev):

   -72.9791 -72.9790 -72.9731 -72.9726 -72.9723 -72.9068 -72.9067 -72.8950
   -72.8928 -72.8928 -72.8342 -72.8342 -72.8185 -72.8185 -72.8158 -72.8156
   -72.7428 -72.7427 -44.3883 -44.3870 -44.3786 -44.3781 -44.3763 -44.3621
   -44.3604 -44.3479 -44.3475 -44.3421 -44.3386 -44.3348 -44.3346 -44.3319
   -44.3316 -44.3122 -44.3121 -44.3002 -44.2981 -44.2981 -44.2840 -44.2840
   -44.2692 -44.2692 -44.2672 -44.2672 -44.2658 -44.2625 -44.2542 -44.2542
   -44.2347 -44.2347 -44.2203 -44.2201 -44.2188 -44.2187 -44.2122 -44.2122
   -44.1954 -44.1953 -44.1930 -44.1930 -44.1869 -44.1866 -44.1837 -44.1836
   -44.1829 -44.1827 -44.1427 -44.1423 -44.1180 -44.1159 -44.1083 -44.1075
   -16.2023 -16.1097 -16.0391 -16.0116 -15.9427 -15.8790 -15.8644 -15.7820
   -15.7185 -15.6248 -15.6028 -15.5560 -15.5499 -15.5025 -15.4977 -15.4448
   -15.4198 -15.4047 -15.3997 -15.3663 -15.3585 -15.3572 -15.3414 -15.3228
   -15.2958 -15.2866 -15.2763 -15.2665 -15.2558 -15.2421 -15.2333 -15.2221
   -15.2099 -15.1962 -15.1949 -15.1753 -15.1699 -15.1491 -15.1445 -15.1334
   -15.1258 -15.1056 -15.0913 -15.0833 -15.0584 -15.0448 -15.0340 -14.9682
   -14.9502 -14.9435 -14.8846 -14.8842 -14.8110 -14.7841  -7.6580  -7.6135
    -7.5584  -7.5201  -7.5125  -7.4526  -7.3892  -7.3482  -7.2764  -7.1252
    -7.0926  -7.0402  -7.0266  -7.0178  -6.9713  -6.9645  -6.9041  -6.8960
    -6.8591  -6.8349  -6.8135  -6.7652  -6.7289  -6.7145  -6.6856  -6.6598
    -6.6535  -6.6329  -6.6159  -6.5939  -6.5586  -6.5497  -6.5220  -6.4906
    -6.4893  -6.4673  -6.4554  -6.4283  -6.4242  -6.3856  -6.3347  -6.3214
    -6.3119  -6.2692  -6.2496  -6.2280  -6.1966  -6.1919  -6.1652  -6.1510
    -6.1300  -6.1099  -6.0953  -6.0788  -6.0437  -6.0257  -5.9744  -5.9617
    -5.9416  -5.8975  -5.8531  -5.8017  -5.8005  -5.6619  -5.6537  -5.6312
    -5.6240  -5.6020  -5.5781  -5.5714  -5.5484  -5.5335  -5.5146  -5.5033
    -5.4792  -5.4667  -5.4489  -5.4239  -5.4160  -5.3756  -5.3517  -5.3211
    -5.2996  -5.2824  -5.2446  -5.2377  -5.2223  -5.2122  -5.1891  -5.1679
    -5.1529  -5.1269  -5.1185  -5.0949  -5.0814  -5.0784  -5.0575  -5.0306
    -5.0066  -4.9541  -4.9363  -4.9310  -4.9220  -4.8893  -4.8742  -4.8601
    -4.8417  -4.8235  -4.8143  -4.7914  -4.7028  -4.6876  -4.6724  -4.6712
    -4.6429  -4.6242  -4.5894  -4.5750  -4.5627  -4.5412  -4.4957  -4.4936
    -4.4856  -4.4687  -4.4449  -4.4435  -4.4241  -4.4092  -4.3939  -4.3436
    -4.3240  -4.3057  -4.2967  -4.2831  -4.2646  -4.2503  -4.2346  -4.2133
    -4.1744  -4.1587  -4.1526  -4.1260  -4.1059  -4.0882  -4.0833  -4.0608
    -4.0589  -4.0332  -4.0072  -3.9838  -3.9607  -3.9523  -3.9473  -3.9088
    -3.9020  -3.8662  -3.8334  -3.8102  -3.7740  -3.7673  -3.7063  -3.6393
    -1.5550  -1.5509  -1.5237  -1.5131  -1.4909  -1.4725  -1.4674  -1.4520
    -1.4375  -1.4209  -1.4018  -1.3882  -1.3775  -1.3603  -1.3531  -1.3319
    -1.3170  -1.3048  -1.2839  -1.2786  -1.2645  -1.2519  -1.2498  -1.2341
    -1.2212  -1.2012  -1.1899  -1.1813  -1.1700  -1.1589  -1.1502  -1.1379
    -1.1320  -1.1303  -1.1218  -1.1033  -1.0951  -1.0835  -1.0778  -1.0705
    -1.0581  -1.0482  -1.0363  -1.0296  -1.0268  -1.0206  -1.0062  -0.9997
    -0.9971  -0.9815  -0.9730  -0.9570  -0.9383  -0.9267

     highest occupied, lowest unoccupied level (ev):    -3.3259   -1.5651

!    total energy              =  -24931.13735793 Ry
     total all-electron energy =    -24931.137358 Ry
     estimated scf accuracy    <          9.4E-11 Ry

     The total energy is the sum of the following terms:
     one-electron contribution =  -25177.23834961 Ry
     hartree contribution      =   12523.74682397 Ry
     xc contribution           =    -743.78165536 Ry
     ewald contribution        =    8913.20911809 Ry
     Hubbard energy            =       0.04118757 Ry
     one-center paw contrib.   =  -20447.11448259 Ry

     total magnetization       =    54.00 Bohr mag/cell
     absolute magnetization    =    65.41 Bohr mag/cell

     convergence has been achieved in  14 iterations

     negative rho (up, down):  1.304E-01 1.475E-01

     Forces acting on atoms (cartesian axes, Ry/au):

     atom    1 type  1   force =    -0.00112061   -0.00196554    0.00012009
     atom    2 type  3   force =    -0.00245800   -0.00777364    0.00226463
     atom    3 type  3   force =    -0.00550317   -0.00601760    0.00226535
     atom    4 type  2   force =     0.00487079   -0.02270486   -0.00065689
     atom    5 type  2   force =    -0.00320464   -0.00555866   -0.00949182
     atom    6 type  2   force =    -0.02210361   -0.00713645   -0.00065783
     atom    7 type  2   force =     0.00731187   -0.02442504   -0.00194481
     atom    8 type  2   force =     0.00247097    0.00427330    0.00888706
     atom    9 type  2   force =    -0.02481219   -0.00588333   -0.00194359
     atom   10 type  3   force =    -0.00176657   -0.00209690    0.00022923
     atom   11 type  3   force =    -0.00562135   -0.00546370    0.00214599
     atom   12 type  2   force =     0.00494486    0.00062446   -0.00970662
     atom   13 type  2   force =    -0.00289877   -0.00482874   -0.00926278
     atom   14 type  2   force =    -0.02182112   -0.00648100   -0.00078147
     atom   15 type  2   force =    -0.00560940    0.00087670    0.00924545
     atom   16 type  2   force =     0.00235674    0.00469255    0.00945648
     atom   17 type  2   force =    -0.02497568   -0.00541925   -0.00196007
     atom   18 type  3   force =    -0.00134568   -0.00138972   -0.00052501
     atom   19 type  3   force =    -0.01444113    0.02876850    0.00308869
     atom   20 type  2   force =     0.00466505    0.00073101   -0.00975770
     atom   21 type  2   force =    -0.00418114    0.00236418   -0.00760118
     atom   22 type  2   force =    -0.01977303   -0.00451832    0.00137890
     atom   23 type  2   force =    -0.00560579    0.00077177    0.00953171
     atom   24 type  2   force =    -0.00279651    0.01174652    0.00748431
     atom   25 type  2   force =    -0.02316346    0.00011911   -0.00335635
     atom   26 type  3   force =    -0.00192267   -0.00759731    0.00214603
     atom   27 type  3   force =    -0.00093087   -0.00258519    0.00022992
     atom   28 type  2   force =     0.00529695   -0.02213220   -0.00078002
     atom   29 type  2   force =    -0.00272624   -0.00492972   -0.00925873
     atom   30 type  2   force =    -0.00194737    0.00457493   -0.00971030
     atom   31 type  2   force =     0.00779554   -0.02433380   -0.00196093
     atom   32 type  2   force =     0.00289946    0.00436707    0.00945860
     atom   33 type  2   force =     0.00355826   -0.00442416    0.00924140
     atom   34 type  3   force =    -0.00115509   -0.00195454    0.00011980
     atom   35 type  2   force =     0.00589400    0.00030382   -0.01052308
     atom   36 type  2   force =    -0.00346822   -0.00426249   -0.00985259
     atom   37 type  2   force =    -0.00172100    0.00533015   -0.00985928
     atom   38 type  2   force =    -0.00554536    0.00009606    0.00994581
     atom   39 type  2   force =     0.00225044    0.00563718    0.01064771
     atom   40 type  2   force =     0.00338459   -0.00395516    0.00928778
     atom   41 type  3   force =    -0.00067532   -0.00121286   -0.00063933
     atom   42 type  3   force =    -0.00990718    0.03240358    0.00109842
     atom   43 type  2   force =     0.00516141    0.00124894   -0.00990570
     atom   44 type  2   force =    -0.00376809    0.00280899   -0.00757544
     atom   45 type  2   force =    -0.00022035    0.00755288   -0.00794205
     atom   46 type  2   force =    -0.00513480    0.00081584    0.00956211
     atom   47 type  2   force =    -0.00238118    0.01192888    0.00802007
     atom   48 type  2   force =     0.00497939    0.00145643    0.00795457
     atom   49 type  3   force =     0.03213217    0.00187562    0.00308811
     atom   50 type  3   force =    -0.00053310   -0.00186005   -0.00052472
     atom   51 type  2   force =     0.00597348   -0.01937597    0.00137936
     atom   52 type  2   force =     0.00414442   -0.00244274   -0.00760092
     atom   53 type  2   force =    -0.00170505    0.00440048   -0.00975632
     atom   54 type  2   force =     0.01168569   -0.01999611   -0.00335781
     atom   55 type  2   force =     0.01157678    0.00344781    0.00748449
     atom   56 type  2   force =     0.00346491   -0.00447205    0.00953134
     atom   57 type  3   force =     0.03301180    0.00761919    0.00109742
     atom   58 type  3   force =    -0.00069646   -0.00118558   -0.00063717
     atom   59 type  2   force =     0.00665081    0.00359440   -0.00794185
     atom   60 type  2   force =     0.00434126   -0.00186148   -0.00757690
     atom   61 type  2   force =    -0.00097988    0.00588925   -0.01056134
     atom   62 type  2   force =    -0.00122736    0.00504764    0.00795336
     atom   63 type  2   force =     0.01152516    0.00390002    0.00801562
     atom   64 type  2   force =     0.00423303   -0.00396696    0.01022447
     atom   65 type  3   force =     0.03345779    0.00837377    0.00038843
     atom   66 type  3   force =    -0.00947859    0.03316557    0.00038893
     atom   67 type  2   force =     0.00635797    0.00365083   -0.00798863
     atom   68 type  2   force =     0.00304799    0.00527102   -0.00612771
     atom   69 type  2   force =    -0.00002310    0.00732819   -0.00799308
     atom   70 type  2   force =    -0.00130184    0.00479808    0.00826545
     atom   71 type  2   force =     0.00641560    0.01110353    0.00582980
     atom   72 type  2   force =     0.00479177    0.00125289    0.00826316

     Total force =     0.137803     Total SCF correction =     0.000012


     Computing stress (Cartesian axis) and pressure


     negative rho (up, down):  1.304E-01 1.475E-01
          total   stress  (Ry/bohr**3)                   (kbar)     P=        1.87
   0.00001256  -0.00000122   0.00000070            1.85       -0.18        0.10
  -0.00000122   0.00001116   0.00000121           -0.18        1.64        0.18
   0.00000070   0.00000121   0.00001433            0.10        0.18        2.11


     Writing all to output data dir ./Cr_0.1_0/Cr_0_0.save/ :
     XML data file, charge density, pseudopotentials, collected wavefunctions

     init_run     :    172.68s CPU    101.66s WALL (       1 calls)
     electrons    :   3920.91s CPU   2130.02s WALL (       1 calls)
     forces       :    143.62s CPU     76.00s WALL (       1 calls)
     stress       :    904.12s CPU    480.06s WALL (       1 calls)

     Called by init_run:
     wfcinit      :    153.81s CPU     81.42s WALL (       1 calls)
     potinit      :      3.69s CPU      4.22s WALL (       1 calls)
     hinit0       :      2.51s CPU      2.86s WALL (       1 calls)

     Called by electrons:
     c_bands      :   3389.81s CPU   1810.52s WALL (      15 calls)
     sum_band     :    470.18s CPU    266.54s WALL (      15 calls)
     v_of_rho     :     20.00s CPU     16.64s WALL (      15 calls)
     newd         :     28.91s CPU     28.83s WALL (      15 calls)
     PAW_pot      :     10.22s CPU      7.05s WALL (      15 calls)
     mix_rho      :      2.93s CPU      2.30s WALL (      15 calls)

     Called by c_bands:
     init_us_2    :     26.05s CPU     13.45s WALL (     288 calls)
     init_us_2:cp :     26.05s CPU     13.45s WALL (     288 calls)
     cegterg      :   3358.39s CPU   1791.49s WALL (     120 calls)

     Called by *egterg:
     cdiaghg      :    344.73s CPU    196.50s WALL (     645 calls)
     h_psi        :   2006.15s CPU   1041.15s WALL (     661 calls)
     s_psi        :    236.79s CPU    119.58s WALL (     685 calls)
     g_psi        :      7.16s CPU      3.65s WALL (     533 calls)

     Called by h_psi:
     h_psi:calbec :    254.17s CPU    133.08s WALL (     661 calls)
     vloc_psi     :   1493.53s CPU    766.25s WALL (     661 calls)
     add_vuspsi   :    216.49s CPU    109.55s WALL (     661 calls)
     vhpsi        :     36.26s CPU     21.85s WALL (     661 calls)

     General routines
     calbec       :    801.80s CPU    427.28s WALL (   29362 calls)
     fft          :     22.93s CPU     22.49s WALL (     415 calls)
     ffts         :      2.51s CPU      2.12s WALL (      60 calls)
     fftw         :   1325.15s CPU    683.34s WALL (  290054 calls)
     interpolate  :      2.91s CPU      2.47s WALL (      30 calls)

     Parallel routines

     Hubbard U routines
     new_ns       :      6.81s CPU      4.84s WALL (      15 calls)
     vhpsi        :     36.26s CPU     21.85s WALL (     661 calls)
     force_hub    :    110.00s CPU     56.73s WALL (       1 calls)
                                        0.00s GPU  (       1 calls)
     stres_hub    :    317.10s CPU    166.31s WALL (       1 calls)
                                        0.00s GPU  (       1 calls)

     PWSCF        :      1h26m CPU  47m12.07s WALL


   This run was terminated on:  13: 1: 2   4Sep2025            

=------------------------------------------------------------------------------=
   JOB DONE.
=------------------------------------------------------------------------------=
