
     Program PWSCF v.7.3 starts on  4Sep2025 at 16:43:33 

     This program is part of the open-source Quantum ESPRESSO suite
     for quantum simulation of materials; please cite
         "P. Giannozzi et al., J. Phys.:Condens. Matter 21 395502 (2009);
         "P. Giannozzi et al., J. Phys.:Condens. Matter 29 465901 (2017);
         "P. Giannozzi et al., J. Chem. Phys. 152 154105 (2020);
          URL http://www.quantum-espresso.org", 
     in publications or presentations arising from this work. More details at
     http://www.quantum-espresso.org/quote

     Parallel version (MPI & OpenMP), running on     256 processor cores
     Number of MPI processes:               128
     Threads/MPI process:                     2

     MPI processes distributed on     2 nodes
     437066 MiB available memory on the printing compute node when the environment starts

     Reading input from Cr_0.05_0.in
Warning: card &CELL ignored
Warning: card / ignored
Warning: card &FCP ignored
Warning: card / ignored
Warning: card &RISM ignored
Warning: card / ignored

     Current dimensions of program PWSCF are:
     Max number of different atomic species (ntypx) = 10
     Max number of k-points (npk) =  40000
     Max angular momentum in pseudopotentials (lmaxx) =  4
read_pp_mesh; mismatch in mesh size, discarding the one in header
read_pp_mesh; mismatch in mesh size, discarding the one in header
read_pp_mesh; mismatch in mesh size, discarding the one in header
     file Cr.GGA-PBE-paw.UPF: wavefunction(s)  3S 4S 3P 4P 3D 4D renormalized
     file I.GGA-PBE-paw.UPF: wavefunction(s)  6S 6P renormalized
     file Cr.GGA-PBE-paw.UPF: wavefunction(s)  3S 4S 3P 4P 3D 4D renormalized

     IMPORTANT: XC functional enforced from input :
     Exchange-correlation= PBE
                           (   1   4   3   4   0   0   0)
     Any further DFT definition will be discarded
     Please, verify this is what you really want


     R & G space division:  proc/nbgrp/npool/nimage =     128
     Subspace diagonalization in iterative solution of the eigenvalue problem:
     one sub-group per band group will be used
     ELPA distributed-memory algorithm (size of sub-group:  3*  3 procs)


     Parallelization info
     --------------------
     sticks:   dense  smooth     PW     G-vecs:    dense   smooth      PW
     Min         509     305     78               140391    65241    8388
     Max         510     306     79               140404    65254    8400
     Sum       65263   39121   9985             17971031  8351671 1074593

     Using Slab Decomposition



     bravais-lattice index     =            0
     lattice parameter (alat)  =      39.7293  a.u.
     unit-cell volume          =   72410.5124 (a.u.)^3
     number of atoms/cell      =           72
     number of atomic types    =            3
     number of electrons       =       630.00 (up: 342.00, down: 288.00)
     number of Kohn-Sham states=          342
     kinetic-energy cutoff     =      90.0000  Ry
     charge density cutoff     =     600.0000  Ry
     scf convergence threshold =      1.0E-10
     mixing beta               =       0.3000
     number of iterations used =            8  plain     mixing
     Exchange-correlation= PBE
                           (   1   4   3   4   0   0   0)
     Hubbard projectors: atomic
     Hubbard parameters of DFT+U (Dudarev formulation) in eV:
     U(Cr1-3d) =  0.0000
     J0(Cr1-3d) =  0.0000
     alpha(Cr1-3d) =  0.0500

     Internal variables: lda_plus_u =T, lda_plus_u_kind = 0

     celldm(1)=  39.729285  celldm(2)=   0.000000  celldm(3)=   0.000000
     celldm(4)=   0.000000  celldm(5)=   0.000000  celldm(6)=   0.000000

     crystal axes: (cart. coord. in units of alat)
               a(1) = (   1.000000   0.000000   0.000000 )  
               a(2) = (  -0.500000   0.866025   0.000000 )  
               a(3) = (   0.000000   0.000000   1.333333 )  

     reciprocal axes: (cart. coord. in units 2 pi/alat)
               b(1) = (  1.000000  0.577350 -0.000000 )  
               b(2) = (  0.000000  1.154701  0.000000 )  
               b(3) = (  0.000000 -0.000000  0.750000 )  


     PseudoPot. # 1 for Cr read from file:
     ./Cr.GGA-PBE-paw.UPF
     MD5 check sum: 389087661106aa6caf57455f2e439c97
     Pseudo is Projector augmented-wave + core cor, Zval = 14.0
     Generated using ATOMPAW code
     Shape of augmentation charge: SINC**2
     Using radial grid of 2342 points,  6 beta functions with: 
                l(1) =   0
                l(2) =   0
                l(3) =   1
                l(4) =   1
                l(5) =   2
                l(6) =   2
     Q(r) pseudized with 0 coefficients 


     PseudoPot. # 2 for I  read from file:
     ./I.GGA-PBE-paw.UPF
     MD5 check sum: 736bb4145856fa7ed29d0984862794a4
     Pseudo is Projector augmented-wave + core cor, Zval =  7.0
     Generated using ATOMPAW code
     Shape of augmentation charge: SINC**2
     Using radial grid of 2342 points,  4 beta functions with: 
                l(1) =   0
                l(2) =   0
                l(3) =   1
                l(4) =   1
     Q(r) pseudized with 0 coefficients 


     PseudoPot. # 3 for Cr read from file:
     ./Cr.GGA-PBE-paw.UPF
     MD5 check sum: 389087661106aa6caf57455f2e439c97
     Pseudo is Projector augmented-wave + core cor, Zval = 14.0
     Generated using ATOMPAW code
     Shape of augmentation charge: SINC**2
     Using radial grid of 2342 points,  6 beta functions with: 
                l(1) =   0
                l(2) =   0
                l(3) =   1
                l(4) =   1
                l(5) =   2
                l(6) =   2
     Q(r) pseudized with 0 coefficients 


     atomic species   valence    mass     pseudopotential
     Cr1              14.00    51.99610     Cr( 1.00)
     I                 7.00   126.90447     I ( 1.00)
     Cr               14.00    51.99610     Cr( 1.00)

     Starting magnetic structure 
     atomic species   magnetization
     Cr1             0.214
     I               0.000
     Cr              0.214

     No symmetry found



   Cartesian axes

     site n.     atom                  positions (alat units)
         1        Cr1    tau(   1) = (   0.3271041   0.3777073   0.4295967  )
         2        Cr     tau(   2) = (   0.1635521   0.0944268   0.4295967  )
         3        Cr     tau(   3) = (   0.0000000   0.1888536   0.4295967  )
         4        I      tau(   4) = (   0.2103614  -0.0000006   0.3558127  )
         5        I      tau(   5) = (   0.0583708   0.1011024   0.3558127  )
         6        I      tau(   6) = (  -0.1051802   0.1821787   0.3558127  )
         7        I      tau(   7) = (   0.1167427  -0.0000005   0.5033806  )
         8        I      tau(   8) = (   0.1051802   0.1821786   0.5033806  )
         9        I      tau(   9) = (  -0.0583709   0.1011024   0.5033806  )
        10        Cr     tau(  10) = (  -0.0000000   0.3777073   0.4295967  )
        11        Cr     tau(  11) = (  -0.1635521   0.4721341   0.4295967  )
        12        I      tau(  12) = (   0.0468094   0.2832798   0.3558127  )
        13        I      tau(  13) = (  -0.1051813   0.3843829   0.3558127  )
        14        I      tau(  14) = (  -0.2687322   0.4654591   0.3558127  )
        15        I      tau(  15) = (  -0.0468094   0.2832799   0.5033806  )
        16        I      tau(  16) = (  -0.0583718   0.4654591   0.5033806  )
        17        I      tau(  17) = (  -0.2219229   0.3843829   0.5033806  )
        18        Cr     tau(  18) = (  -0.1635521   0.6609878   0.4295967  )
        19        Cr     tau(  19) = (  -0.3271041   0.7554146   0.4295967  )
        20        I      tau(  20) = (  -0.1167427   0.5665603   0.3558127  )
        21        I      tau(  21) = (  -0.2687333   0.6676634   0.3558127  )
        22        I      tau(  22) = (  -0.4322843   0.7487396   0.3558127  )
        23        I      tau(  23) = (  -0.2103614   0.5665604   0.5033806  )
        24        I      tau(  24) = (  -0.2219239   0.7487396   0.5033806  )
        25        I      tau(  25) = (  -0.3854750   0.6676633   0.5033806  )
        26        Cr     tau(  26) = (   0.4906562   0.0944268   0.4295967  )
        27        Cr     tau(  27) = (   0.3271041   0.1888536   0.4295967  )
        28        I      tau(  28) = (   0.5374655  -0.0000006   0.3558127  )
        29        I      tau(  29) = (   0.3854749   0.1011024   0.3558127  )
        30        I      tau(  30) = (   0.2219239   0.1821787   0.3558127  )
        31        I      tau(  31) = (   0.4438468  -0.0000005   0.5033806  )
        32        I      tau(  32) = (   0.4322844   0.1821786   0.5033806  )
        33        I      tau(  33) = (   0.2687332   0.1011024   0.5033806  )
        34        Cr     tau(  34) = (   0.1635521   0.4721341   0.4295967  )
        35        I      tau(  35) = (   0.3739135   0.2832798   0.3558127  )
        36        I      tau(  36) = (   0.2219229   0.3843829   0.3558127  )
        37        I      tau(  37) = (   0.0583719   0.4654591   0.3558127  )
        38        I      tau(  38) = (   0.2802947   0.2832799   0.5033806  )
        39        I      tau(  39) = (   0.2687323   0.4654591   0.5033806  )
        40        I      tau(  40) = (   0.1051812   0.3843829   0.5033806  )
        41        Cr     tau(  41) = (   0.1635521   0.6609878   0.4295967  )
        42        Cr     tau(  42) = (   0.0000000   0.7554146   0.4295967  )
        43        I      tau(  43) = (   0.2103614   0.5665603   0.3558127  )
        44        I      tau(  44) = (   0.0583708   0.6676634   0.3558127  )
        45        I      tau(  45) = (  -0.1051802   0.7487396   0.3558127  )
        46        I      tau(  46) = (   0.1167427   0.5665604   0.5033806  )
        47        I      tau(  47) = (   0.1051802   0.7487396   0.5033806  )
        48        I      tau(  48) = (  -0.0583709   0.6676633   0.5033806  )
        49        Cr     tau(  49) = (   0.8177603   0.0944268   0.4295967  )
        50        Cr     tau(  50) = (   0.6542082   0.1888536   0.4295967  )
        51        I      tau(  51) = (   0.8645697  -0.0000006   0.3558127  )
        52        I      tau(  52) = (   0.7125790   0.1011024   0.3558127  )
        53        I      tau(  53) = (   0.5490281   0.1821787   0.3558127  )
        54        I      tau(  54) = (   0.7709509  -0.0000005   0.5033806  )
        55        I      tau(  55) = (   0.7593885   0.1821786   0.5033806  )
        56        I      tau(  56) = (   0.5958374   0.1011024   0.5033806  )
        57        Cr     tau(  57) = (   0.6542082   0.3777073   0.4295967  )
        58        Cr     tau(  58) = (   0.4906562   0.4721341   0.4295967  )
        59        I      tau(  59) = (   0.7010176   0.2832798   0.3558127  )
        60        I      tau(  60) = (   0.5490270   0.3843829   0.3558127  )
        61        I      tau(  61) = (   0.3854760   0.4654591   0.3558127  )
        62        I      tau(  62) = (   0.6073989   0.2832799   0.5033806  )
        63        I      tau(  63) = (   0.5958364   0.4654591   0.5033806  )
        64        I      tau(  64) = (   0.4322853   0.3843829   0.5033806  )
        65        Cr     tau(  65) = (   0.4906562   0.6609878   0.4295967  )
        66        Cr     tau(  66) = (   0.3271041   0.7554146   0.4295967  )
        67        I      tau(  67) = (   0.5374655   0.5665603   0.3558127  )
        68        I      tau(  68) = (   0.3854749   0.6676634   0.3558127  )
        69        I      tau(  69) = (   0.2219239   0.7487396   0.3558127  )
        70        I      tau(  70) = (   0.4438468   0.5665604   0.5033806  )
        71        I      tau(  71) = (   0.4322844   0.7487396   0.5033806  )
        72        I      tau(  72) = (   0.2687332   0.6676633   0.5033806  )

     number of k points=     4
                       cart. coord. in units 2pi/alat
        k(    1) = (   0.0000000   0.0000000   0.0000000), wk =   0.2500000
        k(    2) = (   0.0000000  -0.5773503   0.0000000), wk =   0.2500000
        k(    3) = (   0.5000000  -0.2886751   0.0000000), wk =   0.2500000
        k(    4) = (  -0.5000000  -0.2886751   0.0000000), wk =   0.2500000

     Dense  grid: 17971031 G-vectors     FFT dimensions: ( 320, 320, 432)

     Smooth grid:  8351671 G-vectors     FFT dimensions: ( 240, 240, 320)

     Estimated max dynamical RAM per process >       1.67 GB

     Estimated total dynamical RAM >     213.14 GB
     Generating pointlists ...
     new r_m :   0.0531 (alat units)  2.1084 (a.u.) for type    1
     new r_m :   0.0531 (alat units)  2.1084 (a.u.) for type    2
     new r_m :   0.0531 (alat units)  2.1084 (a.u.) for type    3

     The initial density is read from file :
     ./Cr_0.05_0/Cr_0_0.save/charge-density


     negative rho (up, down):  1.304E-01 1.474E-01

     STARTING HUBBARD OCCUPATIONS:

     =================== HUBBARD OCCUPATIONS ===================
     ------------------------ ATOM    1 ------------------------
     Tr[ns(  1)] (up, down, total) =   4.25332  1.37309  5.62641
     Atomic magnetic moment for atom   1 =   2.88023
     SPIN  1
     eigenvalues:
       0.638  0.640  0.991  0.992  0.992
     eigenvectors (columns):
      -0.000  0.000 -0.955  0.236 -0.180
      -0.801  0.198  0.165  0.485 -0.238
      -0.198 -0.802 -0.031  0.257  0.501
       0.549 -0.135  0.240  0.709 -0.348
      -0.135 -0.547  0.046 -0.375 -0.734
     occupation matrix ns (before diag.):
       0.991  0.000 -0.000  0.000  0.000
       0.000  0.751 -0.000  0.165 -0.000
      -0.000 -0.000  0.752  0.000 -0.164
       0.000  0.165  0.000  0.879  0.000
       0.000 -0.000 -0.164  0.000  0.880
     SPIN  2
     eigenvalues:
       0.158  0.167  0.169  0.439  0.440
     eigenvectors (columns):
      -0.999  0.031 -0.025  0.000 -0.000
      -0.020 -0.549  0.128  0.794 -0.226
       0.010 -0.129 -0.547  0.226  0.795
      -0.030 -0.804  0.188 -0.543  0.154
      -0.014  0.188  0.805  0.154  0.541
     occupation matrix ns (before diag.):
       0.158 -0.000  0.000 -0.000 -0.000
      -0.000  0.353 -0.000 -0.127 -0.000
       0.000 -0.000  0.354 -0.000  0.126
      -0.000 -0.127 -0.000  0.254  0.000
      -0.000 -0.000  0.126  0.000  0.255

     Number of occupied Hubbard levels =    5.6264

     Atomic wfc used for Hubbard projectors are NOT orthogonalized

     Starting wfcs are  756 atomic wfcs
     Checking if some PAW data can be deallocated... 

     total cpu time spent up to now is      100.9 secs

     Self-consistent Calculation

     iteration #  1     ecut=    90.00 Ry     beta= 0.30
     Davidson diagonalization with overlap
     ethr =  1.00E-05,  avg # of iterations =  8.6

     =================== HUBBARD OCCUPATIONS ===================
     ------------------------ ATOM    1 ------------------------
     Tr[ns(  1)] (up, down, total) =   4.24234  1.35527  5.59761
     Atomic magnetic moment for atom   1 =   2.88708
     SPIN  1
     eigenvalues:
       0.633  0.635  0.991  0.992  0.992
     eigenvectors (columns):
      -0.000  0.000 -0.950  0.246 -0.191
      -0.801  0.200  0.173  0.481 -0.240
      -0.199 -0.802 -0.032  0.261  0.498
       0.548 -0.136  0.253  0.702 -0.351
      -0.136 -0.547  0.048 -0.382 -0.731
     occupation matrix ns (before diag.):
       0.991  0.000 -0.000  0.000  0.000
       0.000  0.748 -0.000  0.167 -0.000
      -0.000 -0.000  0.748  0.000 -0.166
       0.000  0.167  0.000  0.877  0.000
       0.000 -0.000 -0.166  0.000  0.878
     SPIN  2
     eigenvalues:
       0.155  0.164  0.166  0.435  0.436
     eigenvectors (columns):
      -0.999  0.030 -0.024  0.000 -0.000
      -0.019 -0.549  0.128  0.794 -0.226
       0.010 -0.128 -0.548  0.226  0.795
      -0.029 -0.804  0.187 -0.543  0.154
      -0.014  0.187  0.805  0.154  0.541
     occupation matrix ns (before diag.):
       0.155 -0.000  0.000 -0.000 -0.000
      -0.000  0.349 -0.000 -0.126 -0.000
       0.000 -0.000  0.350 -0.000  0.126
      -0.000 -0.126 -0.000  0.250  0.000
      -0.000 -0.000  0.126  0.000  0.251

     Number of occupied Hubbard levels =    5.5976

     Threshold (ethr) on eigenvalues was too large:
     Diagonalizing with lowered threshold

     Davidson diagonalization with overlap
     ethr =  4.63E-08,  avg # of iterations =  3.2

     negative rho (up, down):  1.304E-01 1.475E-01

     total cpu time spent up to now is      597.6 secs

     total energy              =  -24931.15785268 Ry
     estimated scf accuracy    <       0.00029096 Ry

     total magnetization       =    54.00 Bohr mag/cell
     absolute magnetization    =    65.39 Bohr mag/cell

     iteration #  2     ecut=    90.00 Ry     beta= 0.30
     Davidson diagonalization with overlap
     ethr =  4.62E-08,  avg # of iterations =  6.0

     negative rho (up, down):  1.304E-01 1.475E-01

     total cpu time spent up to now is      740.4 secs

     total energy              =  -24931.15788107 Ry
     estimated scf accuracy    <       0.00089691 Ry

     total magnetization       =    54.00 Bohr mag/cell
     absolute magnetization    =    65.41 Bohr mag/cell

     iteration #  3     ecut=    90.00 Ry     beta= 0.30
     Davidson diagonalization with overlap
     ethr =  4.62E-08,  avg # of iterations =  4.9

     negative rho (up, down):  1.304E-01 1.475E-01

     total cpu time spent up to now is      858.4 secs

     total energy              =  -24931.15797121 Ry
     estimated scf accuracy    <       0.00000100 Ry

     total magnetization       =    54.00 Bohr mag/cell
     absolute magnetization    =    65.40 Bohr mag/cell

     iteration #  4     ecut=    90.00 Ry     beta= 0.30
     Davidson diagonalization with overlap
     ethr =  1.59E-10,  avg # of iterations =  6.0

     negative rho (up, down):  1.304E-01 1.475E-01

     total cpu time spent up to now is     1025.8 secs

     total energy              =  -24931.15797221 Ry
     estimated scf accuracy    <       0.00000080 Ry

     total magnetization       =    54.00 Bohr mag/cell
     absolute magnetization    =    65.40 Bohr mag/cell

     iteration #  5     ecut=    90.00 Ry     beta= 0.30
     Davidson diagonalization with overlap
     ethr =  1.28E-10,  avg # of iterations =  2.5

     negative rho (up, down):  1.304E-01 1.475E-01

     total cpu time spent up to now is     1126.3 secs

     total energy              =  -24931.15797235 Ry
     estimated scf accuracy    <       0.00000030 Ry

     total magnetization       =    54.00 Bohr mag/cell
     absolute magnetization    =    65.40 Bohr mag/cell

     iteration #  6     ecut=    90.00 Ry     beta= 0.30
     Davidson diagonalization with overlap
     ethr =  4.81E-11,  avg # of iterations =  3.5

     negative rho (up, down):  1.304E-01 1.475E-01

     total cpu time spent up to now is     1238.9 secs

     total energy              =  -24931.15797241 Ry
     estimated scf accuracy    <       0.00000014 Ry

     total magnetization       =    54.00 Bohr mag/cell
     absolute magnetization    =    65.40 Bohr mag/cell

     iteration #  7     ecut=    90.00 Ry     beta= 0.30
     Davidson diagonalization with overlap
     ethr =  2.23E-11,  avg # of iterations =  2.4

     negative rho (up, down):  1.304E-01 1.475E-01

     total cpu time spent up to now is     1330.3 secs

     total energy              =  -24931.15797243 Ry
     estimated scf accuracy    <       0.00000006 Ry

     total magnetization       =    54.00 Bohr mag/cell
     absolute magnetization    =    65.40 Bohr mag/cell

     iteration #  8     ecut=    90.00 Ry     beta= 0.30
     Davidson diagonalization with overlap
     ethr =  8.87E-12,  avg # of iterations =  4.0

     negative rho (up, down):  1.304E-01 1.475E-01

     total cpu time spent up to now is     1429.3 secs

     total energy              =  -24931.15797244 Ry
     estimated scf accuracy    <          6.5E-09 Ry

     total magnetization       =    54.00 Bohr mag/cell
     absolute magnetization    =    65.40 Bohr mag/cell

     iteration #  9     ecut=    90.00 Ry     beta= 0.30
     Davidson diagonalization with overlap
     ethr =  1.03E-12,  avg # of iterations =  5.1

     negative rho (up, down):  1.304E-01 1.475E-01

     total cpu time spent up to now is     1569.1 secs

     total energy              =  -24931.15797244 Ry
     estimated scf accuracy    <          3.3E-09 Ry

     total magnetization       =    54.00 Bohr mag/cell
     absolute magnetization    =    65.40 Bohr mag/cell

     iteration # 10     ecut=    90.00 Ry     beta= 0.30
     Davidson diagonalization with overlap
     ethr =  5.27E-13,  avg # of iterations =  4.2

     negative rho (up, down):  1.304E-01 1.475E-01

     total cpu time spent up to now is     1682.0 secs

     total energy              =  -24931.15797244 Ry
     estimated scf accuracy    <          1.3E-09 Ry

     total magnetization       =    54.00 Bohr mag/cell
     absolute magnetization    =    65.40 Bohr mag/cell

     iteration # 11     ecut=    90.00 Ry     beta= 0.30
     Davidson diagonalization with overlap
     ethr =  2.00E-13,  avg # of iterations =  5.4

     negative rho (up, down):  1.304E-01 1.475E-01

     total cpu time spent up to now is     1809.1 secs

     total energy              =  -24931.15797244 Ry
     estimated scf accuracy    <          7.7E-10 Ry

     total magnetization       =    54.00 Bohr mag/cell
     absolute magnetization    =    65.40 Bohr mag/cell

     iteration # 12     ecut=    90.00 Ry     beta= 0.30
     Davidson diagonalization with overlap
     ethr =  1.22E-13,  avg # of iterations =  3.0

     negative rho (up, down):  1.304E-01 1.475E-01

     total cpu time spent up to now is     1913.2 secs

     total energy              =  -24931.15797244 Ry
     estimated scf accuracy    <          1.1E-10 Ry

     total magnetization       =    54.00 Bohr mag/cell
     absolute magnetization    =    65.40 Bohr mag/cell

     iteration # 13     ecut=    90.00 Ry     beta= 0.30
     Davidson diagonalization with overlap
     ethr =  1.00E-13,  avg # of iterations =  3.9

     negative rho (up, down):  1.304E-01 1.475E-01

     Magnetic moment per site  (integrated on atomic sphere of radius R)
     atom   1 (R=0.053)  charge= 12.4092  magn=  2.9300
     atom   2 (R=0.053)  charge= 12.4086  magn=  2.9136
     atom   3 (R=0.053)  charge= 12.4086  magn=  2.9136
     atom   4 (R=0.053)  charge=  4.0328  magn= -0.0666
     atom   5 (R=0.053)  charge=  4.0497  magn= -0.0522
     atom   6 (R=0.053)  charge=  4.0328  magn= -0.0666
     atom   7 (R=0.053)  charge=  4.0248  magn= -0.0724
     atom   8 (R=0.053)  charge=  4.0502  magn= -0.0558
     atom   9 (R=0.053)  charge=  4.0248  magn= -0.0723
     atom  10 (R=0.053)  charge= 12.4124  magn=  2.9202
     atom  11 (R=0.053)  charge= 12.4091  magn=  2.9162
     atom  12 (R=0.053)  charge=  4.0513  magn= -0.0516
     atom  13 (R=0.053)  charge=  4.0498  magn= -0.0517
     atom  14 (R=0.053)  charge=  4.0336  magn= -0.0637
     atom  15 (R=0.053)  charge=  4.0500  magn= -0.0523
     atom  16 (R=0.053)  charge=  4.0513  magn= -0.0523
     atom  17 (R=0.053)  charge=  4.0253  magn= -0.0709
     atom  18 (R=0.053)  charge= 12.4122  magn=  2.9227
     atom  19 (R=0.053)  charge= 12.3252  magn=  3.0168
     atom  20 (R=0.053)  charge=  4.0507  magn= -0.0525
     atom  21 (R=0.053)  charge=  4.0444  magn= -0.0604
     atom  22 (R=0.053)  charge=  4.0302  magn= -0.0695
     atom  23 (R=0.053)  charge=  4.0499  magn= -0.0520
     atom  24 (R=0.053)  charge=  4.0486  magn= -0.0515
     atom  25 (R=0.053)  charge=  4.0214  magn= -0.0769
     atom  26 (R=0.053)  charge= 12.4090  magn=  2.9162
     atom  27 (R=0.053)  charge= 12.4124  magn=  2.9202
     atom  28 (R=0.053)  charge=  4.0336  magn= -0.0637
     atom  29 (R=0.053)  charge=  4.0498  magn= -0.0517
     atom  30 (R=0.053)  charge=  4.0513  magn= -0.0516
     atom  31 (R=0.053)  charge=  4.0253  magn= -0.0709
     atom  32 (R=0.053)  charge=  4.0513  magn= -0.0523
     atom  33 (R=0.053)  charge=  4.0499  magn= -0.0523
     atom  34 (R=0.053)  charge= 12.4128  magn=  2.9232
     atom  35 (R=0.053)  charge=  4.0524  magn= -0.0500
     atom  36 (R=0.053)  charge=  4.0504  magn= -0.0516
     atom  37 (R=0.053)  charge=  4.0520  magn= -0.0495
     atom  38 (R=0.053)  charge=  4.0511  magn= -0.0513
     atom  39 (R=0.053)  charge=  4.0529  magn= -0.0492
     atom  40 (R=0.053)  charge=  4.0506  magn= -0.0507
     atom  41 (R=0.053)  charge= 12.4124  magn=  2.9257
     atom  42 (R=0.053)  charge= 12.3292  magn=  3.0258
     atom  43 (R=0.053)  charge=  4.0514  magn= -0.0504
     atom  44 (R=0.053)  charge=  4.0448  magn= -0.0597
     atom  45 (R=0.053)  charge=  4.0486  magn= -0.0544
     atom  46 (R=0.053)  charge=  4.0507  magn= -0.0504
     atom  47 (R=0.053)  charge=  4.0495  magn= -0.0482
     atom  48 (R=0.053)  charge=  4.0467  magn= -0.0568
     atom  49 (R=0.053)  charge= 12.3252  magn=  3.0168
     atom  50 (R=0.053)  charge= 12.4122  magn=  2.9227
     atom  51 (R=0.053)  charge=  4.0302  magn= -0.0695
     atom  52 (R=0.053)  charge=  4.0444  magn= -0.0604
     atom  53 (R=0.053)  charge=  4.0507  magn= -0.0525
     atom  54 (R=0.053)  charge=  4.0214  magn= -0.0769
     atom  55 (R=0.053)  charge=  4.0486  magn= -0.0515
     atom  56 (R=0.053)  charge=  4.0499  magn= -0.0520
     atom  57 (R=0.053)  charge= 12.3291  magn=  3.0258
     atom  58 (R=0.053)  charge= 12.4125  magn=  2.9257
     atom  59 (R=0.053)  charge=  4.0486  magn= -0.0544
     atom  60 (R=0.053)  charge=  4.0448  magn= -0.0597
     atom  61 (R=0.053)  charge=  4.0519  magn= -0.0510
     atom  62 (R=0.053)  charge=  4.0467  magn= -0.0568
     atom  63 (R=0.053)  charge=  4.0495  magn= -0.0482
     atom  64 (R=0.053)  charge=  4.0511  magn= -0.0509
     atom  65 (R=0.053)  charge= 12.3290  magn=  3.0298
     atom  66 (R=0.053)  charge= 12.3290  magn=  3.0298
     atom  67 (R=0.053)  charge=  4.0479  magn= -0.0555
     atom  68 (R=0.053)  charge=  4.0397  magn= -0.0675
     atom  69 (R=0.053)  charge=  4.0479  magn= -0.0555
     atom  70 (R=0.053)  charge=  4.0471  magn= -0.0559
     atom  71 (R=0.053)  charge=  4.0465  magn= -0.0471
     atom  72 (R=0.053)  charge=  4.0471  magn= -0.0559

     total cpu time spent up to now is     2006.3 secs

     End of self-consistent calculation

     =================== HUBBARD OCCUPATIONS ===================
     ------------------------ ATOM    1 ------------------------
     Tr[ns(  1)] (up, down, total) =   4.25162  1.36352  5.61514
     Atomic magnetic moment for atom   1 =   2.88810
     SPIN  1
     eigenvalues:
       0.637  0.639  0.991  0.992  0.992
     eigenvectors (columns):
      -0.000  0.000 -0.957  0.232 -0.176
      -0.801  0.198  0.162  0.487 -0.237
      -0.198 -0.802 -0.031  0.255  0.502
       0.549 -0.135  0.236  0.711 -0.346
      -0.135 -0.547  0.045 -0.373 -0.736
     occupation matrix ns (before diag.):
       0.991  0.000 -0.000  0.000  0.000
       0.000  0.751 -0.000  0.165 -0.000
      -0.000 -0.000  0.751  0.000 -0.164
       0.000  0.165  0.000  0.879  0.000
       0.000 -0.000 -0.164  0.000  0.880
     SPIN  2
     eigenvalues:
       0.156  0.165  0.167  0.437  0.438
     eigenvectors (columns):
      -0.999  0.030 -0.025  0.000 -0.000
      -0.019 -0.549  0.128  0.794 -0.226
       0.010 -0.129 -0.548  0.226  0.795
      -0.029 -0.804  0.188 -0.543  0.154
      -0.014  0.188  0.805  0.154  0.541
     occupation matrix ns (before diag.):
       0.156 -0.000  0.000 -0.000 -0.000
      -0.000  0.351 -0.000 -0.127 -0.000
       0.000 -0.000  0.352 -0.000  0.126
      -0.000 -0.127 -0.000  0.252  0.000
      -0.000 -0.000  0.126  0.000  0.253

     Number of occupied Hubbard levels =    5.6151

 ------ SPIN UP ------------


          k = 0.0000 0.0000 0.0000 (****** PWs)   bands (ev):

   -76.1370 -76.1370 -76.0608 -76.0608 -76.0127 -76.0126 -75.9807 -75.9807
   -75.9798 -75.9326 -75.9300 -75.9300 -75.8507 -75.8507 -75.8504 -75.8504
   -75.7725 -75.7724 -47.4876 -47.4866 -47.4632 -47.4621 -47.4578 -47.4574
   -47.4085 -47.4084 -47.3880 -47.3880 -47.3822 -47.3822 -47.3521 -47.3520
   -47.3457 -47.3455 -47.3395 -47.3393 -47.3273 -47.3272 -47.3171 -47.3106
   -47.3078 -47.3059 -47.3059 -47.3014 -47.3013 -47.2710 -47.2696 -47.2696
   -47.2645 -47.2631 -47.2631 -47.2618 -47.2560 -47.2559 -47.1889 -47.1888
   -47.1885 -47.1884 -47.1835 -47.1835 -47.1816 -47.1816 -47.1796 -47.1795
   -47.1763 -47.1763 -47.1102 -47.1099 -47.1064 -47.1044 -47.0973 -47.0971
   -16.2046 -16.0677 -16.0164 -15.9908 -15.9548 -15.8950 -15.8619 -15.7102
   -15.6637 -15.6336 -15.6072 -15.4952 -15.4790 -15.4546 -15.4249 -15.4087
   -15.3802 -15.3553 -15.3463 -15.3329 -15.3317 -15.3105 -15.2941 -15.2752
   -15.2694 -15.2477 -15.2380 -15.2359 -15.2033 -15.1886 -15.1756 -15.1717
   -15.1653 -15.1537 -15.1265 -15.1214 -15.1118 -15.1040 -15.0980 -15.0828
   -15.0764 -15.0625 -15.0312 -15.0219 -15.0067 -14.9956 -14.9860 -14.9100
   -14.8807 -14.8794 -14.8183 -14.8159 -14.7420 -14.7135  -7.9496  -7.8746
    -7.8381  -7.7908  -7.7805  -7.7426  -7.6951  -7.4070  -7.3803  -7.3760
    -7.3656  -7.3306  -7.2909  -7.2646  -7.2338  -7.2192  -7.1429  -7.1358
    -6.9821  -6.9479  -6.9416  -6.8979  -6.8804  -6.8585  -6.8486  -6.8397
    -6.8117  -6.8109  -6.7736  -6.7492  -6.7289  -6.7229  -6.7045  -6.6879
    -6.6840  -6.6721  -6.6489  -6.6409  -6.6290  -6.6035  -6.5882  -6.5881
    -6.5645  -6.5394  -6.5056  -6.4948  -6.4734  -6.4667  -6.4291  -6.4050
    -6.3970  -6.3767  -6.3420  -6.3414  -6.3361  -6.2987  -6.2832  -6.2679
    -6.2547  -6.2346  -6.1931  -6.1648  -6.1526  -6.1221  -6.1182  -6.0830
    -6.0530  -6.0291  -6.0236  -5.9878  -5.9876  -5.9827  -5.9737  -5.9371
    -5.9282  -5.9179  -5.8889  -5.8860  -5.8570  -5.8434  -5.8057  -5.7740
    -5.6822  -5.6513  -5.6270  -5.6226  -5.5777  -5.5168  -5.4982  -5.4717
    -5.4594  -5.4291  -5.3863  -5.3639  -5.3482  -5.3199  -5.2880  -5.2660
    -5.2479  -5.2309  -5.2123  -5.1987  -5.1765  -5.1731  -5.1520  -5.1408
    -5.1258  -5.1211  -5.0631  -5.0461  -5.0265  -5.0204  -5.0191  -5.0073
    -4.9896  -4.9795  -4.9519  -4.9463  -4.9291  -4.9125  -4.8753  -4.8673
    -4.8538  -4.8401  -4.8188  -4.7866  -4.7784  -4.7667  -4.7376  -4.7154
    -4.7064  -4.6936  -4.6848  -4.6773  -4.6768  -4.6262  -4.6095  -4.5541
    -4.5383  -4.5154  -4.4861  -4.4473  -4.4421  -4.4329  -4.4004  -4.3958
    -4.3730  -4.3703  -4.3553  -4.3477  -4.3468  -4.3224  -4.3170  -4.2882
    -4.2848  -4.2398  -4.2199  -4.2156  -4.1906  -4.1843  -4.1544  -4.1290
    -4.1061  -4.0840  -4.0809  -4.0514  -4.0136  -4.0106  -4.0025  -3.9849
    -3.9532  -3.9507  -3.9316  -3.9261  -3.9211  -3.9128  -3.8977  -3.8921
    -3.8845  -3.8835  -3.8810  -3.8529  -3.8396  -3.8370  -3.8287  -3.8284
    -3.8184  -3.8161  -3.7930  -3.7853  -3.7677  -3.7651  -3.7493  -3.7291
    -3.7224  -3.7025  -3.6955  -3.6851  -3.6360  -3.6282  -3.6162  -3.6008
    -3.5969  -3.5785  -3.5041  -3.4970  -3.4890  -3.4712  -3.4409  -3.4347
    -3.4183  -3.3962  -3.3516  -3.3490  -3.3402  -3.3257

          k = 0.0000-0.5774 0.0000 (****** PWs)   bands (ev):

   -76.1370 -76.1370 -76.0608 -76.0608 -76.0127 -76.0126 -75.9807 -75.9807
   -75.9798 -75.9326 -75.9300 -75.9300 -75.8507 -75.8507 -75.8504 -75.8504
   -75.7725 -75.7724 -47.4876 -47.4866 -47.4632 -47.4621 -47.4578 -47.4574
   -47.4085 -47.4084 -47.3880 -47.3880 -47.3822 -47.3822 -47.3521 -47.3520
   -47.3457 -47.3455 -47.3395 -47.3393 -47.3273 -47.3272 -47.3171 -47.3106
   -47.3078 -47.3059 -47.3059 -47.3014 -47.3013 -47.2710 -47.2696 -47.2696
   -47.2645 -47.2631 -47.2631 -47.2618 -47.2560 -47.2559 -47.1889 -47.1888
   -47.1885 -47.1884 -47.1835 -47.1835 -47.1816 -47.1816 -47.1796 -47.1795
   -47.1763 -47.1763 -47.1102 -47.1099 -47.1064 -47.1044 -47.0973 -47.0971
   -16.1934 -16.0986 -16.0244 -15.9978 -15.9274 -15.8639 -15.8451 -15.7596
   -15.6898 -15.5930 -15.5686 -15.5202 -15.5162 -15.4634 -15.4510 -15.3949
   -15.3753 -15.3603 -15.3510 -15.3231 -15.3119 -15.3097 -15.2929 -15.2747
   -15.2513 -15.2409 -15.2299 -15.2173 -15.2062 -15.1957 -15.1815 -15.1724
   -15.1606 -15.1477 -15.1425 -15.1258 -15.1216 -15.1026 -15.1006 -15.0831
   -15.0753 -15.0618 -15.0338 -15.0282 -15.0036 -14.9958 -14.9871 -14.9087
   -14.8800 -14.8790 -14.8170 -14.8167 -14.7420 -14.7134  -7.9348  -7.8814
    -7.8181  -7.7825  -7.7661  -7.7050  -7.6420  -7.5968  -7.5257  -7.3741
    -7.3399  -7.2845  -7.2735  -7.2604  -7.2135  -7.1994  -7.1363  -7.1300
    -6.9742  -6.9482  -6.9357  -6.8967  -6.8743  -6.8659  -6.8386  -6.8366
    -6.8214  -6.8061  -6.7837  -6.7632  -6.7343  -6.7291  -6.7247  -6.7055
    -6.6977  -6.6760  -6.6521  -6.6450  -6.6291  -6.5974  -6.5634  -6.5487
    -6.5270  -6.5130  -6.4894  -6.4836  -6.4573  -6.4423  -6.4261  -6.4135
    -6.3988  -6.3899  -6.3809  -6.3330  -6.3220  -6.2927  -6.2796  -6.2692
    -6.2487  -6.2241  -6.1898  -6.1842  -6.1583  -6.1092  -6.0828  -6.0753
    -6.0600  -6.0416  -6.0210  -6.0012  -5.9817  -5.9796  -5.9597  -5.9191
    -5.9086  -5.8965  -5.8622  -5.8440  -5.8242  -5.8001  -5.7770  -5.7182
    -5.6491  -5.6203  -5.5976  -5.5928  -5.5727  -5.5530  -5.5327  -5.5255
    -5.5080  -5.4911  -5.4689  -5.4470  -5.4375  -5.4080  -5.3884  -5.3643
    -5.3462  -5.3198  -5.3034  -5.2652  -5.2432  -5.2279  -5.1998  -5.1487
    -5.1331  -5.1156  -5.0927  -5.0744  -5.0512  -5.0248  -5.0053  -4.9722
    -4.9509  -4.9163  -4.9050  -4.8938  -4.8762  -4.8529  -4.8126  -4.8014
    -4.7824  -4.7655  -4.7448  -4.7336  -4.7086  -4.6912  -4.6854  -4.6718
    -4.6658  -4.6417  -4.6186  -4.6040  -4.5968  -4.5664  -4.5534  -4.5442
    -4.5344  -4.5244  -4.5065  -4.4906  -4.4704  -4.4467  -4.4420  -4.4345
    -4.4127  -4.4059  -4.3824  -4.3751  -4.3458  -4.3050  -4.2917  -4.2731
    -4.2610  -4.2518  -4.2265  -4.2060  -4.1936  -4.1784  -4.1732  -4.1677
    -4.1591  -4.1467  -4.1186  -4.1120  -4.0847  -4.0627  -4.0413  -4.0037
    -3.9797  -3.9687  -3.9501  -3.9313  -3.9225  -3.9086  -3.8945  -3.8838
    -3.8814  -3.8692  -3.8555  -3.8536  -3.8456  -3.8373  -3.8320  -3.8182
    -3.8111  -3.7902  -3.7856  -3.7783  -3.7693  -3.7518  -3.7265  -3.7124
    -3.6897  -3.6824  -3.6610  -3.6457  -3.6369  -3.6295  -3.6164  -3.6039
    -3.5990  -3.5801  -3.5705  -3.5326  -3.4768  -3.4658  -3.4246  -3.4225
    -3.4104  -3.3961  -3.3711  -3.3518  -3.3433  -3.3293

          k = 0.5000-0.2887 0.0000 (****** PWs)   bands (ev):

   -76.1370 -76.1370 -76.0608 -76.0608 -76.0127 -76.0126 -75.9807 -75.9807
   -75.9798 -75.9326 -75.9300 -75.9300 -75.8507 -75.8507 -75.8504 -75.8504
   -75.7725 -75.7724 -47.4876 -47.4866 -47.4632 -47.4621 -47.4578 -47.4574
   -47.4085 -47.4084 -47.3880 -47.3880 -47.3822 -47.3822 -47.3521 -47.3520
   -47.3457 -47.3455 -47.3395 -47.3393 -47.3273 -47.3272 -47.3171 -47.3106
   -47.3078 -47.3059 -47.3059 -47.3014 -47.3013 -47.2710 -47.2696 -47.2696
   -47.2645 -47.2631 -47.2631 -47.2618 -47.2560 -47.2559 -47.1889 -47.1888
   -47.1885 -47.1884 -47.1835 -47.1835 -47.1816 -47.1816 -47.1796 -47.1795
   -47.1763 -47.1763 -47.1102 -47.1099 -47.1064 -47.1044 -47.0973 -47.0971
   -16.1871 -16.1185 -16.0220 -15.9705 -15.9336 -15.8683 -15.8514 -15.7684
   -15.6568 -15.6291 -15.5555 -15.5247 -15.5194 -15.4710 -15.4490 -15.3965
   -15.3641 -15.3543 -15.3496 -15.3122 -15.3084 -15.2999 -15.2965 -15.2772
   -15.2514 -15.2479 -15.2272 -15.2207 -15.2175 -15.2021 -15.1949 -15.1642
   -15.1626 -15.1439 -15.1388 -15.1250 -15.1221 -15.1032 -15.1026 -15.0763
   -15.0740 -15.0678 -15.0304 -15.0299 -15.0026 -14.9976 -14.9849 -14.9073
   -14.8803 -14.8796 -14.8183 -14.8154 -14.7421 -14.7133  -7.9288  -7.8936
    -7.7960  -7.7918  -7.7449  -7.7050  -7.6981  -7.5589  -7.5435  -7.3755
    -7.3319  -7.2920  -7.2486  -7.2440  -7.2251  -7.2193  -7.1423  -7.1248
    -6.9712  -6.9462  -6.9409  -6.8947  -6.8786  -6.8710  -6.8442  -6.8332
    -6.8263  -6.8119  -6.8009  -6.7670  -6.7649  -6.7535  -6.7104  -6.6977
    -6.6700  -6.6676  -6.6232  -6.6212  -6.6008  -6.5885  -6.5616  -6.5232
    -6.5202  -6.5060  -6.5014  -6.5007  -6.4698  -6.4544  -6.4325  -6.4082
    -6.3921  -6.3755  -6.3730  -6.3600  -6.3094  -6.3072  -6.2883  -6.2808
    -6.2667  -6.2483  -6.1952  -6.1862  -6.1249  -6.1162  -6.0778  -6.0657
    -6.0382  -6.0363  -6.0221  -5.9976  -5.9949  -5.9685  -5.9464  -5.9154
    -5.9111  -5.8990  -5.8983  -5.8722  -5.8630  -5.8427  -5.7929  -5.6722
    -5.6477  -5.6094  -5.5745  -5.5551  -5.5474  -5.5267  -5.5245  -5.5092
    -5.5059  -5.4898  -5.4783  -5.4655  -5.4479  -5.4330  -5.3950  -5.3787
    -5.3652  -5.3463  -5.3309  -5.2648  -5.2277  -5.2020  -5.1827  -5.1553
    -5.1266  -5.0845  -5.0801  -5.0627  -5.0479  -5.0248  -5.0012  -4.9963
    -4.9449  -4.9389  -4.9141  -4.8754  -4.8731  -4.8385  -4.8119  -4.8001
    -4.7860  -4.7790  -4.7348  -4.7345  -4.7174  -4.7031  -4.6864  -4.6667
    -4.6635  -4.6302  -4.6294  -4.6045  -4.5957  -4.5810  -4.5679  -4.5625
    -4.5472  -4.5089  -4.4724  -4.4710  -4.4588  -4.4586  -4.4393  -4.4276
    -4.4221  -4.4066  -4.4050  -4.3888  -4.3610  -4.2930  -4.2853  -4.2747
    -4.2659  -4.2336  -4.2206  -4.2124  -4.1998  -4.1849  -4.1738  -4.1599
    -4.1505  -4.1354  -4.1280  -4.0958  -4.0807  -4.0783  -4.0255  -4.0102
    -3.9911  -3.9690  -3.9405  -3.9312  -3.9127  -3.9121  -3.9067  -3.8927
    -3.8826  -3.8796  -3.8678  -3.8609  -3.8493  -3.8351  -3.8256  -3.8236
    -3.8063  -3.7975  -3.7897  -3.7719  -3.7640  -3.7394  -3.7261  -3.7093
    -3.6911  -3.6908  -3.6663  -3.6512  -3.6299  -3.6253  -3.6225  -3.6116
    -3.5756  -3.5750  -3.5555  -3.5308  -3.4974  -3.4500  -3.4489  -3.4247
    -3.4216  -3.3863  -3.3597  -3.3578  -3.3349  -3.3259

          k =-0.5000-0.2887 0.0000 (****** PWs)   bands (ev):

   -76.1370 -76.1370 -76.0608 -76.0608 -76.0127 -76.0126 -75.9807 -75.9807
   -75.9798 -75.9326 -75.9300 -75.9300 -75.8507 -75.8507 -75.8504 -75.8504
   -75.7725 -75.7724 -47.4876 -47.4866 -47.4632 -47.4621 -47.4578 -47.4574
   -47.4085 -47.4084 -47.3880 -47.3880 -47.3822 -47.3822 -47.3521 -47.3520
   -47.3457 -47.3455 -47.3395 -47.3393 -47.3273 -47.3272 -47.3171 -47.3106
   -47.3078 -47.3059 -47.3059 -47.3014 -47.3013 -47.2710 -47.2696 -47.2696
   -47.2645 -47.2631 -47.2631 -47.2618 -47.2560 -47.2559 -47.1889 -47.1888
   -47.1885 -47.1884 -47.1835 -47.1835 -47.1816 -47.1816 -47.1796 -47.1795
   -47.1763 -47.1763 -47.1102 -47.1099 -47.1064 -47.1044 -47.0973 -47.0971
   -16.1934 -16.0985 -16.0245 -15.9978 -15.9272 -15.8638 -15.8452 -15.7598
   -15.6898 -15.5929 -15.5686 -15.5202 -15.5163 -15.4635 -15.4510 -15.3949
   -15.3751 -15.3603 -15.3511 -15.3232 -15.3119 -15.3097 -15.2928 -15.2747
   -15.2511 -15.2409 -15.2300 -15.2174 -15.2062 -15.1955 -15.1816 -15.1724
   -15.1604 -15.1484 -15.1424 -15.1258 -15.1211 -15.1023 -15.1005 -15.0838
   -15.0756 -15.0615 -15.0335 -15.0282 -15.0038 -14.9956 -14.9871 -14.9087
   -14.8800 -14.8790 -14.8170 -14.8167 -14.7420 -14.7134  -7.9349  -7.8808
    -7.8194  -7.7820  -7.7662  -7.7048  -7.6414  -7.5970  -7.5259  -7.3745
    -7.3399  -7.2842  -7.2734  -7.2605  -7.2135  -7.1993  -7.1363  -7.1302
    -6.9741  -6.9479  -6.9360  -6.8973  -6.8734  -6.8664  -6.8375  -6.8366
    -6.8219  -6.8069  -6.7833  -6.7634  -6.7344  -6.7292  -6.7246  -6.7055
    -6.6978  -6.6759  -6.6521  -6.6451  -6.6289  -6.5972  -6.5634  -6.5487
    -6.5260  -6.5132  -6.4885  -6.4843  -6.4581  -6.4425  -6.4264  -6.4131
    -6.3987  -6.3898  -6.3814  -6.3331  -6.3222  -6.2925  -6.2799  -6.2695
    -6.2484  -6.2240  -6.1898  -6.1839  -6.1585  -6.1101  -6.0831  -6.0741
    -6.0584  -6.0415  -6.0208  -6.0014  -5.9822  -5.9804  -5.9599  -5.9188
    -5.9086  -5.8964  -5.8623  -5.8441  -5.8241  -5.8003  -5.7773  -5.7180
    -5.6488  -5.6206  -5.5982  -5.5922  -5.5731  -5.5533  -5.5320  -5.5256
    -5.5079  -5.4909  -5.4689  -5.4469  -5.4377  -5.4079  -5.3882  -5.3644
    -5.3462  -5.3200  -5.3035  -5.2656  -5.2433  -5.2273  -5.1999  -5.1485
    -5.1336  -5.1157  -5.0926  -5.0743  -5.0510  -5.0244  -5.0053  -4.9721
    -4.9510  -4.9162  -4.9051  -4.8939  -4.8762  -4.8524  -4.8127  -4.8015
    -4.7820  -4.7657  -4.7449  -4.7336  -4.7084  -4.6910  -4.6855  -4.6721
    -4.6661  -4.6419  -4.6184  -4.6041  -4.5968  -4.5665  -4.5535  -4.5441
    -4.5345  -4.5244  -4.5067  -4.4905  -4.4703  -4.4470  -4.4420  -4.4343
    -4.4124  -4.4057  -4.3823  -4.3753  -4.3457  -4.3050  -4.2917  -4.2734
    -4.2609  -4.2519  -4.2264  -4.2060  -4.1936  -4.1785  -4.1731  -4.1676
    -4.1591  -4.1467  -4.1186  -4.1120  -4.0846  -4.0627  -4.0414  -4.0036
    -3.9797  -3.9688  -3.9500  -3.9312  -3.9226  -3.9087  -3.8943  -3.8838
    -3.8813  -3.8692  -3.8555  -3.8537  -3.8456  -3.8372  -3.8320  -3.8179
    -3.8111  -3.7902  -3.7856  -3.7785  -3.7694  -3.7517  -3.7264  -3.7124
    -3.6898  -3.6825  -3.6611  -3.6456  -3.6370  -3.6295  -3.6164  -3.6039
    -3.5990  -3.5803  -3.5704  -3.5325  -3.4765  -3.4660  -3.4247  -3.4228
    -3.4103  -3.3962  -3.3712  -3.3517  -3.3430  -3.3295

 ------ SPIN DOWN ----------


          k = 0.0000 0.0000 0.0000 (****** PWs)   bands (ev):

   -72.9790 -72.9790 -72.9725 -72.9723 -72.9339 -72.9068 -72.9068 -72.8948
   -72.8928 -72.8928 -72.8343 -72.8342 -72.8185 -72.8185 -72.8157 -72.8156
   -72.7429 -72.7428 -44.3883 -44.3870 -44.3784 -44.3782 -44.3621 -44.3604
   -44.3477 -44.3476 -44.3381 -44.3349 -44.3347 -44.3319 -44.3316 -44.3122
   -44.3121 -44.3037 -44.3004 -44.3001 -44.2982 -44.2982 -44.2840 -44.2840
   -44.2692 -44.2692 -44.2672 -44.2672 -44.2656 -44.2623 -44.2542 -44.2542
   -44.2347 -44.2347 -44.2203 -44.2201 -44.2188 -44.2188 -44.2122 -44.2122
   -44.1954 -44.1954 -44.1930 -44.1930 -44.1868 -44.1867 -44.1837 -44.1837
   -44.1828 -44.1827 -44.1428 -44.1423 -44.1180 -44.1160 -44.1083 -44.1076
   -16.2128 -16.0795 -16.0318 -16.0036 -15.9701 -15.9095 -15.8816 -15.7345
   -15.6900 -15.6627 -15.6386 -15.5370 -15.5155 -15.5035 -15.4621 -15.4507
   -15.4284 -15.4035 -15.3932 -15.3747 -15.3732 -15.3586 -15.3431 -15.3212
   -15.3177 -15.2955 -15.2870 -15.2848 -15.2517 -15.2361 -15.2263 -15.2206
   -15.2133 -15.2020 -15.1748 -15.1743 -15.1632 -15.1488 -15.1443 -15.1330
   -15.1278 -15.1081 -15.0894 -15.0740 -15.0625 -15.0437 -15.0352 -14.9690
   -14.9509 -14.9447 -14.8862 -14.8832 -14.8111 -14.7843  -7.6654  -7.6174
    -7.5763  -7.5329  -7.5257  -7.4865  -7.4404  -7.1621  -7.1320  -7.1310
    -7.1175  -7.0836  -7.0439  -7.0189  -6.9955  -6.9768  -6.9053  -6.9026
    -6.8575  -6.8509  -6.8130  -6.7784  -6.7583  -6.7254  -6.6705  -6.6427
    -6.6291  -6.6088  -6.6003  -6.5551  -6.5458  -6.5448  -6.5271  -6.5244
    -6.4733  -6.4654  -6.4503  -6.4208  -6.4158  -6.4037  -6.3769  -6.3505
    -6.3431  -6.2985  -6.2962  -6.2931  -6.2534  -6.1857  -6.1475  -6.1352
    -6.1301  -6.0563  -6.0442  -6.0239  -6.0003  -5.9936  -5.9454  -5.9365
    -5.9341  -5.9272  -5.8849  -5.8792  -5.8548  -5.8110  -5.7945  -5.6186
    -5.6047  -5.5933  -5.5773  -5.5684  -5.5486  -5.5471  -5.5304  -5.5032
    -5.4967  -5.4958  -5.4843  -5.4536  -5.3997  -5.3973  -5.3846  -5.3626
    -5.3072  -5.2765  -5.2254  -5.2095  -5.1869  -5.1444  -5.1060  -5.1052
    -5.0955  -5.0610  -5.0251  -5.0174  -4.9819  -4.9785  -4.9657  -4.9583
    -4.9448  -4.9226  -4.9092  -4.8770  -4.8600  -4.8475  -4.8199  -4.8186
    -4.8007  -4.7851  -4.7717  -4.7714  -4.7482  -4.7460  -4.7217  -4.7145
    -4.6932  -4.6766  -4.6759  -4.6325  -4.6307  -4.5717  -4.5613  -4.5539
    -4.5501  -4.5451  -4.4742  -4.4572  -4.4478  -4.4468  -4.4076  -4.3773
    -4.3662  -4.3481  -4.3218  -4.3156  -4.3019  -4.2893  -4.2565  -4.2452
    -4.2334  -4.2193  -4.2093  -4.1719  -4.1104  -4.0732  -4.0688  -4.0561
    -4.0548  -3.9980  -3.9966  -3.9811  -3.9804  -3.9676  -3.9189  -3.8956
    -3.8676  -3.8326  -3.8152  -3.7653  -3.7239  -3.6876  -3.6151  -3.5913
    -1.5494  -1.5402  -1.5100  -1.5054  -1.4807  -1.4789  -1.4585  -1.4575
    -1.4196  -1.4111  -1.4051  -1.3994  -1.3783  -1.3712  -1.3467  -1.3345
    -1.3284  -1.3190  -1.3144  -1.2909  -1.2798  -1.2665  -1.2552  -1.2493
    -1.2425  -1.2261  -1.2055  -1.2016  -1.1906  -1.1672  -1.1392  -1.1218
    -1.1189  -1.1063  -1.1041  -1.0924  -1.0744  -1.0741  -1.0558  -1.0555
    -1.0483  -1.0469  -1.0296  -1.0254  -1.0238  -1.0124  -1.0093  -1.0046
    -0.9897  -0.9833  -0.9723  -0.9648  -0.9515  -0.9295

          k = 0.0000-0.5774 0.0000 (****** PWs)   bands (ev):

   -72.9790 -72.9790 -72.9725 -72.9723 -72.9339 -72.9068 -72.9068 -72.8948
   -72.8928 -72.8928 -72.8343 -72.8342 -72.8185 -72.8185 -72.8157 -72.8156
   -72.7429 -72.7428 -44.3883 -44.3870 -44.3784 -44.3782 -44.3621 -44.3604
   -44.3477 -44.3476 -44.3381 -44.3349 -44.3347 -44.3319 -44.3316 -44.3122
   -44.3121 -44.3037 -44.3004 -44.3001 -44.2982 -44.2982 -44.2840 -44.2840
   -44.2692 -44.2692 -44.2672 -44.2672 -44.2656 -44.2623 -44.2542 -44.2542
   -44.2347 -44.2347 -44.2203 -44.2201 -44.2188 -44.2188 -44.2122 -44.2122
   -44.1954 -44.1954 -44.1930 -44.1930 -44.1868 -44.1867 -44.1837 -44.1837
   -44.1828 -44.1827 -44.1428 -44.1423 -44.1180 -44.1160 -44.1083 -44.1076
   -16.2019 -16.1097 -16.0388 -16.0114 -15.9429 -15.8792 -15.8641 -15.7818
   -15.7185 -15.6248 -15.6028 -15.5558 -15.5497 -15.5025 -15.4977 -15.4448
   -15.4201 -15.4047 -15.3994 -15.3661 -15.3583 -15.3571 -15.3415 -15.3228
   -15.2960 -15.2865 -15.2763 -15.2666 -15.2559 -15.2426 -15.2332 -15.2222
   -15.2101 -15.1960 -15.1947 -15.1759 -15.1704 -15.1499 -15.1462 -15.1331
   -15.1256 -15.1067 -15.0916 -15.0836 -15.0586 -15.0451 -15.0340 -14.9682
   -14.9502 -14.9436 -14.8846 -14.8842 -14.8111 -14.7842  -7.6569  -7.6141
    -7.5568  -7.5206  -7.5125  -7.4529  -7.3900  -7.3480  -7.2761  -7.1244
    -7.0926  -7.0406  -7.0268  -7.0176  -6.9710  -6.9649  -6.9041  -6.8958
    -6.8588  -6.8342  -6.8130  -6.7647  -6.7297  -6.7153  -6.6851  -6.6607
    -6.6535  -6.6318  -6.6167  -6.5938  -6.5585  -6.5501  -6.5220  -6.4912
    -6.4889  -6.4667  -6.4558  -6.4291  -6.4253  -6.3859  -6.3346  -6.3212
    -6.3126  -6.2693  -6.2503  -6.2273  -6.1965  -6.1923  -6.1655  -6.1511
    -6.1299  -6.1099  -6.0955  -6.0787  -6.0437  -6.0270  -5.9749  -5.9618
    -5.9415  -5.8974  -5.8532  -5.8018  -5.8009  -5.6628  -5.6539  -5.6313
    -5.6238  -5.6043  -5.5804  -5.5719  -5.5486  -5.5334  -5.5140  -5.5029
    -5.4790  -5.4671  -5.4507  -5.4240  -5.4158  -5.3756  -5.3515  -5.3213
    -5.2995  -5.2834  -5.2452  -5.2380  -5.2219  -5.2127  -5.1890  -5.1683
    -5.1526  -5.1270  -5.1190  -5.0954  -5.0816  -5.0787  -5.0580  -5.0306
    -5.0063  -4.9543  -4.9365  -4.9315  -4.9220  -4.8893  -4.8743  -4.8599
    -4.8417  -4.8241  -4.8147  -4.7915  -4.7027  -4.6873  -4.6724  -4.6709
    -4.6428  -4.6242  -4.5892  -4.5749  -4.5627  -4.5413  -4.4961  -4.4938
    -4.4858  -4.4685  -4.4452  -4.4435  -4.4244  -4.4093  -4.3943  -4.3435
    -4.3238  -4.3056  -4.2966  -4.2834  -4.2645  -4.2502  -4.2345  -4.2132
    -4.1743  -4.1587  -4.1527  -4.1260  -4.1058  -4.0883  -4.0833  -4.0607
    -4.0588  -4.0331  -4.0072  -3.9838  -3.9606  -3.9524  -3.9474  -3.9089
    -3.9019  -3.8663  -3.8336  -3.8102  -3.7740  -3.7675  -3.7060  -3.6394
    -1.5548  -1.5522  -1.5244  -1.5154  -1.4927  -1.4723  -1.4667  -1.4522
    -1.4391  -1.4209  -1.4039  -1.3907  -1.3771  -1.3626  -1.3537  -1.3320
    -1.3178  -1.3063  -1.2845  -1.2784  -1.2662  -1.2518  -1.2479  -1.2358
    -1.2216  -1.2028  -1.1911  -1.1821  -1.1703  -1.1601  -1.1500  -1.1376
    -1.1333  -1.1304  -1.1222  -1.1050  -1.0970  -1.0835  -1.0778  -1.0708
    -1.0604  -1.0480  -1.0374  -1.0312  -1.0268  -1.0205  -1.0069  -1.0014
    -0.9971  -0.9817  -0.9737  -0.9572  -0.9384  -0.9269

          k = 0.5000-0.2887 0.0000 (****** PWs)   bands (ev):

   -72.9790 -72.9790 -72.9725 -72.9723 -72.9339 -72.9068 -72.9068 -72.8948
   -72.8928 -72.8928 -72.8343 -72.8342 -72.8185 -72.8185 -72.8157 -72.8156
   -72.7429 -72.7428 -44.3883 -44.3870 -44.3784 -44.3782 -44.3621 -44.3604
   -44.3477 -44.3476 -44.3381 -44.3349 -44.3347 -44.3319 -44.3316 -44.3122
   -44.3121 -44.3037 -44.3004 -44.3001 -44.2982 -44.2982 -44.2840 -44.2840
   -44.2692 -44.2692 -44.2672 -44.2672 -44.2656 -44.2623 -44.2542 -44.2542
   -44.2347 -44.2347 -44.2203 -44.2201 -44.2188 -44.2188 -44.2122 -44.2122
   -44.1954 -44.1954 -44.1930 -44.1930 -44.1868 -44.1867 -44.1837 -44.1837
   -44.1828 -44.1827 -44.1428 -44.1423 -44.1180 -44.1160 -44.1083 -44.1076
   -16.1957 -16.1291 -16.0362 -15.9852 -15.9489 -15.8863 -15.8657 -15.7918
   -15.6905 -15.6595 -15.5863 -15.5611 -15.5508 -15.5063 -15.4985 -15.4463
   -15.4126 -15.3986 -15.3979 -15.3567 -15.3544 -15.3467 -15.3437 -15.3246
   -15.2988 -15.2939 -15.2739 -15.2687 -15.2677 -15.2494 -15.2455 -15.2157
   -15.2140 -15.1902 -15.1855 -15.1761 -15.1713 -15.1513 -15.1496 -15.1257
   -15.1222 -15.1139 -15.0889 -15.0846 -15.0589 -15.0462 -15.0316 -14.9674
   -14.9509 -14.9436 -14.8863 -14.8827 -14.8112 -14.7841  -7.6524  -7.6217
    -7.5386  -7.5355  -7.4842  -7.4548  -7.4446  -7.3112  -7.2941  -7.1258
    -7.0834  -7.0478  -7.0064  -7.0047  -6.9818  -6.9720  -6.9073  -6.8931
    -6.8491  -6.8378  -6.8224  -6.7548  -6.7263  -6.7100  -6.7033  -6.6850
    -6.6562  -6.6469  -6.6343  -6.5750  -6.5737  -6.5629  -6.5353  -6.4935
    -6.4614  -6.4432  -6.4171  -6.4091  -6.3866  -6.3694  -6.3544  -6.3255
    -6.2973  -6.2928  -6.2738  -6.2293  -6.2245  -6.1905  -6.1589  -6.1493
    -6.1413  -6.1170  -6.0829  -6.0582  -5.9953  -5.9896  -5.9865  -5.9723
    -5.9497  -5.9331  -5.9203  -5.8085  -5.7688  -5.6945  -5.6689  -5.6544
    -5.6273  -5.5903  -5.5612  -5.5596  -5.5539  -5.5281  -5.5032  -5.4859
    -5.4838  -5.4714  -5.4655  -5.4371  -5.4088  -5.4053  -5.3690  -5.2979
    -5.2891  -5.2636  -5.2479  -5.2227  -5.2187  -5.2022  -5.1824  -5.1771
    -5.1556  -5.1419  -5.1283  -5.0991  -5.0726  -5.0710  -5.0347  -5.0232
    -5.0060  -4.9660  -4.9562  -4.9353  -4.9163  -4.9099  -4.8596  -4.8465
    -4.8346  -4.8190  -4.8188  -4.7015  -4.7013  -4.6962  -4.6763  -4.6604
    -4.6518  -4.6379  -4.6214  -4.6067  -4.5627  -4.5379  -4.5183  -4.5178
    -4.4982  -4.4530  -4.4303  -4.4254  -4.4033  -4.3899  -4.3738  -4.3469
    -4.3330  -4.3192  -4.2882  -4.2835  -4.2717  -4.2416  -4.2393  -4.2338
    -4.2114  -4.1884  -4.1568  -4.1191  -4.0960  -4.0834  -4.0733  -4.0449
    -4.0359  -4.0344  -4.0235  -3.9889  -3.9601  -3.9532  -3.9477  -3.9258
    -3.9075  -3.8396  -3.8394  -3.8282  -3.8160  -3.6943  -3.6882  -3.6636
    -1.5653  -1.5550  -1.5219  -1.5104  -1.4959  -1.4847  -1.4706  -1.4426
    -1.4309  -1.4198  -1.3995  -1.3954  -1.3798  -1.3587  -1.3513  -1.3340
    -1.3045  -1.2950  -1.2847  -1.2726  -1.2620  -1.2469  -1.2455  -1.2317
    -1.2294  -1.2106  -1.1950  -1.1884  -1.1697  -1.1649  -1.1556  -1.1458
    -1.1355  -1.1162  -1.1127  -1.1049  -1.0998  -1.0878  -1.0852  -1.0824
    -1.0750  -1.0505  -1.0374  -1.0248  -1.0234  -1.0204  -1.0182  -1.0011
    -0.9965  -0.9762  -0.9685  -0.9651  -0.9353  -0.9186

          k =-0.5000-0.2887 0.0000 (****** PWs)   bands (ev):

   -72.9790 -72.9790 -72.9725 -72.9723 -72.9339 -72.9068 -72.9068 -72.8948
   -72.8928 -72.8928 -72.8343 -72.8342 -72.8185 -72.8185 -72.8157 -72.8156
   -72.7429 -72.7428 -44.3883 -44.3870 -44.3784 -44.3782 -44.3621 -44.3604
   -44.3477 -44.3476 -44.3381 -44.3349 -44.3347 -44.3319 -44.3316 -44.3122
   -44.3121 -44.3037 -44.3004 -44.3001 -44.2982 -44.2982 -44.2840 -44.2840
   -44.2692 -44.2692 -44.2672 -44.2672 -44.2656 -44.2623 -44.2542 -44.2542
   -44.2347 -44.2347 -44.2203 -44.2201 -44.2188 -44.2188 -44.2122 -44.2122
   -44.1954 -44.1954 -44.1930 -44.1930 -44.1868 -44.1867 -44.1837 -44.1837
   -44.1828 -44.1827 -44.1428 -44.1423 -44.1180 -44.1160 -44.1083 -44.1076
   -16.2019 -16.1096 -16.0390 -16.0114 -15.9427 -15.8790 -15.8642 -15.7819
   -15.7185 -15.6247 -15.6028 -15.5559 -15.5497 -15.5025 -15.4977 -15.4448
   -15.4199 -15.4047 -15.3995 -15.3661 -15.3583 -15.3571 -15.3414 -15.3229
   -15.2958 -15.2865 -15.2764 -15.2666 -15.2558 -15.2425 -15.2333 -15.2222
   -15.2100 -15.1963 -15.1949 -15.1756 -15.1703 -15.1496 -15.1461 -15.1335
   -15.1259 -15.1067 -15.0915 -15.0835 -15.0587 -15.0451 -15.0340 -14.9682
   -14.9502 -14.9436 -14.8846 -14.8842 -14.8111 -14.7842  -7.6569  -7.6138
    -7.5577  -7.5203  -7.5126  -7.4526  -7.3895  -7.3482  -7.2763  -7.1247
    -7.0926  -7.0403  -7.0267  -7.0177  -6.9712  -6.9647  -6.9041  -6.8959
    -6.8588  -6.8342  -6.8129  -6.7650  -6.7292  -6.7148  -6.6856  -6.6603
    -6.6534  -6.6327  -6.6164  -6.5940  -6.5586  -6.5500  -6.5221  -6.4910
    -6.4894  -6.4671  -6.4558  -6.4288  -6.4247  -6.3858  -6.3347  -6.3214
    -6.3121  -6.2693  -6.2499  -6.2279  -6.1965  -6.1923  -6.1655  -6.1511
    -6.1301  -6.1100  -6.0954  -6.0791  -6.0438  -6.0264  -5.9747  -5.9618
    -5.9417  -5.8975  -5.8534  -5.8019  -5.8008  -5.6623  -5.6541  -5.6316
    -5.6241  -5.6032  -5.5794  -5.5718  -5.5488  -5.5335  -5.5149  -5.5039
    -5.4794  -5.4669  -5.4499  -5.4240  -5.4161  -5.3756  -5.3517  -5.3213
    -5.2996  -5.2830  -5.2449  -5.2379  -5.2226  -5.2126  -5.1891  -5.1681
    -5.1530  -5.1270  -5.1188  -5.0953  -5.0815  -5.0785  -5.0579  -5.0307
    -5.0066  -4.9542  -4.9364  -4.9314  -4.9220  -4.8894  -4.8743  -4.8600
    -4.8417  -4.8238  -4.8145  -4.7915  -4.7028  -4.6875  -4.6724  -4.6712
    -4.6429  -4.6242  -4.5893  -4.5750  -4.5627  -4.5412  -4.4959  -4.4937
    -4.4857  -4.4686  -4.4451  -4.4435  -4.4242  -4.4092  -4.3941  -4.3436
    -4.3239  -4.3057  -4.2967  -4.2832  -4.2646  -4.2502  -4.2345  -4.2133
    -4.1744  -4.1587  -4.1526  -4.1260  -4.1058  -4.0883  -4.0833  -4.0607
    -4.0588  -4.0332  -4.0072  -3.9838  -3.9606  -3.9523  -3.9473  -3.9088
    -3.9020  -3.8663  -3.8335  -3.8102  -3.7740  -3.7674  -3.7061  -3.6394
    -1.5551  -1.5516  -1.5249  -1.5145  -1.4923  -1.4734  -1.4679  -1.4524
    -1.4388  -1.4211  -1.4029  -1.3904  -1.3776  -1.3615  -1.3538  -1.3324
    -1.3174  -1.3056  -1.2842  -1.2788  -1.2658  -1.2520  -1.2501  -1.2352
    -1.2215  -1.2020  -1.1909  -1.1822  -1.1704  -1.1597  -1.1514  -1.1380
    -1.1331  -1.1309  -1.1221  -1.1046  -1.0964  -1.0838  -1.0780  -1.0709
    -1.0596  -1.0483  -1.0372  -1.0308  -1.0269  -1.0208  -1.0070  -1.0008
    -0.9973  -0.9817  -0.9736  -0.9575  -0.9385  -0.9268

     highest occupied, lowest unoccupied level (ev):    -3.3257   -1.5653

!    total energy              =  -24931.15797244 Ry
     total all-electron energy =    -24931.157972 Ry
     estimated scf accuracy    <          7.5E-11 Ry

     The total energy is the sum of the following terms:
     one-electron contribution =  -25177.27991569 Ry
     hartree contribution      =   12523.78624302 Ry
     xc contribution           =    -743.78194745 Ry
     ewald contribution        =    8913.20911809 Ry
     Hubbard energy            =       0.02063524 Ry
     one-center paw contrib.   =  -20447.11210565 Ry

     total magnetization       =    54.00 Bohr mag/cell
     absolute magnetization    =    65.40 Bohr mag/cell

     convergence has been achieved in  13 iterations

     negative rho (up, down):  1.304E-01 1.475E-01

     Forces acting on atoms (cartesian axes, Ry/au):

     atom    1 type  1   force =    -0.00112203   -0.00196846    0.00012012
     atom    2 type  3   force =    -0.00245937   -0.00777491    0.00226477
     atom    3 type  3   force =    -0.00550436   -0.00601798    0.00226527
     atom    4 type  2   force =     0.00487086   -0.02270446   -0.00065669
     atom    5 type  2   force =    -0.00320445   -0.00555903   -0.00949196
     atom    6 type  2   force =    -0.02210373   -0.00713633   -0.00065798
     atom    7 type  2   force =     0.00731203   -0.02442481   -0.00194498
     atom    8 type  2   force =     0.00247181    0.00427377    0.00888789
     atom    9 type  2   force =    -0.02481214   -0.00588360   -0.00194337
     atom   10 type  3   force =    -0.00176783   -0.00209701    0.00022899
     atom   11 type  3   force =    -0.00562191   -0.00546389    0.00214598
     atom   12 type  2   force =     0.00494561    0.00062477   -0.00970733
     atom   13 type  2   force =    -0.00289886   -0.00482871   -0.00926268
     atom   14 type  2   force =    -0.02182074   -0.00648079   -0.00078150
     atom   15 type  2   force =    -0.00560967    0.00087679    0.00924563
     atom   16 type  2   force =     0.00235698    0.00469248    0.00945633
     atom   17 type  2   force =    -0.02497469   -0.00541903   -0.00195974
     atom   18 type  3   force =    -0.00134556   -0.00138982   -0.00052512
     atom   19 type  3   force =    -0.01444196    0.02876758    0.00308872
     atom   20 type  2   force =     0.00466504    0.00073104   -0.00975761
     atom   21 type  2   force =    -0.00418111    0.00236437   -0.00760095
     atom   22 type  2   force =    -0.01977192   -0.00451721    0.00137827
     atom   23 type  2   force =    -0.00560565    0.00077181    0.00953159
     atom   24 type  2   force =    -0.00279659    0.01174658    0.00748430
     atom   25 type  2   force =    -0.02316254    0.00011938   -0.00335612
     atom   26 type  3   force =    -0.00192136   -0.00759856    0.00214592
     atom   27 type  3   force =    -0.00093039   -0.00258202    0.00022952
     atom   28 type  2   force =     0.00529702   -0.02213201   -0.00078013
     atom   29 type  2   force =    -0.00272600   -0.00492942   -0.00926069
     atom   30 type  2   force =    -0.00194324    0.00458319   -0.00970896
     atom   31 type  2   force =     0.00779530   -0.02433343   -0.00196089
     atom   32 type  2   force =     0.00289530    0.00437534    0.00945739
     atom   33 type  2   force =     0.00355790   -0.00442392    0.00924334
     atom   34 type  3   force =    -0.00114984   -0.00195711    0.00012024
     atom   35 type  2   force =     0.00568500    0.00074247   -0.01019317
     atom   36 type  2   force =    -0.00298452   -0.00430097   -0.00952240
     atom   37 type  2   force =    -0.00172157    0.00532971   -0.00986135
     atom   38 type  2   force =    -0.00533671    0.00053581    0.00961550
     atom   39 type  2   force =     0.00252396    0.00523775    0.01031846
     atom   40 type  2   force =     0.00339354   -0.00395582    0.00928654
     atom   41 type  3   force =    -0.00067610   -0.00121205   -0.00063913
     atom   42 type  3   force =    -0.00990718    0.03240348    0.00109832
     atom   43 type  2   force =     0.00516629    0.00124181   -0.00990432
     atom   44 type  2   force =    -0.00376779    0.00280870   -0.00757534
     atom   45 type  2   force =    -0.00022057    0.00755288   -0.00794213
     atom   46 type  2   force =    -0.00513458    0.00081659    0.00956393
     atom   47 type  2   force =    -0.00238091    0.01192895    0.00802016
     atom   48 type  2   force =     0.00497928    0.00145626    0.00795464
     atom   49 type  3   force =     0.03213215    0.00187590    0.00308800
     atom   50 type  3   force =    -0.00053215   -0.00185967   -0.00052467
     atom   51 type  2   force =     0.00597334   -0.01937586    0.00137944
     atom   52 type  2   force =     0.00414444   -0.00244305   -0.00760103
     atom   53 type  2   force =    -0.00170574    0.00440086   -0.00975707
     atom   54 type  2   force =     0.01168561   -0.01999598   -0.00335778
     atom   55 type  2   force =     0.01157688    0.00344781    0.00748456
     atom   56 type  2   force =     0.00346490   -0.00447233    0.00953155
     atom   57 type  3   force =     0.03301215    0.00761959    0.00109753
     atom   58 type  3   force =    -0.00070348   -0.00118847   -0.00063777
     atom   59 type  2   force =     0.00665124    0.00359378   -0.00794227
     atom   60 type  2   force =     0.00433180   -0.00186213   -0.00757631
     atom   61 type  2   force =    -0.00125196    0.00549044   -0.01023222
     atom   62 type  2   force =    -0.00122817    0.00504721    0.00795423
     atom   63 type  2   force =     0.01152611    0.00389980    0.00801821
     atom   64 type  2   force =     0.00375069   -0.00400422    0.00989517
     atom   65 type  3   force =     0.03345861    0.00837383    0.00038831
     atom   66 type  3   force =    -0.00947723    0.03316544    0.00038881
     atom   67 type  2   force =     0.00635845    0.00365092   -0.00799140
     atom   68 type  2   force =     0.00304651    0.00527064   -0.00612855
     atom   69 type  2   force =    -0.00002312    0.00732824   -0.00799298
     atom   70 type  2   force =    -0.00130737    0.00478987    0.00826511
     atom   71 type  2   force =     0.00641465    0.01110474    0.00583047
     atom   72 type  2   force =     0.00479166    0.00125245    0.00826336

     Total force =     0.137595     Total SCF correction =     0.000014


     Computing stress (Cartesian axis) and pressure


     negative rho (up, down):  1.304E-01 1.475E-01
          total   stress  (Ry/bohr**3)                   (kbar)     P=        1.85
   0.00001247  -0.00000122   0.00000070            1.83       -0.18        0.10
  -0.00000122   0.00001107   0.00000121           -0.18        1.63        0.18
   0.00000070   0.00000121   0.00001425            0.10        0.18        2.10


     Writing all to output data dir ./Cr_0.05_0/Cr_0_0.save/ :
     XML data file, charge density, pseudopotentials, collected wavefunctions

     init_run     :    169.35s CPU    100.11s WALL (       1 calls)
     electrons    :   3518.28s CPU   1906.38s WALL (       1 calls)
     forces       :    142.15s CPU     75.61s WALL (       1 calls)
     stress       :    841.48s CPU    446.47s WALL (       1 calls)

     Called by init_run:
     wfcinit      :    150.99s CPU     80.32s WALL (       1 calls)
     potinit      :      3.49s CPU      4.02s WALL (       1 calls)
     hinit0       :      2.58s CPU      2.91s WALL (       1 calls)

     Called by electrons:
     c_bands      :   3038.94s CPU   1619.29s WALL (      14 calls)
     sum_band     :    426.02s CPU    239.78s WALL (      14 calls)
     v_of_rho     :     17.04s CPU     15.40s WALL (      14 calls)
     newd         :     25.39s CPU     25.00s WALL (      14 calls)
     PAW_pot      :      9.19s CPU      6.52s WALL (      14 calls)
     mix_rho      :      2.70s CPU      2.17s WALL (      14 calls)

     Called by c_bands:
     init_us_2    :     24.67s CPU     12.73s WALL (     272 calls)
     init_us_2:cp :     24.67s CPU     12.73s WALL (     272 calls)
     cegterg      :   3010.24s CPU   1601.91s WALL (     112 calls)

     Called by *egterg:
     cdiaghg      :    314.33s CPU    180.11s WALL (     606 calls)
     h_psi        :   1812.19s CPU    937.81s WALL (     622 calls)
     s_psi        :    214.08s CPU    108.46s WALL (     646 calls)
     g_psi        :      6.50s CPU      3.32s WALL (     502 calls)

     Called by h_psi:
     h_psi:calbec :    226.80s CPU    118.73s WALL (     622 calls)
     vloc_psi     :   1355.41s CPU    693.60s WALL (     622 calls)
     add_vuspsi   :    194.31s CPU     98.61s WALL (     622 calls)
     vhpsi        :     30.15s CPU     17.14s WALL (     622 calls)

     General routines
     calbec       :    749.68s CPU    397.40s WALL (   29268 calls)
     fft          :     17.84s CPU     18.81s WALL (     390 calls)
     ffts         :      2.39s CPU      2.02s WALL (      56 calls)
     fftw         :   1195.55s CPU    613.60s WALL (  270148 calls)
     interpolate  :      2.69s CPU      2.30s WALL (      28 calls)

     Parallel routines

     Hubbard U routines
     new_ns       :      6.34s CPU      4.54s WALL (      14 calls)
     vhpsi        :     30.15s CPU     17.14s WALL (     622 calls)
     force_hub    :    109.73s CPU     56.98s WALL (       1 calls)
                                        0.00s GPU  (       1 calls)
     stres_hub    :    310.12s CPU    162.50s WALL (       1 calls)
                                        0.00s GPU  (       1 calls)

     PWSCF        :      1h18m CPU  42m51.21s WALL


   This run was terminated on:  17:26:25   4Sep2025            

=------------------------------------------------------------------------------=
   JOB DONE.
=------------------------------------------------------------------------------=
[1757003185.117425] [node114:1516088:0]          mpool.c:43   UCX  WARN  object 0x6552e80 was not returned to mpool ucp_requests
[1757003185.117440] [node114:1516088:0]          mpool.c:43   UCX  WARN  object 0x6553040 was not returned to mpool ucp_requests
[1757003185.117442] [node114:1516088:0]          mpool.c:43   UCX  WARN  object 0x653a800 was not returned to mpool ucp_requests
[1757003185.117444] [node114:1516088:0]          mpool.c:43   UCX  WARN  object 0x653bec0 was not returned to mpool ucp_requests
[1757003185.117445] [node114:1516088:0]          mpool.c:43   UCX  WARN  object 0x6540680 was not returned to mpool ucp_requests
[1757003185.117446] [node114:1516088:0]          mpool.c:43   UCX  WARN  object 0x6541100 was not returned to mpool ucp_requests
[1757003185.117447] [node114:1516088:0]          mpool.c:43   UCX  WARN  object 0x6543080 was not returned to mpool ucp_requests
[1757003185.117448] [node114:1516088:0]          mpool.c:43   UCX  WARN  object 0x6543780 was not returned to mpool ucp_requests
[1757003185.117449] [node114:1516088:0]          mpool.c:43   UCX  WARN  object 0x6546c00 was not returned to mpool ucp_requests
[1757003185.117451] [node114:1516088:0]          mpool.c:43   UCX  WARN  object 0x38b9c00 was not returned to mpool ucp_requests
[1757003185.117452] [node114:1516088:0]          mpool.c:43   UCX  WARN  object 0x38bb9c0 was not returned to mpool ucp_requests
[1757003185.117453] [node114:1516088:0]          mpool.c:43   UCX  WARN  object 0x38bc0c0 was not returned to mpool ucp_requests
[1757003185.117454] [node114:1516088:0]          mpool.c:43   UCX  WARN  object 0x38c22c0 was not returned to mpool ucp_requests
[1757003185.117417] [node114:1516084:0]          mpool.c:43   UCX  WARN  object 0x709ed40 was not returned to mpool ucp_requests
[1757003185.117434] [node114:1516084:0]          mpool.c:43   UCX  WARN  object 0x70841c0 was not returned to mpool ucp_requests
[1757003185.117437] [node114:1516084:0]          mpool.c:43   UCX  WARN  object 0x708ba80 was not returned to mpool ucp_requests
[1757003185.117438] [node114:1516084:0]          mpool.c:43   UCX  WARN  object 0x7090b00 was not returned to mpool ucp_requests
[1757003185.117439] [node114:1516084:0]          mpool.c:43   UCX  WARN  object 0x7090cc0 was not returned to mpool ucp_requests
[1757003185.117440] [node114:1516084:0]          mpool.c:43   UCX  WARN  object 0x44051c0 was not returned to mpool ucp_requests
[1757003185.117442] [node114:1516084:0]          mpool.c:43   UCX  WARN  object 0x440ddc0 was not returned to mpool ucp_requests
[1757003185.116927] [node114:1516072:0]          mpool.c:43   UCX  WARN  object 0x66584c0 was not returned to mpool ucp_requests
[1757003185.116944] [node114:1516072:0]          mpool.c:43   UCX  WARN  object 0x665a440 was not returned to mpool ucp_requests
[1757003185.116946] [node114:1516072:0]          mpool.c:43   UCX  WARN  object 0x665aec0 was not returned to mpool ucp_requests
[1757003185.116947] [node114:1516072:0]          mpool.c:43   UCX  WARN  object 0x665b940 was not returned to mpool ucp_requests
[1757003185.116948] [node114:1516072:0]          mpool.c:43   UCX  WARN  object 0x665c200 was not returned to mpool ucp_requests
[1757003185.116949] [node114:1516072:0]          mpool.c:43   UCX  WARN  object 0x6642300 was not returned to mpool ucp_requests
[1757003185.116951] [node114:1516072:0]          mpool.c:43   UCX  WARN  object 0x66486c0 was not returned to mpool ucp_requests
[1757003185.116952] [node114:1516072:0]          mpool.c:43   UCX  WARN  object 0x6649680 was not returned to mpool ucp_requests
[1757003185.116953] [node114:1516072:0]          mpool.c:43   UCX  WARN  object 0x39c1b80 was not returned to mpool ucp_requests
[1757003185.116954] [node114:1516072:0]          mpool.c:43   UCX  WARN  object 0x39c27c0 was not returned to mpool ucp_requests
[1757003185.116955] [node114:1516072:0]          mpool.c:43   UCX  WARN  object 0x39c2ec0 was not returned to mpool ucp_requests
[1757003185.116957] [node114:1516072:0]          mpool.c:43   UCX  WARN  object 0x39c4200 was not returned to mpool ucp_requests
[1757003185.116958] [node114:1516072:0]          mpool.c:43   UCX  WARN  object 0x39c4ac0 was not returned to mpool ucp_requests
[1757003185.116959] [node114:1516072:0]          mpool.c:43   UCX  WARN  object 0x39c66c0 was not returned to mpool ucp_requests
[1757003185.116960] [node114:1516072:0]          mpool.c:43   UCX  WARN  object 0x39c7840 was not returned to mpool ucp_requests
