
     Program PWSCF v.7.3.1 starts on 30Mar2025 at 12:24:40 

     This program is part of the open-source Quantum ESPRESSO suite
     for quantum simulation of materials; please cite
         "P. Giannozzi et al., J. Phys.:Condens. Matter 21 395502 (2009);
         "P. Giannozzi et al., J. Phys.:Condens. Matter 29 465901 (2017);
         "P. Giannozzi et al., J. Chem. Phys. 152 154105 (2020);
          URL http://www.quantum-espresso.org", 
     in publications or presentations arising from this work. More details at
     http://www.quantum-espresso.org/quote

     Parallel version (MPI), running on    64 processors

     MPI processes distributed on     1 nodes
     244393 MiB available memory on the printing compute node when the environment starts

     Reading input from Fe2_tert-butoxide_6_LowSpin.in

     Current dimensions of program PWSCF are:
     Max number of different atomic species (ntypx) = 10
     Max number of k-points (npk) =  40000
     Max angular momentum in pseudopotentials (lmaxx) =  4
read_pp_mesh; mismatch in mesh size, discarding the one in header
read_pp_mesh; mismatch in mesh size, discarding the one in header
read_pp_mesh; mismatch in mesh size, discarding the one in header
     file Fe.GGA-PBE-paw.UPF: wavefunction(s)  4S 3P 4P 3D 4D renormalized
     file O.GGA-PBE-paw.UPF: wavefunction(s)  3S 2P 3P renormalized
     file H.GGA-PBE-paw.UPF: wavefunction(s)  2S 2P renormalized
     file C.GGA-PBE-paw.UPF: wavefunction(s)  3S 3P renormalized

     R & G space division:  proc/nbgrp/npool/nimage =      64
     Subspace diagonalization in iterative solution of the eigenvalue problem:
     a serial algorithm will be used


     Parallelization info
     --------------------
     sticks:   dense  smooth     PW     G-vecs:    dense   smooth      PW
     Min         956     956    239               171747   171747   21469
     Max         958     958    240               171750   171750   21474
     Sum       61197   61197  15311             10991921 10991921 1374165

     Using Slab Decomposition



     bravais-lattice index     =            0
     lattice parameter (alat)  =      56.8956  a.u.
     unit-cell volume          =  180460.2187 (a.u.)^3
     number of atoms/cell      =           86
     number of atomic types    =            4
     number of electrons       =       218.00 (up: 110.00, down: 108.00)
     number of Kohn-Sham states=          110
     kinetic-energy cutoff     =      58.8000  Ry
     charge density cutoff     =     235.2000  Ry
     scf convergence threshold =      1.0E-06
     mixing beta               =       0.3000
     number of iterations used =            8  plain     mixing
     Exchange-correlation= SLA PW PBX PBC
                           (   1   4   3   4   0   0   0)
     Hubbard projectors: ortho-atomic
     Hubbard parameters of DFT+U (Dudarev formulation) in eV:
     U(Fe-3d) =  4.0000

     Internal variables: lda_plus_u =T, lda_plus_u_kind = 0

     celldm(1)=  56.895596  celldm(2)=   0.000000  celldm(3)=   0.000000
     celldm(4)=   0.000000  celldm(5)=   0.000000  celldm(6)=   0.000000

     crystal axes: (cart. coord. in units of alat)
               a(1) = (   1.000000   0.000000   0.000000 )  
               a(2) = (   0.000000   1.010150   0.000000 )  
               a(3) = (   0.000000   0.000000   0.969973 )  

     reciprocal axes: (cart. coord. in units 2 pi/alat)
               b(1) = (  1.000000  0.000000  0.000000 )  
               b(2) = (  0.000000  0.989952  0.000000 )  
               b(3) = (  0.000000  0.000000  1.030957 )  


     PseudoPot. # 1 for Fe read from file:
     /work/e89/e89/phsmea/CASTEP_TO_QS_ARCHER/Fe.GGA-PBE-paw.UPF
     MD5 check sum: 89f6fde11583ee234fe819c830abe0a6
     Pseudo is Projector augmented-wave + core cor, Zval = 16.0
     Generated using ATOMPAW code
     Shape of augmentation charge: SINC**2
     Using radial grid of 2342 points,  6 beta functions with: 
                l(1) =   0
                l(2) =   0
                l(3) =   1
                l(4) =   1
                l(5) =   2
                l(6) =   2
     Q(r) pseudized with 0 coefficients 


     PseudoPot. # 2 for O  read from file:
     /work/e89/e89/phsmea/CASTEP_TO_QS_ARCHER/O.GGA-PBE-paw.UPF
     MD5 check sum: 75cebe6e27812ecd511c7c5e5b8738d8
     Pseudo is Projector augmented-wave + core cor, Zval =  6.0
     Generated using ATOMPAW code
     Shape of augmentation charge: SINC**2
     Using radial grid of 2342 points,  4 beta functions with: 
                l(1) =   0
                l(2) =   0
                l(3) =   1
                l(4) =   1
     Q(r) pseudized with 0 coefficients 


     PseudoPot. # 3 for H  read from file:
     /work/e89/e89/phsmea/CASTEP_TO_QS_ARCHER/H.GGA-PBE-paw.UPF
     MD5 check sum: b9d592600ff6b56d2e28875790887365
     Pseudo is Projector augmented-wave + core cor, Zval =  1.0
     Generated using ATOMPAW code
     Shape of augmentation charge: SINC**2
     Using radial grid of 2342 points,  3 beta functions with: 
                l(1) =   0
                l(2) =   0
                l(3) =   1
     Q(r) pseudized with 0 coefficients 


     PseudoPot. # 4 for C  read from file:
     /work/e89/e89/phsmea/CASTEP_TO_QS_ARCHER/C.GGA-PBE-paw.UPF
     MD5 check sum: 6449554384d65163c08b954f27925b11
     Pseudo is Projector augmented-wave + core cor, Zval =  4.0
     Generated using ATOMPAW code
     Shape of augmentation charge: SINC**2
     Using radial grid of 2342 points,  4 beta functions with: 
                l(1) =   0
                l(2) =   0
                l(3) =   1
                l(4) =   1
     Q(r) pseudized with 0 coefficients 


     atomic species   valence    mass     pseudopotential
     Fe               16.00    55.84500     Fe( 1.00)
     O                 6.00    16.00000     O ( 1.00)
     H                 1.00     1.00800     H ( 1.00)
     C                 4.00    12.01100     C ( 1.00)

     Starting magnetic structure 
     atomic species   magnetization
     Fe              0.062
     O               0.000
     H               0.000
     C               0.000

     No symmetry found



   Cartesian axes

     site n.     atom                  positions (alat units)
         1        Fe     tau(   1) = (   0.4901185   0.5436725   0.4568922  )
         2        Fe     tau(   2) = (   0.5098816   0.4664750   0.5130794  )
         3        O      tau(   3) = (   0.4788418   0.4813730   0.4590783  )
         4        O      tau(   4) = (   0.5330289   0.5754908   0.4316082  )
         5        O      tau(   5) = (   0.4427355   0.5773954   0.4485238  )
         6        C      tau(   6) = (   0.4576500   0.4521654   0.4278033  )
         7        C      tau(   7) = (   0.5326455   0.6076462   0.3974659  )
         8        C      tau(   8) = (   0.4012943   0.5808159   0.4704711  )
         9        C      tau(   9) = (   0.4852317   0.4099777   0.4240640  )
        10        H      tau(  10) = (   0.5185215   0.4174489   0.4118231  )
        11        H      tau(  11) = (   0.4696019   0.3869553   0.4007883  )
        12        H      tau(  12) = (   0.4879435   0.3935188   0.4562527  )
        13        C      tau(  13) = (   0.4111474   0.4408021   0.4440267  )
        14        H      tau(  14) = (   0.4127688   0.4274566   0.4776558  )
        15        H      tau(  15) = (   0.3960528   0.4161076   0.4221348  )
        16        H      tau(  16) = (   0.3898221   0.4700832   0.4441003  )
        17        C      tau(  17) = (   0.4559393   0.4757669   0.3831724  )
        18        H      tau(  18) = (   0.4372689   0.5067856   0.3855448  )
        19        H      tau(  19) = (   0.4396797   0.4547653   0.3584590  )
        20        H      tau(  20) = (   0.4894305   0.4832749   0.3713699  )
        21        C      tau(  21) = (   0.5807264   0.6110430   0.3816515  )
        22        H      tau(  22) = (   0.6023686   0.6208412   0.4090605  )
        23        H      tau(  23) = (   0.5838321   0.6356649   0.3551586  )
        24        H      tau(  24) = (   0.5920777   0.5789754   0.3690600  )
        25        C      tau(  25) = (   0.5174166   0.6521803   0.4162592  )
        26        H      tau(  26) = (   0.4835063   0.6495042   0.4287123  )
        27        H      tau(  27) = (   0.5184591   0.6780108   0.3907603  )
        28        H      tau(  28) = (   0.5391229   0.6622982   0.4435294  )
        29        C      tau(  29) = (   0.5029225   0.5936085   0.3589214  )
        30        H      tau(  30) = (   0.5139296   0.5617005   0.3455705  )
        31        H      tau(  31) = (   0.5042852   0.6180781   0.3321393  )
        32        H      tau(  32) = (   0.4685089   0.5906027   0.3698770  )
        33        C      tau(  33) = (   0.3978045   0.5492116   0.5098647  )
        34        H      tau(  34) = (   0.4025749   0.5147461   0.4998387  )
        35        H      tau(  35) = (   0.3651592   0.5520313   0.5254645  )
        36        H      tau(  36) = (   0.4227639   0.5571946   0.5349349  )
        37        C      tau(  37) = (   0.3650779   0.5709430   0.4364090  )
        38        H      tau(  38) = (   0.3684105   0.5932184   0.4079851  )
        39        H      tau(  39) = (   0.3321393   0.5756098   0.4509208  )
        40        H      tau(  40) = (   0.3674678   0.5368126   0.4244442  )
        41        C      tau(  41) = (   0.3969184   0.6287439   0.4864726  )
        42        H      tau(  42) = (   0.4234235   0.6367160   0.5099005  )
        43        H      tau(  43) = (   0.3650208   0.6339967   0.5029889  )
        44        H      tau(  44) = (   0.3992301   0.6516182   0.4584253  )
        45        O      tau(  45) = (   0.5211588   0.5287740   0.5108931  )
        46        O      tau(  46) = (   0.4669714   0.4346580   0.5383652  )
        47        O      tau(  47) = (   0.5572663   0.4327553   0.5214480  )
        48        C      tau(  48) = (   0.5423612   0.5579782   0.5421639  )
        49        C      tau(  49) = (   0.4673541   0.4025028   0.5725074  )
        50        C      tau(  50) = (   0.5987109   0.4293467   0.4995061  )
        51        C      tau(  51) = (   0.5147926   0.6001742   0.5458981  )
        52        H      tau(  52) = (   0.4815016   0.5927155   0.5581427  )
        53        H      tau(  53) = (   0.5304315   0.6231951   0.5691691  )
        54        H      tau(  54) = (   0.5120836   0.6166287   0.5137067  )
        55        C      tau(  55) = (   0.5888663   0.5693250   0.5259352  )
        56        H      tau(  56) = (   0.5872462   0.5826634   0.4923033  )
        57        H      tau(  57) = (   0.6039698   0.5940205   0.5478202  )
        58        H      tau(  58) = (   0.6101831   0.5400377   0.5258672  )
        59        C      tau(  59) = (   0.5440691   0.5343821   0.5867978  )
        60        H      tau(  60) = (   0.5627300   0.5033573   0.5844284  )
        61        H      tau(  61) = (   0.5603367   0.5553825   0.6115069  )
        62        H      tau(  62) = (   0.5105762   0.5268863   0.5986038  )
        63        C      tau(  63) = (   0.4192724   0.3991017   0.5883187  )
        64        H      tau(  64) = (   0.3976329   0.3893033   0.5609075  )
        65        H      tau(  65) = (   0.4161666   0.3744783   0.6148102  )
        66        H      tau(  66) = (   0.4079178   0.4311679   0.6009108  )
        67        C      tau(  67) = (   0.4825887   0.3579707   0.5537135  )
        68        H      tau(  68) = (   0.5164997   0.3606508   0.5412622  )
        69        H      tau(  69) = (   0.4815470   0.3321393   0.5792113  )
        70        H      tau(  70) = (   0.4608847   0.3478518   0.5264417  )
        71        C      tau(  71) = (   0.4970739   0.4165413   0.6110539  )
        72        H      tau(  72) = (   0.4860622   0.4484464   0.6244076  )
        73        H      tau(  73) = (   0.4957141   0.3920689   0.6378338  )
        74        H      tau(  74) = (   0.5314875   0.4195531   0.6000996  )
        75        C      tau(  75) = (   0.6022041   0.4609642   0.4601233  )
        76        H      tau(  76) = (   0.5974272   0.4954255   0.4701600  )
        77        H      tau(  77) = (   0.6348522   0.4581543   0.4445274  )
        78        H      tau(  78) = (   0.5772501   0.4529847   0.4350460  )
        79        C      tau(  79) = (   0.6349189   0.4392153   0.5335786  )
        80        H      tau(  80) = (   0.6315855   0.4169293   0.5619941  )
        81        H      tau(  81) = (   0.6678607   0.4345597   0.5190702  )
        82        H      tau(  82) = (   0.6325215   0.4733413   0.5455556  )
        83        C      tau(  83) = (   0.6030961   0.3814250   0.4834905  )
        84        H      tau(  84) = (   0.5765970   0.3734562   0.4600549  )
        85        H      tau(  85) = (   0.6349980   0.3761811   0.4669801  )
        86        H      tau(  86) = (   0.6007811   0.3585429   0.5115313  )

     number of k points=     1
                       cart. coord. in units 2pi/alat
        k(    1) = (   0.0000000   0.0000000   0.0000000), wk =   1.0000000

     Dense  grid: 10991921 G-vectors     FFT dimensions: ( 288, 288, 270)

     Estimated max dynamical RAM per process >       1.36 GB

     Estimated total dynamical RAM >      87.21 GB

     Check: negative core charge=   -0.000002
     Generating pointlists ...
     new r_m :   0.0242 (alat units)  1.3790 (a.u.) for type    1
     new r_m :   0.0193 (alat units)  1.1008 (a.u.) for type    2
     new r_m :   0.0149 (alat units)  0.8498 (a.u.) for type    3
     new r_m :   0.0149 (alat units)  0.8498 (a.u.) for type    4

     Initial potential from superposition of free atoms

     starting charge     217.9969, renormalised to     218.0000

     negative rho (up, down):  3.130E-02 2.855E-02

     STARTING HUBBARD OCCUPATIONS:

     =================== HUBBARD OCCUPATIONS ===================
     ------------------------ ATOM    1 ------------------------
     Tr[ns(  1)] (up, down, total) =   5.00000  2.00000  7.00000
     Atomic magnetic moment for atom   1 =   3.00000
     SPIN  1
     eigenvalues:
       1.000  1.000  1.000  1.000  1.000
     eigenvectors (columns):
       1.000  0.000  0.000  0.000  0.000
       0.000  1.000  0.000  0.000  0.000
       0.000  0.000  1.000  0.000  0.000
       0.000  0.000  0.000  1.000  0.000
       0.000  0.000  0.000  0.000  1.000
     occupation matrix ns (before diag.):
       1.000  0.000  0.000  0.000  0.000
       0.000  1.000  0.000  0.000  0.000
       0.000  0.000  1.000  0.000  0.000
       0.000  0.000  0.000  1.000  0.000
       0.000  0.000  0.000  0.000  1.000
     SPIN  2
     eigenvalues:
       0.400  0.400  0.400  0.400  0.400
     eigenvectors (columns):
       1.000  0.000  0.000  0.000  0.000
       0.000  1.000  0.000  0.000  0.000
       0.000  0.000  1.000  0.000  0.000
       0.000  0.000  0.000  1.000  0.000
       0.000  0.000  0.000  0.000  1.000
     occupation matrix ns (before diag.):
       0.400  0.000  0.000  0.000  0.000
       0.000  0.400  0.000  0.000  0.000
       0.000  0.000  0.400  0.000  0.000
       0.000  0.000  0.000  0.400  0.000
       0.000  0.000  0.000  0.000  0.400
     ------------------------ ATOM    2 ------------------------
     Tr[ns(  2)] (up, down, total) =   5.00000  2.00000  7.00000
     Atomic magnetic moment for atom   2 =   3.00000
     SPIN  1
     eigenvalues:
       1.000  1.000  1.000  1.000  1.000
     eigenvectors (columns):
       1.000  0.000  0.000  0.000  0.000
       0.000  1.000  0.000  0.000  0.000
       0.000  0.000  1.000  0.000  0.000
       0.000  0.000  0.000  1.000  0.000
       0.000  0.000  0.000  0.000  1.000
     occupation matrix ns (before diag.):
       1.000  0.000  0.000  0.000  0.000
       0.000  1.000  0.000  0.000  0.000
       0.000  0.000  1.000  0.000  0.000
       0.000  0.000  0.000  1.000  0.000
       0.000  0.000  0.000  0.000  1.000
     SPIN  2
     eigenvalues:
       0.400  0.400  0.400  0.400  0.400
     eigenvectors (columns):
       1.000  0.000  0.000  0.000  0.000
       0.000  1.000  0.000  0.000  0.000
       0.000  0.000  1.000  0.000  0.000
       0.000  0.000  0.000  1.000  0.000
       0.000  0.000  0.000  0.000  1.000
     occupation matrix ns (before diag.):
       0.400  0.000  0.000  0.000  0.000
       0.000  0.400  0.000  0.000  0.000
       0.000  0.000  0.400  0.000  0.000
       0.000  0.000  0.000  0.400  0.000
       0.000  0.000  0.000  0.000  0.400

     Number of occupied Hubbard levels =   14.0000

     Atomic wfc used for Hubbard projectors are orthogonalized

     Starting wfcs are  546 randomized atomic wfcs
     Checking if some PAW data can be deallocated... 

     total cpu time spent up to now is       81.4 secs

     per-process dynamical memory:   457.2 Mb

     Self-consistent Calculation

     iteration #  1     ecut=    58.80 Ry     beta= 0.30
     Davidson diagonalization with overlap
     ethr =  1.00E-02,  avg # of iterations =  2.0

     =================== HUBBARD OCCUPATIONS ===================
     ------------------------ ATOM    1 ------------------------
     Tr[ns(  1)] (up, down, total) =   3.23279  2.08088  5.31367
     Atomic magnetic moment for atom   1 =   1.15192
     SPIN  1
     eigenvalues:
       0.163  0.216  0.929  0.950  0.976
     eigenvectors (columns):
       0.776 -0.070  0.470  0.075  0.407
      -0.195  0.469 -0.293  0.361  0.725
       0.342  0.225 -0.509 -0.749  0.113
       0.438 -0.260 -0.642  0.523 -0.234
       0.225  0.811  0.146  0.173 -0.491
     occupation matrix ns (before diag.):
       0.471  0.154 -0.191 -0.277 -0.103
       0.154  0.770 -0.026  0.148 -0.253
      -0.191 -0.026  0.816 -0.082 -0.194
      -0.277  0.148 -0.082  0.742  0.082
      -0.103 -0.253 -0.194  0.082  0.433
     SPIN  2
     eigenvalues:
       0.090  0.139  0.153  0.821  0.878
     eigenvectors (columns):
       0.734  0.192  0.200  0.362 -0.503
      -0.012 -0.727 -0.545  0.269 -0.318
       0.392 -0.207 -0.069 -0.878 -0.167
       0.498  0.158 -0.546  0.105  0.646
       0.243 -0.605  0.600  0.119  0.448
     occupation matrix ns (before diag.):
       0.389  0.184 -0.169 -0.234 -0.144
       0.184  0.267 -0.121 -0.128 -0.088
      -0.169 -0.121  0.678 -0.152 -0.132
      -0.234 -0.128 -0.152  0.447  0.212
      -0.144 -0.088 -0.132  0.212  0.299
     ------------------------ ATOM    2 ------------------------
     Tr[ns(  2)] (up, down, total) =   3.29113  2.06265  5.35378
     Atomic magnetic moment for atom   2 =   1.22849
     SPIN  1
     eigenvalues:
       0.191  0.220  0.948  0.956  0.977
     eigenvectors (columns):
      -0.620 -0.033 -0.532  0.378 -0.435
       0.096  0.441  0.135 -0.472 -0.746
      -0.305  0.132  0.797  0.488 -0.126
      -0.637 -0.379  0.220 -0.622  0.127
      -0.329  0.803 -0.124 -0.099  0.472
     occupation matrix ns (before diag.):
       0.663  0.064 -0.137 -0.311 -0.141
       0.064  0.817 -0.019  0.167 -0.243
      -0.137 -0.019  0.867 -0.113 -0.155
      -0.311  0.167 -0.113  0.540  0.065
      -0.141 -0.243 -0.155  0.065  0.403
     SPIN  2
     eigenvalues:
       0.096  0.125  0.141  0.827  0.873
     eigenvectors (columns):
      -0.627  0.291  0.008  0.154 -0.706
       0.073 -0.877 -0.217  0.055 -0.418
      -0.351 -0.091 -0.124 -0.921  0.073
      -0.628 -0.366  0.433  0.255  0.467
      -0.288  0.053 -0.866  0.247  0.322
     occupation matrix ns (before diag.):
       0.503  0.228 -0.144 -0.231 -0.149
       0.228  0.258 -0.057 -0.136 -0.088
      -0.144 -0.057  0.721 -0.146 -0.143
      -0.231 -0.136 -0.146  0.326  0.145
      -0.149 -0.088 -0.143  0.145  0.255

     Number of occupied Hubbard levels =   10.6674

     negative rho (up, down):  3.225E-02 2.920E-02

     total cpu time spent up to now is      118.1 secs

     total energy              =   -1412.68226334 Ry
     estimated scf accuracy    <      14.09564095 Ry

     total magnetization       =     2.00 Bohr mag/cell
     absolute magnetization    =     3.06 Bohr mag/cell

     iteration #  2     ecut=    58.80 Ry     beta= 0.30
     Davidson diagonalization with overlap
     ethr =  6.47E-03,  avg # of iterations =  4.0

     negative rho (up, down):  3.322E-02 3.004E-02

     total cpu time spent up to now is      152.7 secs

     total energy              =   -1412.78803967 Ry
     estimated scf accuracy    <       7.61104604 Ry

     total magnetization       =     2.00 Bohr mag/cell
     absolute magnetization    =     2.70 Bohr mag/cell

     iteration #  3     ecut=    58.80 Ry     beta= 0.30
     Davidson diagonalization with overlap
     ethr =  3.49E-03,  avg # of iterations =  4.0

     negative rho (up, down):  3.447E-02 3.128E-02

     total cpu time spent up to now is      184.0 secs

     total energy              =   -1414.30029012 Ry
     estimated scf accuracy    <       3.26241179 Ry

     total magnetization       =     2.00 Bohr mag/cell
     absolute magnetization    =     2.37 Bohr mag/cell

     iteration #  4     ecut=    58.80 Ry     beta= 0.30
     Davidson diagonalization with overlap
     ethr =  1.50E-03,  avg # of iterations =  3.0

     negative rho (up, down):  3.608E-02 3.294E-02

     total cpu time spent up to now is      213.5 secs

     total energy              =   -1414.39932677 Ry
     estimated scf accuracy    <       0.52483669 Ry

     total magnetization       =     2.00 Bohr mag/cell
     absolute magnetization    =     2.47 Bohr mag/cell

     iteration #  5     ecut=    58.80 Ry     beta= 0.30
     Davidson diagonalization with overlap
     ethr =  2.41E-04,  avg # of iterations =  4.5

     negative rho (up, down):  3.636E-02 3.325E-02

     total cpu time spent up to now is      251.4 secs

     total energy              =   -1414.53736136 Ry
     estimated scf accuracy    <       0.93183807 Ry

     total magnetization       =     2.00 Bohr mag/cell
     absolute magnetization    =     2.76 Bohr mag/cell

     iteration #  6     ecut=    58.80 Ry     beta= 0.30
     Davidson diagonalization with overlap
     ethr =  2.41E-04,  avg # of iterations =  3.5

     negative rho (up, down):  3.650E-02 3.340E-02

     total cpu time spent up to now is      280.9 secs

     total energy              =   -1414.53594121 Ry
     estimated scf accuracy    <       0.27663321 Ry

     total magnetization       =     2.00 Bohr mag/cell
     absolute magnetization    =     2.70 Bohr mag/cell

     iteration #  7     ecut=    58.80 Ry     beta= 0.30
     Davidson diagonalization with overlap
     ethr =  1.27E-04,  avg # of iterations =  3.0

     negative rho (up, down):  3.680E-02 3.377E-02

     total cpu time spent up to now is      310.3 secs

     total energy              =   -1414.53452919 Ry
     estimated scf accuracy    <       0.07790762 Ry

     total magnetization       =     2.00 Bohr mag/cell
     absolute magnetization    =     2.66 Bohr mag/cell

     iteration #  8     ecut=    58.80 Ry     beta= 0.30
     Davidson diagonalization with overlap
     ethr =  3.57E-05,  avg # of iterations =  4.0

     negative rho (up, down):  3.681E-02 3.379E-02

     total cpu time spent up to now is      342.8 secs

     total energy              =   -1414.55065096 Ry
     estimated scf accuracy    <       0.01506973 Ry

     total magnetization       =     2.00 Bohr mag/cell
     absolute magnetization    =     2.62 Bohr mag/cell

     iteration #  9     ecut=    58.80 Ry     beta= 0.30
     Davidson diagonalization with overlap
     ethr =  6.91E-06,  avg # of iterations =  1.0

     negative rho (up, down):  3.678E-02 3.382E-02

     total cpu time spent up to now is      370.7 secs

     total energy              =   -1414.54984137 Ry
     estimated scf accuracy    <       0.01218327 Ry

     total magnetization       =     2.00 Bohr mag/cell
     absolute magnetization    =     2.62 Bohr mag/cell

     iteration # 10     ecut=    58.80 Ry     beta= 0.30
     Davidson diagonalization with overlap
     ethr =  5.59E-06,  avg # of iterations =  3.5

     negative rho (up, down):  3.677E-02 3.381E-02

     total cpu time spent up to now is      402.2 secs

     total energy              =   -1414.55185625 Ry
     estimated scf accuracy    <       0.00531635 Ry

     total magnetization       =     2.00 Bohr mag/cell
     absolute magnetization    =     2.72 Bohr mag/cell

     iteration # 11     ecut=    58.80 Ry     beta= 0.30
     Davidson diagonalization with overlap
     ethr =  2.44E-06,  avg # of iterations =  1.0

     negative rho (up, down):  3.677E-02 3.381E-02

     total cpu time spent up to now is      430.1 secs

     total energy              =   -1414.55222662 Ry
     estimated scf accuracy    <       0.00539009 Ry

     total magnetization       =     2.00 Bohr mag/cell
     absolute magnetization    =     2.71 Bohr mag/cell

     iteration # 12     ecut=    58.80 Ry     beta= 0.30
     Davidson diagonalization with overlap
     ethr =  2.44E-06,  avg # of iterations =  1.0

     negative rho (up, down):  3.676E-02 3.381E-02

     total cpu time spent up to now is      457.9 secs

     total energy              =   -1414.55295220 Ry
     estimated scf accuracy    <       0.00569696 Ry

     total magnetization       =     2.00 Bohr mag/cell
     absolute magnetization    =     2.72 Bohr mag/cell

     iteration # 13     ecut=    58.80 Ry     beta= 0.30
     Davidson diagonalization with overlap
     ethr =  2.44E-06,  avg # of iterations =  3.5

     negative rho (up, down):  3.674E-02 3.379E-02

     total cpu time spent up to now is      488.4 secs

     total energy              =   -1414.55287593 Ry
     estimated scf accuracy    <       0.01075524 Ry

     total magnetization       =     2.00 Bohr mag/cell
     absolute magnetization    =     2.74 Bohr mag/cell

     iteration # 14     ecut=    58.80 Ry     beta= 0.30
     Davidson diagonalization with overlap
     ethr =  2.44E-06,  avg # of iterations =  1.0

     negative rho (up, down):  3.675E-02 3.384E-02

     total cpu time spent up to now is      516.3 secs

     total energy              =   -1414.55465540 Ry
     estimated scf accuracy    <       0.00980516 Ry

     total magnetization       =     2.00 Bohr mag/cell
     absolute magnetization    =     2.73 Bohr mag/cell

     iteration # 15     ecut=    58.80 Ry     beta= 0.30
     Davidson diagonalization with overlap
     ethr =  2.44E-06,  avg # of iterations =  4.5

     negative rho (up, down):  3.683E-02 3.381E-02

     total cpu time spent up to now is      546.8 secs

     total energy              =   -1414.54458598 Ry
     estimated scf accuracy    <       0.01528184 Ry

     total magnetization       =     2.00 Bohr mag/cell
     absolute magnetization    =     2.78 Bohr mag/cell

     iteration # 16     ecut=    58.80 Ry     beta= 0.30
     Davidson diagonalization with overlap
     ethr =  2.44E-06,  avg # of iterations =  4.5

     negative rho (up, down):  3.683E-02 3.383E-02

     total cpu time spent up to now is      582.8 secs

     total energy              =   -1414.55010503 Ry
     estimated scf accuracy    <       0.00180355 Ry

     total magnetization       =     2.00 Bohr mag/cell
     absolute magnetization    =     2.64 Bohr mag/cell

     iteration # 17     ecut=    58.80 Ry     beta= 0.30
     Davidson diagonalization with overlap
     ethr =  8.27E-07,  avg # of iterations =  4.0

     negative rho (up, down):  3.684E-02 3.383E-02

     total cpu time spent up to now is      613.6 secs

     total energy              =   -1414.54950477 Ry
     estimated scf accuracy    <       0.00302595 Ry

     total magnetization       =     2.00 Bohr mag/cell
     absolute magnetization    =     2.67 Bohr mag/cell

     iteration # 18     ecut=    58.80 Ry     beta= 0.30
     Davidson diagonalization with overlap
     ethr =  8.27E-07,  avg # of iterations =  4.0

     negative rho (up, down):  3.682E-02 3.387E-02

     total cpu time spent up to now is      646.3 secs

     total energy              =   -1414.55042556 Ry
     estimated scf accuracy    <       0.00290811 Ry

     total magnetization       =     2.00 Bohr mag/cell
     absolute magnetization    =     2.64 Bohr mag/cell

     iteration # 19     ecut=    58.80 Ry     beta= 0.30
     Davidson diagonalization with overlap
     ethr =  8.27E-07,  avg # of iterations =  4.5

     negative rho (up, down):  3.683E-02 3.389E-02

     total cpu time spent up to now is      681.3 secs

     total energy              =   -1414.55144078 Ry
     estimated scf accuracy    <       0.00088864 Ry

     total magnetization       =     2.00 Bohr mag/cell
     absolute magnetization    =     2.72 Bohr mag/cell

     iteration # 20     ecut=    58.80 Ry     beta= 0.30
     Davidson diagonalization with overlap
     ethr =  4.08E-07,  avg # of iterations =  4.0

     negative rho (up, down):  3.683E-02 3.390E-02

     total cpu time spent up to now is      712.6 secs

     total energy              =   -1414.55173750 Ry
     estimated scf accuracy    <       0.00141966 Ry

     total magnetization       =     2.00 Bohr mag/cell
     absolute magnetization    =     2.73 Bohr mag/cell

     iteration # 21     ecut=    58.80 Ry     beta= 0.30
     Davidson diagonalization with overlap
     ethr =  4.08E-07,  avg # of iterations =  4.0

     negative rho (up, down):  3.684E-02 3.391E-02

     total cpu time spent up to now is      743.4 secs

     total energy              =   -1414.55127474 Ry
     estimated scf accuracy    <       0.00098327 Ry

     total magnetization       =     2.00 Bohr mag/cell
     absolute magnetization    =     2.74 Bohr mag/cell

     iteration # 22     ecut=    58.80 Ry     beta= 0.30
     Davidson diagonalization with overlap
     ethr =  4.08E-07,  avg # of iterations =  5.0

     negative rho (up, down):  3.682E-02 3.389E-02

     total cpu time spent up to now is      780.6 secs

     total energy              =   -1414.55289688 Ry
     estimated scf accuracy    <       0.00046072 Ry

     total magnetization       =     2.00 Bohr mag/cell
     absolute magnetization    =     2.76 Bohr mag/cell

     iteration # 23     ecut=    58.80 Ry     beta= 0.30
     Davidson diagonalization with overlap
     ethr =  2.11E-07,  avg # of iterations =  4.5

     negative rho (up, down):  3.682E-02 3.388E-02

     total cpu time spent up to now is      813.0 secs

     total energy              =   -1414.55327659 Ry
     estimated scf accuracy    <       0.00045135 Ry

     total magnetization       =     2.00 Bohr mag/cell
     absolute magnetization    =     2.77 Bohr mag/cell

     iteration # 24     ecut=    58.80 Ry     beta= 0.30
     Davidson diagonalization with overlap
     ethr =  2.07E-07,  avg # of iterations =  4.5

     negative rho (up, down):  3.682E-02 3.388E-02

     total cpu time spent up to now is      846.2 secs

     total energy              =   -1414.55342476 Ry
     estimated scf accuracy    <       0.00042138 Ry

     total magnetization       =     2.00 Bohr mag/cell
     absolute magnetization    =     2.77 Bohr mag/cell

     iteration # 25     ecut=    58.80 Ry     beta= 0.30
     Davidson diagonalization with overlap
     ethr =  1.93E-07,  avg # of iterations =  1.0

     negative rho (up, down):  3.681E-02 3.389E-02

     total cpu time spent up to now is      874.0 secs

     total energy              =   -1414.55390082 Ry
     estimated scf accuracy    <       0.00045300 Ry

     total magnetization       =     2.00 Bohr mag/cell
     absolute magnetization    =     2.77 Bohr mag/cell

     iteration # 26     ecut=    58.80 Ry     beta= 0.30
     Davidson diagonalization with overlap
     ethr =  1.93E-07,  avg # of iterations =  5.0

     negative rho (up, down):  3.681E-02 3.389E-02

     total cpu time spent up to now is      910.2 secs

     total energy              =   -1414.55385036 Ry
     estimated scf accuracy    <       0.00065545 Ry

     total magnetization       =     2.00 Bohr mag/cell
     absolute magnetization    =     2.82 Bohr mag/cell

     iteration # 27     ecut=    58.80 Ry     beta= 0.30
     Davidson diagonalization with overlap
     ethr =  1.93E-07,  avg # of iterations =  4.5

     negative rho (up, down):  3.681E-02 3.388E-02

     total cpu time spent up to now is      941.7 secs

     total energy              =   -1414.55357185 Ry
     estimated scf accuracy    <       0.00052039 Ry

     total magnetization       =     2.00 Bohr mag/cell
     absolute magnetization    =     2.80 Bohr mag/cell

     iteration # 28     ecut=    58.80 Ry     beta= 0.30
     Davidson diagonalization with overlap
     ethr =  1.93E-07,  avg # of iterations =  4.5

     negative rho (up, down):  3.681E-02 3.388E-02

     total cpu time spent up to now is      973.1 secs

     total energy              =   -1414.55362797 Ry
     estimated scf accuracy    <       0.00040709 Ry

     total magnetization       =     2.00 Bohr mag/cell
     absolute magnetization    =     2.79 Bohr mag/cell

     iteration # 29     ecut=    58.80 Ry     beta= 0.30
     Davidson diagonalization with overlap
     ethr =  1.87E-07,  avg # of iterations =  4.5

     negative rho (up, down):  3.680E-02 3.388E-02

     total cpu time spent up to now is     1004.5 secs

     total energy              =   -1414.55377633 Ry
     estimated scf accuracy    <       0.00033002 Ry

     total magnetization       =     2.00 Bohr mag/cell
     absolute magnetization    =     2.79 Bohr mag/cell

     iteration # 30     ecut=    58.80 Ry     beta= 0.30
     Davidson diagonalization with overlap
     ethr =  1.51E-07,  avg # of iterations =  4.5

     negative rho (up, down):  3.680E-02 3.389E-02

     total cpu time spent up to now is     1037.5 secs

     total energy              =   -1414.55397369 Ry
     estimated scf accuracy    <       0.00028374 Ry

     total magnetization       =     2.00 Bohr mag/cell
     absolute magnetization    =     2.80 Bohr mag/cell

     iteration # 31     ecut=    58.80 Ry     beta= 0.30
     Davidson diagonalization with overlap
     ethr =  1.30E-07,  avg # of iterations =  4.5

     negative rho (up, down):  3.681E-02 3.389E-02

     total cpu time spent up to now is     1072.1 secs

     total energy              =   -1414.55412609 Ry
     estimated scf accuracy    <       0.00024046 Ry

     total magnetization       =     2.00 Bohr mag/cell
     absolute magnetization    =     2.82 Bohr mag/cell

     iteration # 32     ecut=    58.80 Ry     beta= 0.30
     Davidson diagonalization with overlap
     ethr =  1.10E-07,  avg # of iterations =  4.5

     negative rho (up, down):  3.681E-02 3.390E-02

     total cpu time spent up to now is     1103.4 secs

     total energy              =   -1414.55424631 Ry
     estimated scf accuracy    <       0.00020262 Ry

     total magnetization       =     2.00 Bohr mag/cell
     absolute magnetization    =     2.82 Bohr mag/cell

     iteration # 33     ecut=    58.80 Ry     beta= 0.30
     Davidson diagonalization with overlap
     ethr =  9.29E-08,  avg # of iterations =  4.5

     negative rho (up, down):  3.684E-02 3.393E-02

     total cpu time spent up to now is     1140.5 secs

     total energy              =   -1414.55298615 Ry
     estimated scf accuracy    <       0.00015706 Ry

     total magnetization       =     2.00 Bohr mag/cell
     absolute magnetization    =     2.83 Bohr mag/cell

     iteration # 34     ecut=    58.80 Ry     beta= 0.30
     Davidson diagonalization with overlap
     ethr =  7.20E-08,  avg # of iterations =  5.5

     negative rho (up, down):  3.682E-02 3.392E-02

     total cpu time spent up to now is     1188.4 secs

     total energy              =   -1414.55486989 Ry
     estimated scf accuracy    <       0.00009770 Ry

     total magnetization       =     2.00 Bohr mag/cell
     absolute magnetization    =     2.86 Bohr mag/cell

     iteration # 35     ecut=    58.80 Ry     beta= 0.30
     Davidson diagonalization with overlap
     ethr =  4.48E-08,  avg # of iterations =  4.5

     negative rho (up, down):  3.682E-02 3.392E-02

     total cpu time spent up to now is     1224.3 secs

     total energy              =   -1414.55499400 Ry
     estimated scf accuracy    <       0.00006460 Ry

     total magnetization       =     2.00 Bohr mag/cell
     absolute magnetization    =     2.85 Bohr mag/cell

     iteration # 36     ecut=    58.80 Ry     beta= 0.30
     Davidson diagonalization with overlap
     ethr =  2.96E-08,  avg # of iterations =  4.5

     negative rho (up, down):  3.681E-02 3.392E-02

     total cpu time spent up to now is     1261.7 secs

     total energy              =   -1414.55513995 Ry
     estimated scf accuracy    <       0.00005136 Ry

     total magnetization       =     2.00 Bohr mag/cell
     absolute magnetization    =     2.85 Bohr mag/cell

     iteration # 37     ecut=    58.80 Ry     beta= 0.30
     Davidson diagonalization with overlap
     ethr =  2.36E-08,  avg # of iterations =  4.5

     negative rho (up, down):  3.681E-02 3.392E-02

     total cpu time spent up to now is     1295.0 secs

     total energy              =   -1414.55521230 Ry
     estimated scf accuracy    <       0.00004733 Ry

     total magnetization       =     2.00 Bohr mag/cell
     absolute magnetization    =     2.85 Bohr mag/cell

     iteration # 38     ecut=    58.80 Ry     beta= 0.30
     Davidson diagonalization with overlap
     ethr =  2.17E-08,  avg # of iterations =  4.5

     negative rho (up, down):  3.681E-02 3.392E-02

     total cpu time spent up to now is     1328.7 secs

     total energy              =   -1414.55522568 Ry
     estimated scf accuracy    <       0.00004891 Ry

     total magnetization       =     2.00 Bohr mag/cell
     absolute magnetization    =     2.85 Bohr mag/cell

     iteration # 39     ecut=    58.80 Ry     beta= 0.30
     Davidson diagonalization with overlap
     ethr =  2.17E-08,  avg # of iterations =  1.0

     negative rho (up, down):  3.681E-02 3.392E-02

     total cpu time spent up to now is     1356.5 secs

     total energy              =   -1414.55521126 Ry
     estimated scf accuracy    <       0.00005444 Ry

     total magnetization       =     2.00 Bohr mag/cell
     absolute magnetization    =     2.85 Bohr mag/cell

     iteration # 40     ecut=    58.80 Ry     beta= 0.30
     Davidson diagonalization with overlap
     ethr =  2.17E-08,  avg # of iterations =  4.5

     negative rho (up, down):  3.681E-02 3.392E-02

     total cpu time spent up to now is     1388.2 secs

     total energy              =   -1414.55526153 Ry
     estimated scf accuracy    <       0.00005008 Ry

     total magnetization       =     2.00 Bohr mag/cell
     absolute magnetization    =     2.85 Bohr mag/cell

     iteration # 41     ecut=    58.80 Ry     beta= 0.30
     Davidson diagonalization with overlap
     ethr =  2.17E-08,  avg # of iterations =  4.0

     negative rho (up, down):  3.682E-02 3.392E-02

     total cpu time spent up to now is     1420.1 secs

     total energy              =   -1414.55529767 Ry
     estimated scf accuracy    <       0.00005061 Ry

     total magnetization       =     2.00 Bohr mag/cell
     absolute magnetization    =     2.85 Bohr mag/cell

     iteration # 42     ecut=    58.80 Ry     beta= 0.30
     Davidson diagonalization with overlap
     ethr =  2.17E-08,  avg # of iterations =  4.0

     negative rho (up, down):  3.682E-02 3.393E-02

     total cpu time spent up to now is     1451.1 secs

     total energy              =   -1414.55532860 Ry
     estimated scf accuracy    <       0.00005195 Ry

     total magnetization       =     2.00 Bohr mag/cell
     absolute magnetization    =     2.85 Bohr mag/cell

     iteration # 43     ecut=    58.80 Ry     beta= 0.30
     Davidson diagonalization with overlap
     ethr =  2.17E-08,  avg # of iterations =  3.5

     negative rho (up, down):  3.682E-02 3.393E-02

     total cpu time spent up to now is     1481.1 secs

     total energy              =   -1414.55532869 Ry
     estimated scf accuracy    <       0.00005202 Ry

     total magnetization       =     2.00 Bohr mag/cell
     absolute magnetization    =     2.85 Bohr mag/cell

     iteration # 44     ecut=    58.80 Ry     beta= 0.30
     Davidson diagonalization with overlap
     ethr =  2.17E-08,  avg # of iterations =  1.0

     negative rho (up, down):  3.682E-02 3.392E-02

     total cpu time spent up to now is     1508.8 secs

     total energy              =   -1414.55507637 Ry
     estimated scf accuracy    <       0.00005318 Ry

     total magnetization       =     2.00 Bohr mag/cell
     absolute magnetization    =     2.85 Bohr mag/cell

     iteration # 45     ecut=    58.80 Ry     beta= 0.30
     Davidson diagonalization with overlap
     ethr =  2.17E-08,  avg # of iterations =  5.5

     negative rho (up, down):  3.682E-02 3.392E-02

     total cpu time spent up to now is     1548.4 secs

     total energy              =   -1414.55517216 Ry
     estimated scf accuracy    <       0.00006345 Ry

     total magnetization       =     2.00 Bohr mag/cell
     absolute magnetization    =     2.84 Bohr mag/cell

     iteration # 46     ecut=    58.80 Ry     beta= 0.30
     Davidson diagonalization with overlap
     ethr =  2.17E-08,  avg # of iterations =  4.5

     negative rho (up, down):  3.682E-02 3.392E-02

     total cpu time spent up to now is     1580.3 secs

     total energy              =   -1414.55516134 Ry
     estimated scf accuracy    <       0.00006608 Ry

     total magnetization       =     2.00 Bohr mag/cell
     absolute magnetization    =     2.84 Bohr mag/cell

     iteration # 47     ecut=    58.80 Ry     beta= 0.30
     Davidson diagonalization with overlap
     ethr =  2.17E-08,  avg # of iterations =  4.0

     negative rho (up, down):  3.682E-02 3.393E-02

     total cpu time spent up to now is     1610.2 secs

     total energy              =   -1414.55516343 Ry
     estimated scf accuracy    <       0.00006625 Ry

     total magnetization       =     2.00 Bohr mag/cell
     absolute magnetization    =     2.84 Bohr mag/cell

     iteration # 48     ecut=    58.80 Ry     beta= 0.30
     Davidson diagonalization with overlap
     ethr =  2.17E-08,  avg # of iterations =  5.5

     negative rho (up, down):  3.681E-02 3.392E-02

     total cpu time spent up to now is     1650.1 secs

     total energy              =   -1414.55527962 Ry
     estimated scf accuracy    <       0.00005513 Ry

     total magnetization       =     2.00 Bohr mag/cell
     absolute magnetization    =     2.85 Bohr mag/cell

     iteration # 49     ecut=    58.80 Ry     beta= 0.30
     Davidson diagonalization with overlap
     ethr =  2.17E-08,  avg # of iterations =  4.5

     negative rho (up, down):  3.681E-02 3.392E-02

     total cpu time spent up to now is     1682.2 secs

     total energy              =   -1414.55529720 Ry
     estimated scf accuracy    <       0.00004970 Ry

     total magnetization       =     2.00 Bohr mag/cell
     absolute magnetization    =     2.85 Bohr mag/cell

     iteration # 50     ecut=    58.80 Ry     beta= 0.30
     Davidson diagonalization with overlap
     ethr =  2.17E-08,  avg # of iterations =  3.5

     negative rho (up, down):  3.681E-02 3.392E-02

     total cpu time spent up to now is     1711.8 secs

     total energy              =   -1414.55529847 Ry
     estimated scf accuracy    <       0.00004919 Ry

     total magnetization       =     2.00 Bohr mag/cell
     absolute magnetization    =     2.85 Bohr mag/cell

     iteration # 51     ecut=    58.80 Ry     beta= 0.30
     Davidson diagonalization with overlap
     ethr =  2.17E-08,  avg # of iterations =  2.0

     negative rho (up, down):  3.681E-02 3.392E-02

     total cpu time spent up to now is     1740.2 secs

     total energy              =   -1414.55526262 Ry
     estimated scf accuracy    <       0.00004745 Ry

     total magnetization       =     2.00 Bohr mag/cell
     absolute magnetization    =     2.85 Bohr mag/cell

     iteration # 52     ecut=    58.80 Ry     beta= 0.30
     Davidson diagonalization with overlap
     ethr =  2.17E-08,  avg # of iterations =  4.5

     negative rho (up, down):  3.681E-02 3.392E-02

     total cpu time spent up to now is     1771.8 secs

     total energy              =   -1414.55529060 Ry
     estimated scf accuracy    <       0.00005161 Ry

     total magnetization       =     2.00 Bohr mag/cell
     absolute magnetization    =     2.85 Bohr mag/cell

     iteration # 53     ecut=    58.80 Ry     beta= 0.30
     Davidson diagonalization with overlap
     ethr =  2.17E-08,  avg # of iterations =  2.5

     negative rho (up, down):  3.681E-02 3.392E-02

     total cpu time spent up to now is     1800.7 secs

     total energy              =   -1414.55532653 Ry
     estimated scf accuracy    <       0.00004982 Ry

     total magnetization       =     2.00 Bohr mag/cell
     absolute magnetization    =     2.84 Bohr mag/cell

     iteration # 54     ecut=    58.80 Ry     beta= 0.30
     Davidson diagonalization with overlap
     ethr =  2.17E-08,  avg # of iterations =  4.0

     negative rho (up, down):  3.681E-02 3.391E-02

     total cpu time spent up to now is     1832.5 secs

     total energy              =   -1414.55486045 Ry
     estimated scf accuracy    <       0.00005154 Ry

     total magnetization       =     2.00 Bohr mag/cell
     absolute magnetization    =     2.84 Bohr mag/cell

     iteration # 55     ecut=    58.80 Ry     beta= 0.30
     Davidson diagonalization with overlap
     ethr =  2.17E-08,  avg # of iterations =  5.0

     negative rho (up, down):  3.682E-02 3.391E-02

     total cpu time spent up to now is     1873.0 secs

     total energy              =   -1414.55460069 Ry
     estimated scf accuracy    <       0.00005236 Ry

     total magnetization       =     2.00 Bohr mag/cell
     absolute magnetization    =     2.84 Bohr mag/cell

     iteration # 56     ecut=    58.80 Ry     beta= 0.30
     Davidson diagonalization with overlap
     ethr =  2.17E-08,  avg # of iterations =  5.0

     negative rho (up, down):  3.682E-02 3.391E-02

     total cpu time spent up to now is     1915.3 secs

     total energy              =   -1414.55487382 Ry
     estimated scf accuracy    <       0.00005003 Ry

     total magnetization       =     2.00 Bohr mag/cell
     absolute magnetization    =     2.85 Bohr mag/cell

     iteration # 57     ecut=    58.80 Ry     beta= 0.30
     Davidson diagonalization with overlap
     ethr =  2.17E-08,  avg # of iterations =  4.0

     negative rho (up, down):  3.682E-02 3.391E-02

     total cpu time spent up to now is     1945.6 secs

     total energy              =   -1414.55488430 Ry
     estimated scf accuracy    <       0.00004869 Ry

     total magnetization       =     2.00 Bohr mag/cell
     absolute magnetization    =     2.85 Bohr mag/cell

     iteration # 58     ecut=    58.80 Ry     beta= 0.30
     Davidson diagonalization with overlap
     ethr =  2.17E-08,  avg # of iterations =  1.0

     negative rho (up, down):  3.682E-02 3.391E-02

     total cpu time spent up to now is     1973.4 secs

     total energy              =   -1414.55470731 Ry
     estimated scf accuracy    <       0.00004399 Ry

     total magnetization       =     2.00 Bohr mag/cell
     absolute magnetization    =     2.85 Bohr mag/cell

     iteration # 59     ecut=    58.80 Ry     beta= 0.30
     Davidson diagonalization with overlap
     ethr =  2.02E-08,  avg # of iterations =  4.5

     negative rho (up, down):  3.682E-02 3.391E-02

     total cpu time spent up to now is     2010.0 secs

     total energy              =   -1414.55477575 Ry
     estimated scf accuracy    <       0.00004932 Ry

     total magnetization       =     2.00 Bohr mag/cell
     absolute magnetization    =     2.85 Bohr mag/cell

     iteration # 60     ecut=    58.80 Ry     beta= 0.30
     Davidson diagonalization with overlap
     ethr =  2.02E-08,  avg # of iterations =  4.5

     negative rho (up, down):  3.682E-02 3.391E-02

     total cpu time spent up to now is     2040.2 secs

     total energy              =   -1414.55480296 Ry
     estimated scf accuracy    <       0.00005247 Ry

     total magnetization       =     2.00 Bohr mag/cell
     absolute magnetization    =     2.85 Bohr mag/cell

     iteration # 61     ecut=    58.80 Ry     beta= 0.30
     Davidson diagonalization with overlap
     ethr =  2.02E-08,  avg # of iterations =  4.5

     negative rho (up, down):  3.682E-02 3.391E-02

     total cpu time spent up to now is     2072.1 secs

     total energy              =   -1414.55482597 Ry
     estimated scf accuracy    <       0.00005049 Ry

     total magnetization       =     2.00 Bohr mag/cell
     absolute magnetization    =     2.84 Bohr mag/cell

     iteration # 62     ecut=    58.80 Ry     beta= 0.30
     Davidson diagonalization with overlap
     ethr =  2.02E-08,  avg # of iterations =  4.0

     negative rho (up, down):  3.682E-02 3.391E-02

     total cpu time spent up to now is     2103.5 secs

     total energy              =   -1414.55485507 Ry
     estimated scf accuracy    <       0.00004814 Ry

     total magnetization       =     2.00 Bohr mag/cell
     absolute magnetization    =     2.84 Bohr mag/cell

     iteration # 63     ecut=    58.80 Ry     beta= 0.30
     Davidson diagonalization with overlap
     ethr =  2.02E-08,  avg # of iterations =  4.5

     negative rho (up, down):  3.682E-02 3.391E-02

     total cpu time spent up to now is     2135.0 secs

     total energy              =   -1414.55488944 Ry
     estimated scf accuracy    <       0.00004517 Ry

     total magnetization       =     2.00 Bohr mag/cell
     absolute magnetization    =     2.84 Bohr mag/cell

     iteration # 64     ecut=    58.80 Ry     beta= 0.30
     Davidson diagonalization with overlap
     ethr =  2.02E-08,  avg # of iterations =  4.5

     negative rho (up, down):  3.682E-02 3.391E-02

     total cpu time spent up to now is     2170.1 secs

     total energy              =   -1414.55490663 Ry
     estimated scf accuracy    <       0.00003916 Ry

     total magnetization       =     2.00 Bohr mag/cell
     absolute magnetization    =     2.85 Bohr mag/cell

     iteration # 65     ecut=    58.80 Ry     beta= 0.30
     Davidson diagonalization with overlap
     ethr =  1.80E-08,  avg # of iterations =  4.5

     negative rho (up, down):  3.682E-02 3.391E-02

     total cpu time spent up to now is     2204.4 secs

     total energy              =   -1414.55491438 Ry
     estimated scf accuracy    <       0.00003689 Ry

     total magnetization       =     2.00 Bohr mag/cell
     absolute magnetization    =     2.85 Bohr mag/cell

     iteration # 66     ecut=    58.80 Ry     beta= 0.30
     Davidson diagonalization with overlap
     ethr =  1.69E-08,  avg # of iterations =  5.5

     negative rho (up, down):  3.683E-02 3.391E-02

     total cpu time spent up to now is     2244.1 secs

     total energy              =   -1414.55497804 Ry
     estimated scf accuracy    <       0.00002858 Ry

     total magnetization       =     2.00 Bohr mag/cell
     absolute magnetization    =     2.85 Bohr mag/cell

     iteration # 67     ecut=    58.80 Ry     beta= 0.30
     Davidson diagonalization with overlap
     ethr =  1.31E-08,  avg # of iterations =  5.0

     negative rho (up, down):  3.683E-02 3.391E-02

     total cpu time spent up to now is     2284.9 secs

     total energy              =   -1414.55507166 Ry
     estimated scf accuracy    <       0.00002509 Ry

     total magnetization       =     2.00 Bohr mag/cell
     absolute magnetization    =     2.85 Bohr mag/cell

     iteration # 68     ecut=    58.80 Ry     beta= 0.30
     Davidson diagonalization with overlap
     ethr =  1.15E-08,  avg # of iterations =  5.0

     negative rho (up, down):  3.683E-02 3.391E-02

     total cpu time spent up to now is     2323.4 secs

     total energy              =   -1414.55512612 Ry
     estimated scf accuracy    <       0.00002328 Ry

     total magnetization       =     2.00 Bohr mag/cell
     absolute magnetization    =     2.85 Bohr mag/cell

     iteration # 69     ecut=    58.80 Ry     beta= 0.30
     Davidson diagonalization with overlap
     ethr =  1.07E-08,  avg # of iterations =  5.0

     negative rho (up, down):  3.683E-02 3.391E-02

     total cpu time spent up to now is     2362.6 secs

     total energy              =   -1414.55519492 Ry
     estimated scf accuracy    <       0.00002133 Ry

     total magnetization       =     2.00 Bohr mag/cell
     absolute magnetization    =     2.85 Bohr mag/cell

     iteration # 70     ecut=    58.80 Ry     beta= 0.30
     Davidson diagonalization with overlap
     ethr =  9.78E-09,  avg # of iterations =  5.0

     negative rho (up, down):  3.682E-02 3.392E-02

     total cpu time spent up to now is     2401.5 secs

     total energy              =   -1414.55517283 Ry
     estimated scf accuracy    <       0.00001994 Ry

     total magnetization       =     2.00 Bohr mag/cell
     absolute magnetization    =     2.84 Bohr mag/cell

     iteration # 71     ecut=    58.80 Ry     beta= 0.30
     Davidson diagonalization with overlap
     ethr =  9.15E-09,  avg # of iterations =  6.0

     negative rho (up, down):  3.682E-02 3.392E-02

     total cpu time spent up to now is     2445.4 secs

     total energy              =   -1414.55533489 Ry
     estimated scf accuracy    <       0.00001819 Ry

     total magnetization       =     2.00 Bohr mag/cell
     absolute magnetization    =     2.84 Bohr mag/cell

     iteration # 72     ecut=    58.80 Ry     beta= 0.30
     Davidson diagonalization with overlap
     ethr =  8.34E-09,  avg # of iterations =  5.5

     negative rho (up, down):  3.682E-02 3.392E-02

     total cpu time spent up to now is     2487.3 secs

     total energy              =   -1414.55536856 Ry
     estimated scf accuracy    <       0.00001703 Ry

     total magnetization       =     2.00 Bohr mag/cell
     absolute magnetization    =     2.84 Bohr mag/cell

     iteration # 73     ecut=    58.80 Ry     beta= 0.30
     Davidson diagonalization with overlap
     ethr =  7.81E-09,  avg # of iterations =  6.0

     negative rho (up, down):  3.682E-02 3.392E-02

     total cpu time spent up to now is     2531.8 secs

     total energy              =   -1414.55551334 Ry
     estimated scf accuracy    <       0.00001591 Ry

     total magnetization       =     2.00 Bohr mag/cell
     absolute magnetization    =     2.84 Bohr mag/cell

     iteration # 74     ecut=    58.80 Ry     beta= 0.30
     Davidson diagonalization with overlap
     ethr =  7.30E-09,  avg # of iterations =  5.0

     negative rho (up, down):  3.682E-02 3.392E-02

     total cpu time spent up to now is     2572.0 secs

     total energy              =   -1414.55557238 Ry
     estimated scf accuracy    <       0.00001556 Ry

     total magnetization       =     2.00 Bohr mag/cell
     absolute magnetization    =     2.84 Bohr mag/cell

     iteration # 75     ecut=    58.80 Ry     beta= 0.30
     Davidson diagonalization with overlap
     ethr =  7.14E-09,  avg # of iterations =  5.0

     negative rho (up, down):  3.682E-02 3.392E-02

     total cpu time spent up to now is     2607.4 secs

     total energy              =   -1414.55558567 Ry
     estimated scf accuracy    <       0.00001538 Ry

     total magnetization       =     2.00 Bohr mag/cell
     absolute magnetization    =     2.84 Bohr mag/cell

     iteration # 76     ecut=    58.80 Ry     beta= 0.30
     Davidson diagonalization with overlap
     ethr =  7.05E-09,  avg # of iterations =  1.0

     negative rho (up, down):  3.682E-02 3.392E-02

     total cpu time spent up to now is     2635.1 secs

     total energy              =   -1414.55551706 Ry
     estimated scf accuracy    <       0.00001385 Ry

     total magnetization       =     2.00 Bohr mag/cell
     absolute magnetization    =     2.84 Bohr mag/cell

     iteration # 77     ecut=    58.80 Ry     beta= 0.30
     Davidson diagonalization with overlap
     ethr =  6.35E-09,  avg # of iterations =  5.5

     negative rho (up, down):  3.682E-02 3.392E-02

     total cpu time spent up to now is     2675.3 secs

     total energy              =   -1414.55553032 Ry
     estimated scf accuracy    <       0.00001688 Ry

     total magnetization       =     2.00 Bohr mag/cell
     absolute magnetization    =     2.84 Bohr mag/cell

     iteration # 78     ecut=    58.80 Ry     beta= 0.30
     Davidson diagonalization with overlap
     ethr =  6.35E-09,  avg # of iterations =  4.0

     negative rho (up, down):  3.682E-02 3.392E-02

     total cpu time spent up to now is     2707.5 secs

     total energy              =   -1414.55549444 Ry
     estimated scf accuracy    <       0.00001653 Ry

     total magnetization       =     2.00 Bohr mag/cell
     absolute magnetization    =     2.84 Bohr mag/cell

     iteration # 79     ecut=    58.80 Ry     beta= 0.30
     Davidson diagonalization with overlap
     ethr =  6.35E-09,  avg # of iterations =  5.0

     negative rho (up, down):  3.682E-02 3.392E-02

     total cpu time spent up to now is     2743.3 secs

     total energy              =   -1414.55551273 Ry
     estimated scf accuracy    <       0.00001528 Ry

     total magnetization       =     2.00 Bohr mag/cell
     absolute magnetization    =     2.84 Bohr mag/cell

     iteration # 80     ecut=    58.80 Ry     beta= 0.30
     Davidson diagonalization with overlap
     ethr =  6.35E-09,  avg # of iterations =  5.0

     negative rho (up, down):  3.682E-02 3.392E-02

     total cpu time spent up to now is     2776.3 secs

     total energy              =   -1414.55552568 Ry
     estimated scf accuracy    <       0.00001515 Ry

     total magnetization       =     2.00 Bohr mag/cell
     absolute magnetization    =     2.84 Bohr mag/cell

     iteration # 81     ecut=    58.80 Ry     beta= 0.30
     Davidson diagonalization with overlap
     ethr =  6.35E-09,  avg # of iterations =  4.0

     negative rho (up, down):  3.682E-02 3.392E-02

     total cpu time spent up to now is     2807.3 secs

     total energy              =   -1414.55551777 Ry
     estimated scf accuracy    <       0.00001555 Ry

     total magnetization       =     2.00 Bohr mag/cell
     absolute magnetization    =     2.84 Bohr mag/cell

     iteration # 82     ecut=    58.80 Ry     beta= 0.30
     Davidson diagonalization with overlap
     ethr =  6.35E-09,  avg # of iterations =  4.0

     negative rho (up, down):  3.682E-02 3.392E-02

     total cpu time spent up to now is     2838.4 secs

     total energy              =   -1414.55549953 Ry
     estimated scf accuracy    <       0.00001564 Ry

     total magnetization       =     2.00 Bohr mag/cell
     absolute magnetization    =     2.84 Bohr mag/cell

     iteration # 83     ecut=    58.80 Ry     beta= 0.30
     Davidson diagonalization with overlap
     ethr =  6.35E-09,  avg # of iterations =  4.5

     negative rho (up, down):  3.682E-02 3.392E-02

     total cpu time spent up to now is     2873.5 secs

     total energy              =   -1414.55550002 Ry
     estimated scf accuracy    <       0.00001376 Ry

     total magnetization       =     2.00 Bohr mag/cell
     absolute magnetization    =     2.84 Bohr mag/cell

     iteration # 84     ecut=    58.80 Ry     beta= 0.30
     Davidson diagonalization with overlap
     ethr =  6.31E-09,  avg # of iterations =  6.0

     negative rho (up, down):  3.682E-02 3.392E-02

     total cpu time spent up to now is     2917.0 secs

     total energy              =   -1414.55553824 Ry
     estimated scf accuracy    <       0.00001285 Ry

     total magnetization       =     2.00 Bohr mag/cell
     absolute magnetization    =     2.85 Bohr mag/cell

     iteration # 85     ecut=    58.80 Ry     beta= 0.30
     Davidson diagonalization with overlap
     ethr =  5.89E-09,  avg # of iterations =  5.0

     negative rho (up, down):  3.682E-02 3.392E-02

     total cpu time spent up to now is     2955.4 secs

     total energy              =   -1414.55555355 Ry
     estimated scf accuracy    <       0.00001212 Ry

     total magnetization       =     2.00 Bohr mag/cell
     absolute magnetization    =     2.85 Bohr mag/cell

     iteration # 86     ecut=    58.80 Ry     beta= 0.30
     Davidson diagonalization with overlap
     ethr =  5.56E-09,  avg # of iterations =  5.0

     negative rho (up, down):  3.682E-02 3.392E-02

     total cpu time spent up to now is     2995.6 secs

     total energy              =   -1414.55559561 Ry
     estimated scf accuracy    <       0.00001154 Ry

     total magnetization       =     2.00 Bohr mag/cell
     absolute magnetization    =     2.85 Bohr mag/cell

     iteration # 87     ecut=    58.80 Ry     beta= 0.30
     Davidson diagonalization with overlap
     ethr =  5.29E-09,  avg # of iterations =  4.5

     negative rho (up, down):  3.682E-02 3.392E-02

     total cpu time spent up to now is     3026.1 secs

     total energy              =   -1414.55560187 Ry
     estimated scf accuracy    <       0.00001123 Ry

     total magnetization       =     2.00 Bohr mag/cell
     absolute magnetization    =     2.85 Bohr mag/cell

     iteration # 88     ecut=    58.80 Ry     beta= 0.30
     Davidson diagonalization with overlap
     ethr =  5.15E-09,  avg # of iterations =  4.5

     negative rho (up, down):  3.682E-02 3.392E-02

     total cpu time spent up to now is     3056.5 secs

     total energy              =   -1414.55560184 Ry
     estimated scf accuracy    <       0.00001119 Ry

     total magnetization       =     2.00 Bohr mag/cell
     absolute magnetization    =     2.85 Bohr mag/cell

     iteration # 89     ecut=    58.80 Ry     beta= 0.30
     Davidson diagonalization with overlap
     ethr =  5.13E-09,  avg # of iterations =  4.0

     negative rho (up, down):  3.682E-02 3.392E-02

     total cpu time spent up to now is     3088.2 secs

     total energy              =   -1414.55559682 Ry
     estimated scf accuracy    <       0.00001123 Ry

     total magnetization       =     2.00 Bohr mag/cell
     absolute magnetization    =     2.85 Bohr mag/cell

     iteration # 90     ecut=    58.80 Ry     beta= 0.30
     Davidson diagonalization with overlap
     ethr =  5.13E-09,  avg # of iterations =  4.0

     negative rho (up, down):  3.682E-02 3.392E-02

     total cpu time spent up to now is     3120.0 secs

     total energy              =   -1414.55559347 Ry
     estimated scf accuracy    <       0.00001103 Ry

     total magnetization       =     2.00 Bohr mag/cell
     absolute magnetization    =     2.85 Bohr mag/cell

     iteration # 91     ecut=    58.80 Ry     beta= 0.30
     Davidson diagonalization with overlap
     ethr =  5.06E-09,  avg # of iterations =  4.0

     negative rho (up, down):  3.682E-02 3.392E-02

     total cpu time spent up to now is     3152.3 secs

     total energy              =   -1414.55557640 Ry
     estimated scf accuracy    <       0.00001082 Ry

     total magnetization       =     2.00 Bohr mag/cell
     absolute magnetization    =     2.85 Bohr mag/cell

     iteration # 92     ecut=    58.80 Ry     beta= 0.30
     Davidson diagonalization with overlap
     ethr =  4.96E-09,  avg # of iterations =  5.0

     negative rho (up, down):  3.682E-02 3.392E-02

     total cpu time spent up to now is     3186.4 secs

     total energy              =   -1414.55557603 Ry
     estimated scf accuracy    <       0.00001064 Ry

     total magnetization       =     2.00 Bohr mag/cell
     absolute magnetization    =     2.85 Bohr mag/cell

     iteration # 93     ecut=    58.80 Ry     beta= 0.30
     Davidson diagonalization with overlap
     ethr =  4.88E-09,  avg # of iterations =  4.0

     negative rho (up, down):  3.682E-02 3.392E-02

     total cpu time spent up to now is     3218.2 secs

     total energy              =   -1414.55558390 Ry
     estimated scf accuracy    <       0.00001055 Ry

     total magnetization       =     2.00 Bohr mag/cell
     absolute magnetization    =     2.84 Bohr mag/cell

     iteration # 94     ecut=    58.80 Ry     beta= 0.30
     Davidson diagonalization with overlap
     ethr =  4.84E-09,  avg # of iterations =  4.0

     negative rho (up, down):  3.682E-02 3.392E-02

     total cpu time spent up to now is     3248.3 secs

     total energy              =   -1414.55558211 Ry
     estimated scf accuracy    <       0.00001058 Ry

     total magnetization       =     2.00 Bohr mag/cell
     absolute magnetization    =     2.84 Bohr mag/cell

     iteration # 95     ecut=    58.80 Ry     beta= 0.30
     Davidson diagonalization with overlap
     ethr =  4.84E-09,  avg # of iterations =  1.0

     negative rho (up, down):  3.682E-02 3.392E-02

     total cpu time spent up to now is     3276.0 secs

     total energy              =   -1414.55542169 Ry
     estimated scf accuracy    <       0.00001157 Ry

     total magnetization       =     2.00 Bohr mag/cell
     absolute magnetization    =     2.84 Bohr mag/cell

     iteration # 96     ecut=    58.80 Ry     beta= 0.30
     Davidson diagonalization with overlap
     ethr =  4.84E-09,  avg # of iterations =  5.0

     negative rho (up, down):  3.682E-02 3.392E-02

     total cpu time spent up to now is     3320.1 secs

     total energy              =   -1414.55558122 Ry
     estimated scf accuracy    <       0.00001319 Ry

     total magnetization       =     2.00 Bohr mag/cell
     absolute magnetization    =     2.84 Bohr mag/cell

     iteration # 97     ecut=    58.80 Ry     beta= 0.30
     Davidson diagonalization with overlap
     ethr =  4.84E-09,  avg # of iterations =  4.0

     negative rho (up, down):  3.682E-02 3.392E-02

     total cpu time spent up to now is     3351.5 secs

     total energy              =   -1414.55556093 Ry
     estimated scf accuracy    <       0.00001362 Ry

     total magnetization       =     2.00 Bohr mag/cell
     absolute magnetization    =     2.84 Bohr mag/cell

     iteration # 98     ecut=    58.80 Ry     beta= 0.30
     Davidson diagonalization with overlap
     ethr =  4.84E-09,  avg # of iterations =  5.0

     negative rho (up, down):  3.682E-02 3.392E-02

     total cpu time spent up to now is     3385.9 secs

     total energy              =   -1414.55555643 Ry
     estimated scf accuracy    <       0.00001394 Ry

     total magnetization       =     2.00 Bohr mag/cell
     absolute magnetization    =     2.84 Bohr mag/cell

     iteration # 99     ecut=    58.80 Ry     beta= 0.30
     Davidson diagonalization with overlap
     ethr =  4.84E-09,  avg # of iterations =  4.0

     negative rho (up, down):  3.682E-02 3.392E-02

     total cpu time spent up to now is     3417.4 secs

     total energy              =   -1414.55555511 Ry
     estimated scf accuracy    <       0.00001359 Ry

     total magnetization       =     2.00 Bohr mag/cell
     absolute magnetization    =     2.84 Bohr mag/cell

     iteration #100     ecut=    58.80 Ry     beta= 0.30
     Davidson diagonalization with overlap
     ethr =  4.84E-09,  avg # of iterations =  2.5

     negative rho (up, down):  3.682E-02 3.392E-02

     total cpu time spent up to now is     3446.2 secs

     total energy              =   -1414.55556062 Ry
     estimated scf accuracy    <       0.00001449 Ry

     total magnetization       =     2.00 Bohr mag/cell
     absolute magnetization    =     2.84 Bohr mag/cell

     iteration #101     ecut=    58.80 Ry     beta= 0.30
     Davidson diagonalization with overlap
     ethr =  4.84E-09,  avg # of iterations =  5.0

     negative rho (up, down):  3.682E-02 3.392E-02

     total cpu time spent up to now is     3486.1 secs

     total energy              =   -1414.55559812 Ry
     estimated scf accuracy    <       0.00001294 Ry

     total magnetization       =     2.00 Bohr mag/cell
     absolute magnetization    =     2.84 Bohr mag/cell

     iteration #102     ecut=    58.80 Ry     beta= 0.30
     Davidson diagonalization with overlap
     ethr =  4.84E-09,  avg # of iterations =  4.0

     negative rho (up, down):  3.682E-02 3.392E-02

     total cpu time spent up to now is     3517.5 secs

     total energy              =   -1414.55560801 Ry
     estimated scf accuracy    <       0.00001352 Ry

     total magnetization       =     2.00 Bohr mag/cell
     absolute magnetization    =     2.85 Bohr mag/cell

     iteration #103     ecut=    58.80 Ry     beta= 0.30
     Davidson diagonalization with overlap
     ethr =  4.84E-09,  avg # of iterations =  4.5

     negative rho (up, down):  3.682E-02 3.392E-02

     total cpu time spent up to now is     3550.0 secs

     total energy              =   -1414.55557599 Ry
     estimated scf accuracy    <       0.00001377 Ry

     total magnetization       =     2.00 Bohr mag/cell
     absolute magnetization    =     2.85 Bohr mag/cell

     iteration #104     ecut=    58.80 Ry     beta= 0.30
     Davidson diagonalization with overlap
     ethr =  4.84E-09,  avg # of iterations =  5.0

     negative rho (up, down):  3.682E-02 3.392E-02

     total cpu time spent up to now is     3592.1 secs

     total energy              =   -1414.55562248 Ry
     estimated scf accuracy    <       0.00001263 Ry

     total magnetization       =     2.00 Bohr mag/cell
     absolute magnetization    =     2.85 Bohr mag/cell

     iteration #105     ecut=    58.80 Ry     beta= 0.30
     Davidson diagonalization with overlap
     ethr =  4.84E-09,  avg # of iterations =  4.0

     negative rho (up, down):  3.682E-02 3.392E-02

     total cpu time spent up to now is     3625.7 secs

     total energy              =   -1414.55562826 Ry
     estimated scf accuracy    <       0.00001206 Ry

     total magnetization       =     2.00 Bohr mag/cell
     absolute magnetization    =     2.85 Bohr mag/cell

     iteration #106     ecut=    58.80 Ry     beta= 0.30
     Davidson diagonalization with overlap
     ethr =  4.84E-09,  avg # of iterations =  3.5

     negative rho (up, down):  3.682E-02 3.392E-02

     total cpu time spent up to now is     3656.3 secs

     total energy              =   -1414.55562995 Ry
     estimated scf accuracy    <       0.00001207 Ry

     total magnetization       =     2.00 Bohr mag/cell
     absolute magnetization    =     2.85 Bohr mag/cell

     iteration #107     ecut=    58.80 Ry     beta= 0.30
     Davidson diagonalization with overlap
     ethr =  4.84E-09,  avg # of iterations =  1.0

     negative rho (up, down):  3.682E-02 3.392E-02

     total cpu time spent up to now is     3684.0 secs

     total energy              =   -1414.55558668 Ry
     estimated scf accuracy    <       0.00001192 Ry

     total magnetization       =     2.00 Bohr mag/cell
     absolute magnetization    =     2.85 Bohr mag/cell

     iteration #108     ecut=    58.80 Ry     beta= 0.30
     Davidson diagonalization with overlap
     ethr =  4.84E-09,  avg # of iterations =  5.0

     negative rho (up, down):  3.682E-02 3.392E-02

     total cpu time spent up to now is     3722.0 secs

     total energy              =   -1414.55556689 Ry
     estimated scf accuracy    <       0.00001149 Ry

     total magnetization       =     2.00 Bohr mag/cell
     absolute magnetization    =     2.84 Bohr mag/cell

     iteration #109     ecut=    58.80 Ry     beta= 0.30
     Davidson diagonalization with overlap
     ethr =  4.84E-09,  avg # of iterations =  5.0

     negative rho (up, down):  3.682E-02 3.392E-02

     total cpu time spent up to now is     3759.2 secs

     total energy              =   -1414.55556778 Ry
     estimated scf accuracy    <       0.00001168 Ry

     total magnetization       =     2.00 Bohr mag/cell
     absolute magnetization    =     2.84 Bohr mag/cell

     iteration #110     ecut=    58.80 Ry     beta= 0.30
     Davidson diagonalization with overlap
     ethr =  4.84E-09,  avg # of iterations =  4.5

     negative rho (up, down):  3.682E-02 3.391E-02

     total cpu time spent up to now is     3792.1 secs

     total energy              =   -1414.55554274 Ry
     estimated scf accuracy    <       0.00001099 Ry

     total magnetization       =     2.00 Bohr mag/cell
     absolute magnetization    =     2.84 Bohr mag/cell

     iteration #111     ecut=    58.80 Ry     beta= 0.30
     Davidson diagonalization with overlap
     ethr =  4.84E-09,  avg # of iterations =  5.0

     negative rho (up, down):  3.682E-02 3.391E-02

     total cpu time spent up to now is     3829.5 secs

     total energy              =   -1414.55556552 Ry
     estimated scf accuracy    <       0.00001093 Ry

     total magnetization       =     2.00 Bohr mag/cell
     absolute magnetization    =     2.84 Bohr mag/cell

     iteration #112     ecut=    58.80 Ry     beta= 0.30
     Davidson diagonalization with overlap
     ethr =  4.84E-09,  avg # of iterations =  4.5

     negative rho (up, down):  3.682E-02 3.392E-02

     total cpu time spent up to now is     3862.4 secs

     total energy              =   -1414.55558113 Ry
     estimated scf accuracy    <       0.00001125 Ry

     total magnetization       =     2.00 Bohr mag/cell
     absolute magnetization    =     2.84 Bohr mag/cell

     iteration #113     ecut=    58.80 Ry     beta= 0.30
     Davidson diagonalization with overlap
     ethr =  4.84E-09,  avg # of iterations =  5.0

     negative rho (up, down):  3.682E-02 3.391E-02

     total cpu time spent up to now is     3897.3 secs

     total energy              =   -1414.55551278 Ry
     estimated scf accuracy    <       0.00001121 Ry

     total magnetization       =     2.00 Bohr mag/cell
     absolute magnetization    =     2.84 Bohr mag/cell

     iteration #114     ecut=    58.80 Ry     beta= 0.30
     Davidson diagonalization with overlap
     ethr =  4.84E-09,  avg # of iterations =  5.0

     negative rho (up, down):  3.682E-02 3.391E-02

     total cpu time spent up to now is     3937.6 secs

     total energy              =   -1414.55552887 Ry
     estimated scf accuracy    <       0.00001144 Ry

     total magnetization       =     2.00 Bohr mag/cell
     absolute magnetization    =     2.84 Bohr mag/cell

     iteration #115     ecut=    58.80 Ry     beta= 0.30
     Davidson diagonalization with overlap
     ethr =  4.84E-09,  avg # of iterations =  4.5

     negative rho (up, down):  3.682E-02 3.392E-02

     total cpu time spent up to now is     3971.1 secs

     total energy              =   -1414.55552817 Ry
     estimated scf accuracy    <       0.00001088 Ry

     total magnetization       =     2.00 Bohr mag/cell
     absolute magnetization    =     2.84 Bohr mag/cell

     iteration #116     ecut=    58.80 Ry     beta= 0.30
     Davidson diagonalization with overlap
     ethr =  4.84E-09,  avg # of iterations =  5.0

     negative rho (up, down):  3.682E-02 3.392E-02

     total cpu time spent up to now is     4009.6 secs

     total energy              =   -1414.55555310 Ry
     estimated scf accuracy    <       0.00000988 Ry

     total magnetization       =     2.00 Bohr mag/cell
     absolute magnetization    =     2.85 Bohr mag/cell

     iteration #117     ecut=    58.80 Ry     beta= 0.30
     Davidson diagonalization with overlap
     ethr =  4.53E-09,  avg # of iterations =  4.0

     negative rho (up, down):  3.682E-02 3.392E-02

     total cpu time spent up to now is     4040.6 secs

     total energy              =   -1414.55554780 Ry
     estimated scf accuracy    <       0.00000966 Ry

     total magnetization       =     2.00 Bohr mag/cell
     absolute magnetization    =     2.85 Bohr mag/cell

     iteration #118     ecut=    58.80 Ry     beta= 0.30
     Davidson diagonalization with overlap
     ethr =  4.43E-09,  avg # of iterations =  5.0

     negative rho (up, down):  3.682E-02 3.392E-02

     total cpu time spent up to now is     4079.9 secs

     total energy              =   -1414.55557510 Ry
     estimated scf accuracy    <       0.00000910 Ry

     total magnetization       =     2.00 Bohr mag/cell
     absolute magnetization    =     2.85 Bohr mag/cell

     iteration #119     ecut=    58.80 Ry     beta= 0.30
     Davidson diagonalization with overlap
     ethr =  4.17E-09,  avg # of iterations =  5.0

     negative rho (up, down):  3.682E-02 3.392E-02

     total cpu time spent up to now is     4117.7 secs

     total energy              =   -1414.55559476 Ry
     estimated scf accuracy    <       0.00000882 Ry

     total magnetization       =     2.00 Bohr mag/cell
     absolute magnetization    =     2.85 Bohr mag/cell

     iteration #120     ecut=    58.80 Ry     beta= 0.30
     Davidson diagonalization with overlap
     ethr =  4.05E-09,  avg # of iterations =  5.0

     negative rho (up, down):  3.682E-02 3.392E-02

     total cpu time spent up to now is     4155.9 secs

     total energy              =   -1414.55561485 Ry
     estimated scf accuracy    <       0.00000871 Ry

     total magnetization       =     2.00 Bohr mag/cell
     absolute magnetization    =     2.85 Bohr mag/cell

     iteration #121     ecut=    58.80 Ry     beta= 0.30
     Davidson diagonalization with overlap
     ethr =  3.99E-09,  avg # of iterations =  5.0

     negative rho (up, down):  3.682E-02 3.392E-02

     total cpu time spent up to now is     4192.5 secs

     total energy              =   -1414.55563097 Ry
     estimated scf accuracy    <       0.00000861 Ry

     total magnetization       =     2.00 Bohr mag/cell
     absolute magnetization    =     2.85 Bohr mag/cell

     iteration #122     ecut=    58.80 Ry     beta= 0.30
     Davidson diagonalization with overlap
     ethr =  3.95E-09,  avg # of iterations =  5.0

     negative rho (up, down):  3.682E-02 3.392E-02

     total cpu time spent up to now is     4225.7 secs

     total energy              =   -1414.55561636 Ry
     estimated scf accuracy    <       0.00000865 Ry

     total magnetization       =     2.00 Bohr mag/cell
     absolute magnetization    =     2.85 Bohr mag/cell

     iteration #123     ecut=    58.80 Ry     beta= 0.30
     Davidson diagonalization with overlap
     ethr =  3.95E-09,  avg # of iterations =  5.0

     negative rho (up, down):  3.682E-02 3.392E-02

     total cpu time spent up to now is     4259.6 secs

     total energy              =   -1414.55561674 Ry
     estimated scf accuracy    <       0.00000854 Ry

     total magnetization       =     2.00 Bohr mag/cell
     absolute magnetization    =     2.85 Bohr mag/cell

     iteration #124     ecut=    58.80 Ry     beta= 0.30
     Davidson diagonalization with overlap
     ethr =  3.92E-09,  avg # of iterations =  4.0

     negative rho (up, down):  3.682E-02 3.392E-02

     total cpu time spent up to now is     4290.9 secs

     total energy              =   -1414.55562247 Ry
     estimated scf accuracy    <       0.00000840 Ry

     total magnetization       =     2.00 Bohr mag/cell
     absolute magnetization    =     2.85 Bohr mag/cell

     iteration #125     ecut=    58.80 Ry     beta= 0.30
     Davidson diagonalization with overlap
     ethr =  3.85E-09,  avg # of iterations =  4.0

     negative rho (up, down):  3.682E-02 3.392E-02

     total cpu time spent up to now is     4322.1 secs

     total energy              =   -1414.55562922 Ry
     estimated scf accuracy    <       0.00000833 Ry

     total magnetization       =     2.00 Bohr mag/cell
     absolute magnetization    =     2.85 Bohr mag/cell

     iteration #126     ecut=    58.80 Ry     beta= 0.30
     Davidson diagonalization with overlap
     ethr =  3.82E-09,  avg # of iterations =  4.0

     negative rho (up, down):  3.682E-02 3.392E-02

     total cpu time spent up to now is     4353.2 secs

     total energy              =   -1414.55563390 Ry
     estimated scf accuracy    <       0.00000833 Ry

     total magnetization       =     2.00 Bohr mag/cell
[...]
     atom  14 (R=0.015)  charge=  0.4950  magn= -0.0001
     atom  15 (R=0.015)  charge=  0.4972  magn= -0.0001
     atom  16 (R=0.015)  charge=  0.5005  magn=  0.0000
     atom  17 (R=0.015)  charge=  0.8566  magn= -0.0004
     atom  18 (R=0.015)  charge=  0.4969  magn=  0.0002
     atom  19 (R=0.015)  charge=  0.4968  magn= -0.0003
     atom  20 (R=0.015)  charge=  0.4969  magn=  0.0000
     atom  21 (R=0.015)  charge=  0.8564  magn= -0.0016
     atom  22 (R=0.015)  charge=  0.4982  magn=  0.0000
     atom  23 (R=0.015)  charge=  0.4983  magn= -0.0008
     atom  24 (R=0.015)  charge=  0.4979  magn=  0.0000
     atom  25 (R=0.015)  charge=  0.8569  magn=  0.0001
     atom  26 (R=0.015)  charge=  0.4970  magn=  0.0000
     atom  27 (R=0.015)  charge=  0.4983  magn=  0.0005
     atom  28 (R=0.015)  charge=  0.4983  magn= -0.0000
     atom  29 (R=0.015)  charge=  0.8585  magn=  0.0006
     atom  30 (R=0.015)  charge=  0.4981  magn= -0.0000
     atom  31 (R=0.015)  charge=  0.4979  magn=  0.0000
     atom  32 (R=0.015)  charge=  0.4970  magn= -0.0000
     atom  33 (R=0.015)  charge=  0.8605  magn= -0.0000
     atom  34 (R=0.015)  charge=  0.4984  magn=  0.0000
     atom  35 (R=0.015)  charge=  0.4961  magn= -0.0001
     atom  36 (R=0.015)  charge=  0.4989  magn= -0.0000
     atom  37 (R=0.015)  charge=  0.8564  magn= -0.0026
     atom  38 (R=0.015)  charge=  0.4976  magn=  0.0001
     atom  39 (R=0.015)  charge=  0.4971  magn= -0.0011
     atom  40 (R=0.015)  charge=  0.4991  magn=  0.0001
     atom  41 (R=0.015)  charge=  0.8564  magn=  0.0005
     atom  42 (R=0.015)  charge=  0.4978  magn= -0.0000
     atom  43 (R=0.015)  charge=  0.4980  magn=  0.0003
     atom  44 (R=0.015)  charge=  0.4979  magn=  0.0000
     atom  45 (R=0.019)  charge=  3.7763  magn= -0.0049
     atom  46 (R=0.019)  charge=  3.7748  magn= -0.0208
     atom  47 (R=0.019)  charge=  3.7722  magn= -0.0529
     atom  48 (R=0.015)  charge=  0.8135  magn= -0.0016
     atom  49 (R=0.015)  charge=  0.8131  magn=  0.0022
     atom  50 (R=0.015)  charge=  0.8162  magn=  0.0011
     atom  51 (R=0.015)  charge=  0.8600  magn= -0.0005
     atom  52 (R=0.015)  charge=  0.5000  magn=  0.0000
     atom  53 (R=0.015)  charge=  0.4962  magn= -0.0002
     atom  54 (R=0.015)  charge=  0.4963  magn=  0.0000
     atom  55 (R=0.015)  charge=  0.8569  magn=  0.0001
     atom  56 (R=0.015)  charge=  0.4949  magn= -0.0001
     atom  57 (R=0.015)  charge=  0.4972  magn= -0.0002
     atom  58 (R=0.015)  charge=  0.5005  magn= -0.0000
     atom  59 (R=0.015)  charge=  0.8566  magn= -0.0002
     atom  60 (R=0.015)  charge=  0.4969  magn=  0.0002
     atom  61 (R=0.015)  charge=  0.4969  magn= -0.0002
     atom  62 (R=0.015)  charge=  0.4969  magn=  0.0001
     atom  63 (R=0.015)  charge=  0.8564  magn= -0.0016
     atom  64 (R=0.015)  charge=  0.4982  magn=  0.0001
     atom  65 (R=0.015)  charge=  0.4982  magn= -0.0005
     atom  66 (R=0.015)  charge=  0.4978  magn=  0.0000
     atom  67 (R=0.015)  charge=  0.8569  magn=  0.0006
     atom  68 (R=0.015)  charge=  0.4969  magn=  0.0000
     atom  69 (R=0.015)  charge=  0.4983  magn=  0.0005
     atom  70 (R=0.015)  charge=  0.4983  magn= -0.0000
     atom  71 (R=0.015)  charge=  0.8584  magn= -0.0003
     atom  72 (R=0.015)  charge=  0.4981  magn=  0.0000
     atom  73 (R=0.015)  charge=  0.4979  magn= -0.0001
     atom  74 (R=0.015)  charge=  0.4969  magn=  0.0000
     atom  75 (R=0.015)  charge=  0.8605  magn= -0.0006
     atom  76 (R=0.015)  charge=  0.4985  magn=  0.0001
     atom  77 (R=0.015)  charge=  0.4962  magn= -0.0002
     atom  78 (R=0.015)  charge=  0.4988  magn=  0.0000
     atom  79 (R=0.015)  charge=  0.8564  magn= -0.0020
     atom  80 (R=0.015)  charge=  0.4977  magn=  0.0001
     atom  81 (R=0.015)  charge=  0.4972  magn= -0.0006
     atom  82 (R=0.015)  charge=  0.4992  magn=  0.0001
     atom  83 (R=0.015)  charge=  0.8565  magn= -0.0009
     atom  84 (R=0.015)  charge=  0.4978  magn=  0.0000
     atom  85 (R=0.015)  charge=  0.4979  magn= -0.0005
     atom  86 (R=0.015)  charge=  0.4979  magn=  0.0000

     total cpu time spent up to now is    17939.6 secs

     End of self-consistent calculation

     =================== HUBBARD OCCUPATIONS ===================
     ------------------------ ATOM    1 ------------------------
     Tr[ns(  1)] (up, down, total) =   3.68652  2.65520  6.34172
     Atomic magnetic moment for atom   1 =   1.03132
     SPIN  1
     eigenvalues:
       0.320  0.439  0.970  0.977  0.981
     eigenvectors (columns):
      -0.718  0.376  0.341 -0.001 -0.476
       0.457 -0.096 -0.016  0.425 -0.776
      -0.067  0.339 -0.850 -0.319 -0.239
      -0.344 -0.004 -0.358  0.828  0.259
       0.391  0.857  0.183  0.178  0.218
     occupation matrix ns (before diag.):
       0.562  0.236 -0.098 -0.161  0.010
       0.236  0.837  0.038  0.103 -0.074
      -0.098  0.038  0.907 -0.017 -0.138
      -0.161  0.103 -0.017  0.899  0.091
       0.010 -0.074 -0.138  0.091  0.482
     SPIN  2
     eigenvalues:
       0.160  0.231  0.314  0.971  0.979
     eigenvectors (columns):
      -0.233 -0.655  0.266  0.276 -0.608
       0.800  0.271  0.350  0.191 -0.358
       0.239 -0.369  0.219 -0.871  0.006
       0.493 -0.589 -0.430  0.279  0.384
      -0.077 -0.123  0.757  0.226  0.595
     occupation matrix ns (before diag.):
       0.566  0.223 -0.172 -0.119 -0.209
       0.223  0.319 -0.131 -0.104 -0.101
      -0.172 -0.131  0.792 -0.194 -0.128
      -0.119 -0.104 -0.194  0.397  0.193
      -0.209 -0.101 -0.128  0.193  0.581
     ------------------------ ATOM    2 ------------------------
     Tr[ns(  2)] (up, down, total) =   3.72424  2.63465  6.35888
     Atomic magnetic moment for atom   2 =   1.08959
     SPIN  1
     eigenvalues:
       0.346  0.451  0.969  0.977  0.981
     eigenvectors (columns):
       0.635  0.452  0.289 -0.062  0.553
      -0.569  0.158 -0.150  0.449  0.653
       0.123  0.366 -0.885 -0.259 -0.006
       0.475 -0.218 -0.257  0.800 -0.143
      -0.180  0.768  0.209  0.295 -0.497
     occupation matrix ns (before diag.):
       0.616  0.192 -0.134 -0.138 -0.112
       0.192  0.761  0.013  0.188 -0.129
      -0.134  0.013  0.891  0.003 -0.133
      -0.138  0.188  0.003  0.810  0.143
      -0.112 -0.129 -0.133  0.143  0.647
     SPIN  2
     eigenvalues:
       0.153  0.226  0.305  0.971  0.979
     eigenvectors (columns):
      -0.279  0.686  0.019 -0.337  0.581
       0.797 -0.202  0.197 -0.235  0.479
       0.219  0.382  0.168  0.869  0.153
       0.485  0.571 -0.275 -0.221 -0.561
      -0.060  0.129  0.926 -0.166 -0.308
     occupation matrix ns (before diag.):
       0.559  0.285 -0.146 -0.181 -0.093
       0.285  0.397 -0.107 -0.196 -0.064
      -0.146 -0.107  0.805 -0.219 -0.130
      -0.181 -0.196 -0.219  0.489  0.140
      -0.093 -0.064 -0.130  0.140  0.386

     Number of occupied Hubbard levels =   12.7006

 ------ SPIN UP ------------


          k = 0.0000 0.0000 0.0000 (****** PWs)   bands (ev):

   -92.1457 -92.1050 -58.6183 -58.5705 -58.2384 -58.1955 -57.8294 -57.7109
   -24.9992 -24.6733 -24.3516 -24.3081 -23.9367 -23.9107 -19.5251 -19.3506
   -19.1270 -19.1098 -18.7865 -18.7692 -16.9859 -16.9776 -16.9029 -16.8779
   -16.8288 -16.8076 -16.7319 -16.7235 -16.5158 -16.5042 -16.4732 -16.4640
   -14.2235 -13.3823 -13.3553 -13.2950 -13.0266 -12.9847 -11.9360 -11.5094
   -11.4571 -11.3902 -11.3154 -11.1887 -11.1328 -11.1148 -10.9771 -10.9633
   -10.8694 -10.8365 -10.7459 -10.7151 -10.5008 -10.4940 -10.4678 -10.4599
    -9.9176  -9.7998  -9.7471  -9.6560  -9.6163  -9.5523  -9.5052  -9.4055
    -9.3658  -9.2487  -9.2169  -9.1879  -9.1638  -9.0933  -9.0503  -9.0070
    -8.8955  -8.8425  -8.7493  -8.7151  -8.6972  -8.6730  -8.5551  -8.5333
    -8.4585  -8.4273  -8.3501  -8.3028  -8.2614  -8.2300  -8.1846  -8.1601
    -8.1174  -8.0273  -7.9057  -7.8862  -7.7320  -7.6736  -7.5933  -7.4422
    -7.3902  -7.3381  -7.2516  -7.1555  -6.5297  -6.4792  -6.3531  -6.0224
    -5.8985  -5.7679  -5.1079  -5.0906  -4.8104  -4.7451

 ------ SPIN DOWN ----------


          k = 0.0000 0.0000 0.0000 (****** PWs)   bands (ev):

   -90.9135 -90.8130 -57.6158 -57.5179 -56.8041 -56.7095 -56.5732 -56.5411
   -24.9992 -24.6844 -24.3854 -24.3642 -23.9368 -23.9060 -19.5265 -19.3528
   -19.1349 -19.1273 -18.7772 -18.7657 -16.9884 -16.9760 -16.9048 -16.8795
   -16.8330 -16.8136 -16.7310 -16.7261 -16.5210 -16.5056 -16.4708 -16.4643
   -14.1863 -13.3549 -13.3405 -13.2765 -12.9503 -12.9195 -11.9148 -11.4583
   -11.4104 -11.3594 -11.2872 -11.1286 -11.0774 -10.9668 -10.9442 -10.9120
   -10.8614 -10.8420 -10.7390 -10.7090 -10.5000 -10.4695 -10.4638 -10.4590
    -9.8336  -9.7417  -9.7277  -9.6218  -9.5946  -9.4826  -9.4048  -9.3777
    -9.3559  -9.2015  -9.1857  -9.1303  -9.1117  -9.0320  -8.9490  -8.9380
    -8.7879  -8.7244  -8.7004  -8.6977  -8.6112  -8.5575  -8.5145  -8.5117
    -8.4285  -8.4121  -8.2985  -8.2869  -8.2183  -8.1791  -8.1441  -8.0278
    -7.9610  -7.9135  -7.8816  -7.8700  -7.5213  -7.4536  -7.3789  -7.1712
    -7.0768  -6.8896  -6.8510  -6.3376  -6.3035  -6.0761  -6.0398  -5.8727
    -5.7696  -5.5977  -4.8359  -4.5891  -2.6397  -2.4406

     highest occupied, lowest unoccupied level (ev):    -4.5891   -2.6397

!    total energy              =   -1414.55546329 Ry
     total all-electron energy =     -1414.555463 Ry
     estimated scf accuracy    <       0.00000099 Ry

     The total energy is the sum of the following terms:
     one-electron contribution =   -8909.28266885 Ry
     hartree contribution      =    4437.79033121 Ry
     xc contribution           =    -236.23342719 Ry
     ewald contribution        =    3637.54572974 Ry
     Hubbard energy            =       0.32647250 Ry
     one-center paw contrib.   =    -344.70190070 Ry

     total magnetization       =     2.00 Bohr mag/cell
     absolute magnetization    =     2.87 Bohr mag/cell

     convergence has been achieved in 504 iterations

     negative rho (up, down):  3.682E-02 3.394E-02

     Forces acting on atoms (cartesian axes, Ry/au):

     atom    1 type  1   force =    -0.00868457   -0.03868489    0.01880562
     atom    2 type  1   force =     0.00948640    0.04330100   -0.02305948
     atom    3 type  2   force =     0.00925710    0.00308507    0.00782488
     atom    4 type  2   force =     0.02047382    0.01699543   -0.00914526
     atom    5 type  2   force =     0.00034757    0.01833945   -0.01353913
     atom    6 type  4   force =    -0.00060966   -0.00763717   -0.00435146
     atom    7 type  4   force =     0.00310610    0.00425519   -0.00505950
     atom    8 type  4   force =    -0.00300412    0.00353125    0.01048678
     atom    9 type  4   force =     0.00057855   -0.00363182   -0.00148699
     atom   10 type  3   force =     0.00742436    0.00118911   -0.00215197
     atom   11 type  3   force =    -0.00334074   -0.00516069   -0.00511163
     atom   12 type  3   force =     0.00056210   -0.00396550    0.00580602
     atom   13 type  4   force =    -0.00136857   -0.00086520    0.00135088
     atom   14 type  3   force =    -0.00006273   -0.00328807    0.00739093
     atom   15 type  3   force =    -0.00335938   -0.00534234   -0.00436582
     atom   16 type  3   force =    -0.00493716    0.00611091    0.00006547
     atom   17 type  4   force =     0.00085577    0.00077120   -0.00374112
     atom   18 type  3   force =    -0.00367003    0.00605117   -0.00037961
     atom   19 type  3   force =    -0.00353119   -0.00499647   -0.00478092
     atom   20 type  3   force =     0.00644549    0.00177389   -0.00320944
     atom   21 type  4   force =     0.00308585    0.00168591   -0.00104484
     atom   22 type  3   force =     0.00496594    0.00217023    0.00587369
     atom   23 type  3   force =     0.00116273    0.00537645   -0.00588705
     atom   24 type  3   force =     0.00292802   -0.00675676   -0.00303404
     atom   25 type  4   force =    -0.00040122    0.00300800   -0.00051521
     atom   26 type  3   force =    -0.00717043   -0.00024304    0.00277294
     atom   27 type  3   force =    -0.00013855    0.00618383   -0.00514057
     atom   28 type  3   force =     0.00452466    0.00250218    0.00595162
     atom   29 type  4   force =    -0.00108982    0.00026621   -0.00324951
     atom   30 type  3   force =     0.00170594   -0.00696354   -0.00281135
     atom   31 type  3   force =    -0.00026783    0.00513713   -0.00629447
     atom   32 type  3   force =    -0.00726943   -0.00081538    0.00135043
     atom   33 type  4   force =    -0.00165985   -0.00276941    0.00139099
     atom   34 type  3   force =     0.00049365   -0.00707401   -0.00118171
     atom   35 type  3   force =    -0.00705281    0.00054746    0.00338814
     atom   36 type  3   force =     0.00472655    0.00129658    0.00555630
     atom   37 type  4   force =     0.00092304   -0.00238315   -0.00463829
     atom   38 type  3   force =    -0.00018565    0.00472254   -0.00662993
     atom   39 type  3   force =    -0.00621149    0.00149150    0.00354004
     atom   40 type  3   force =     0.00004489   -0.00748385   -0.00298129
     atom   41 type  4   force =    -0.00167854    0.00377255    0.00191629
     atom   42 type  3   force =     0.00515860    0.00206810    0.00500781
     atom   43 type  3   force =    -0.00689964    0.00220570    0.00391261
     atom   44 type  3   force =     0.00051191    0.00524567   -0.00592781
     atom   45 type  2   force =    -0.01140195   -0.00493447   -0.00756254
     atom   46 type  2   force =    -0.01670383   -0.01880325    0.00863215
     atom   47 type  2   force =    -0.00272053   -0.02245673    0.01669914
     atom   48 type  4   force =     0.00090201    0.00760980    0.00579182
     atom   49 type  4   force =    -0.00279413   -0.00428378    0.00504676
     atom   50 type  4   force =     0.00301628   -0.00078259   -0.00921077
     atom   51 type  4   force =    -0.00076585    0.00338364    0.00130165
     atom   52 type  3   force =    -0.00743977   -0.00117449    0.00223945
     atom   53 type  3   force =     0.00334520    0.00509728    0.00503076
     atom   54 type  3   force =    -0.00051865    0.00401880   -0.00587304
     atom   55 type  4   force =     0.00125403    0.00079497   -0.00148496
     atom   56 type  3   force =     0.00004613    0.00326104   -0.00746141
     atom   57 type  3   force =     0.00328944    0.00528615    0.00440143
     atom   58 type  3   force =     0.00492248   -0.00607868   -0.00003960
     atom   59 type  4   force =    -0.00082578   -0.00066434    0.00391075
     atom   60 type  3   force =     0.00358291   -0.00601786    0.00035030
     atom   61 type  3   force =     0.00355152    0.00503349    0.00474656
     atom   62 type  3   force =    -0.00640540   -0.00180603    0.00318644
     atom   63 type  4   force =    -0.00330325   -0.00121003    0.00085264
     atom   64 type  3   force =    -0.00501440   -0.00219722   -0.00585169
     atom   65 type  3   force =    -0.00097631   -0.00534640    0.00572342
     atom   66 type  3   force =    -0.00296901    0.00675318    0.00305958
     atom   67 type  4   force =     0.00050419   -0.00302428    0.00047354
     atom   68 type  3   force =     0.00710959    0.00022111   -0.00276126
     atom   69 type  3   force =     0.00017119   -0.00619738    0.00513009
     atom   70 type  3   force =    -0.00451169   -0.00249220   -0.00593626
     atom   71 type  4   force =     0.00110452    0.00020154    0.00334711
     atom   72 type  3   force =    -0.00164817    0.00695555    0.00278252
     atom   73 type  3   force =     0.00015105   -0.00520553    0.00613880
     atom   74 type  3   force =     0.00722192    0.00086412   -0.00144532
     atom   75 type  4   force =     0.00175671    0.00257691   -0.00174684
     atom   76 type  3   force =    -0.00045357    0.00706230    0.00115026
     atom   77 type  3   force =     0.00709199   -0.00047578   -0.00341533
     atom   78 type  3   force =    -0.00470461   -0.00124487   -0.00554403
     atom   79 type  4   force =    -0.00054862    0.00219315    0.00410821
     atom   80 type  3   force =     0.00013226   -0.00472955    0.00660439
     atom   81 type  3   force =     0.00637187   -0.00140349   -0.00340630
     atom   82 type  3   force =    -0.00001784    0.00746354    0.00295941
     atom   83 type  4   force =     0.00075289   -0.00398909   -0.00166781
     atom   84 type  3   force =    -0.00515235   -0.00208980   -0.00501282
     atom   85 type  3   force =     0.00692535   -0.00192948   -0.00383171
     atom   86 type  3   force =    -0.00050348   -0.00526167    0.00591151

     Total force =     0.107687     Total SCF correction =     0.000389


     Computing stress (Cartesian axis) and pressure


     negative rho (up, down):  3.682E-02 3.394E-02
          total   stress  (Ry/bohr**3)                   (kbar)     P=        0.66
   0.00000406   0.00000023  -0.00000066            0.60        0.03       -0.10
   0.00000023   0.00000516  -0.00000057            0.03        0.76       -0.08
  -0.00000066  -0.00000057   0.00000422           -0.10       -0.08        0.62


     Writing all to output data dir ./out/Fe2_tert-butoxide_6_LowSpin.save/ :
     XML data file, charge density, pseudopotentials, collected wavefunctions

     init_run     :     77.62s CPU     78.79s WALL (       1 calls)
     electrons    :  17522.42s CPU  17859.68s WALL (       1 calls)
     forces       :    716.84s CPU    717.79s WALL (       1 calls)
     stress       :   1996.96s CPU   1998.71s WALL (       1 calls)

     Called by init_run:
     wfcinit      :     62.29s CPU     62.98s WALL (       1 calls)
     potinit      :      2.18s CPU      2.36s WALL (       1 calls)
     hinit0       :      5.46s CPU      5.51s WALL (       1 calls)

     Called by electrons:
     c_bands      :  12123.79s CPU  12223.79s WALL (     504 calls)
     sum_band     :   3379.29s CPU   3535.69s WALL (     504 calls)
     v_of_rho     :    373.59s CPU    374.03s WALL (     505 calls)
     newd         :    743.99s CPU    823.49s WALL (     505 calls)
     PAW_pot      :    675.46s CPU    675.50s WALL (     505 calls)
     mix_rho      :    210.33s CPU    210.47s WALL (     504 calls)

     Called by c_bands:
     init_us_2    :    333.46s CPU    333.61s WALL (    2028 calls)
     cegterg      :  11730.48s CPU  11829.08s WALL (    1008 calls)

     Called by *egterg:
     cdiaghg      :    279.40s CPU    279.51s WALL (    5573 calls)
     h_psi        :   8456.77s CPU   8492.63s WALL (    5575 calls)
     s_psi        :   1175.49s CPU   1176.26s WALL (    5585 calls)
     g_psi        :     23.88s CPU     24.01s WALL (    4565 calls)

     Called by h_psi:
     h_psi:calbec :   1224.14s CPU   1224.28s WALL (    5575 calls)
     vloc_psi     :   5862.60s CPU   5868.67s WALL (    5575 calls)
     add_vuspsi   :   1159.69s CPU   1159.81s WALL (    5575 calls)
     vhpsi        :    178.17s CPU    178.26s WALL (    5575 calls)

     General routines
     calbec       :   2273.51s CPU   2273.89s WALL (   29720 calls)
     fft          :    246.84s CPU    247.31s WALL (   10647 calls)
     ffts         :     14.99s CPU     15.02s WALL (    1008 calls)
     fftw         :   6116.18s CPU   6120.98s WALL (  710376 calls)

     Parallel routines

     Hubbard U routines
     new_ns       :     54.84s CPU     54.87s WALL (     504 calls)
     vhpsi        :    178.17s CPU    178.26s WALL (    5575 calls)
     force_hub    :    704.92s CPU    705.40s WALL (       1 calls)
                                        0.00s GPU  (       1 calls)
     stres_hub    :   1886.48s CPU   1887.28s WALL (       1 calls)
                                        0.00s GPU  (       1 calls)

     PWSCF        :      5h38m CPU      5h44m WALL


   This run was terminated on:  18: 9:18  30Mar2025            

=------------------------------------------------------------------------------=
   JOB DONE.
=------------------------------------------------------------------------------=
