
     Program PWSCF v.7.3.1 starts on 24Mar2025 at 13:34: 1 

     This program is part of the open-source Quantum ESPRESSO suite
     for quantum simulation of materials; please cite
         "P. Giannozzi et al., J. Phys.:Condens. Matter 21 395502 (2009);
         "P. Giannozzi et al., J. Phys.:Condens. Matter 29 465901 (2017);
         "P. Giannozzi et al., J. Chem. Phys. 152 154105 (2020);
          URL http://www.quantum-espresso.org", 
     in publications or presentations arising from this work. More details at
     http://www.quantum-espresso.org/quote

     Parallel version (MPI), running on   128 processors

     MPI processes distributed on     2 nodes
     237380 MiB available memory on the printing compute node when the environment starts

     Reading input from Fe3_O_piv_6_H2O_3_LowSpin.in

     Current dimensions of program PWSCF are:
     Max number of different atomic species (ntypx) = 10
     Max number of k-points (npk) =  40000
     Max angular momentum in pseudopotentials (lmaxx) =  4
read_pp_mesh; mismatch in mesh size, discarding the one in header
read_pp_mesh; mismatch in mesh size, discarding the one in header
read_pp_mesh; mismatch in mesh size, discarding the one in header
     file Fe.GGA-PBE-paw.UPF: wavefunction(s)  4S 3P 4P 3D 4D renormalized
     file O.GGA-PBE-paw.UPF: wavefunction(s)  3S 2P 3P renormalized
     file H.GGA-PBE-paw.UPF: wavefunction(s)  2S 2P renormalized
     file C.GGA-PBE-paw.UPF: wavefunction(s)  3S 3P renormalized
     Message from routine setup:
     the system is metallic, specify occupations

     R & G space division:  proc/nbgrp/npool/nimage =     128
     Subspace diagonalization in iterative solution of the eigenvalue problem:
     one sub-group per band group will be used
     custom distributed-memory algorithm (size of sub-group:  2*  2 procs)


     Parallelization info
     --------------------
     sticks:   dense  smooth     PW     G-vecs:    dense   smooth      PW
     Min         542     542    135               100828   100828   12601
     Max         543     543    136               100837   100837   12608
     Sum       69493   69493  17367             12906675 12906675 1613349

     Using Slab Decomposition



     bravais-lattice index     =            0
     lattice parameter (alat)  =      61.4318  a.u.
     unit-cell volume          =  211893.4902 (a.u.)^3
     number of atoms/cell      =          109
     number of atomic types    =            4
     number of electrons       =       323.00 (up: 163.00, down: 160.00)
     number of Kohn-Sham states=          163
     kinetic-energy cutoff     =      58.8000  Ry
     charge density cutoff     =     235.2000  Ry
     scf convergence threshold =      1.0E-06
     mixing beta               =       0.3000
     number of iterations used =            8  plain     mixing
     Exchange-correlation= SLA PW PBX PBC
                           (   1   4   3   4   0   0   0)
     Hubbard projectors: ortho-atomic
     Hubbard parameters of DFT+U (Dudarev formulation) in eV:
     U(Fe-3d) =  6.0000

     Internal variables: lda_plus_u =T, lda_plus_u_kind = 0

     celldm(1)=  61.431848  celldm(2)=   0.000000  celldm(3)=   0.000000
     celldm(4)=   0.000000  celldm(5)=   0.000000  celldm(6)=   0.000000

     crystal axes: (cart. coord. in units of alat)
               a(1) = (   1.000000   0.000000   0.000000 )  
               a(2) = (   0.000000   0.983954   0.000000 )  
               a(3) = (   0.000000   0.000000   0.928885 )  

     reciprocal axes: (cart. coord. in units 2 pi/alat)
               b(1) = (  1.000000  0.000000  0.000000 )  
               b(2) = (  0.000000  1.016308  0.000000 )  
               b(3) = (  0.000000  0.000000  1.076559 )  


     PseudoPot. # 1 for Fe read from file:
     /work/e89/e89/phsmea/CASTEP_TO_QS_ARCHER/Fe.GGA-PBE-paw.UPF
     MD5 check sum: 89f6fde11583ee234fe819c830abe0a6
     Pseudo is Projector augmented-wave + core cor, Zval = 16.0
     Generated using ATOMPAW code
     Shape of augmentation charge: SINC**2
     Using radial grid of 2342 points,  6 beta functions with: 
                l(1) =   0
                l(2) =   0
                l(3) =   1
                l(4) =   1
                l(5) =   2
                l(6) =   2
     Q(r) pseudized with 0 coefficients 


     PseudoPot. # 2 for O  read from file:
     /work/e89/e89/phsmea/CASTEP_TO_QS_ARCHER/O.GGA-PBE-paw.UPF
     MD5 check sum: 75cebe6e27812ecd511c7c5e5b8738d8
     Pseudo is Projector augmented-wave + core cor, Zval =  6.0
     Generated using ATOMPAW code
     Shape of augmentation charge: SINC**2
     Using radial grid of 2342 points,  4 beta functions with: 
                l(1) =   0
                l(2) =   0
                l(3) =   1
                l(4) =   1
     Q(r) pseudized with 0 coefficients 


     PseudoPot. # 3 for H  read from file:
     /work/e89/e89/phsmea/CASTEP_TO_QS_ARCHER/H.GGA-PBE-paw.UPF
     MD5 check sum: b9d592600ff6b56d2e28875790887365
     Pseudo is Projector augmented-wave + core cor, Zval =  1.0
     Generated using ATOMPAW code
     Shape of augmentation charge: SINC**2
     Using radial grid of 2342 points,  3 beta functions with: 
                l(1) =   0
                l(2) =   0
                l(3) =   1
     Q(r) pseudized with 0 coefficients 


     PseudoPot. # 4 for C  read from file:
     /work/e89/e89/phsmea/CASTEP_TO_QS_ARCHER/C.GGA-PBE-paw.UPF
     MD5 check sum: 6449554384d65163c08b954f27925b11
     Pseudo is Projector augmented-wave + core cor, Zval =  4.0
     Generated using ATOMPAW code
     Shape of augmentation charge: SINC**2
     Using radial grid of 2342 points,  4 beta functions with: 
                l(1) =   0
                l(2) =   0
                l(3) =   1
                l(4) =   1
     Q(r) pseudized with 0 coefficients 


     atomic species   valence    mass     pseudopotential
     Fe               16.00    55.84500     Fe( 1.00)
     O                 6.00    16.00000     O ( 1.00)
     H                 1.00     1.00800     H ( 1.00)
     C                 4.00    12.01100     C ( 1.00)

     Starting magnetic structure 
     atomic species   magnetization
     Fe              0.062
     O               0.000
     H               0.000
     C               0.000

     No symmetry found



   Cartesian axes

     site n.     atom                  positions (alat units)
         1        Fe     tau(   1) = (   0.5339877   0.4530735   0.4734192  )
         2        Fe     tau(   2) = (   0.5059010   0.4973119   0.3865703  )
         3        Fe     tau(   3) = (   0.4616292   0.5239900   0.4739621  )
         4        O      tau(   4) = (   0.5002216   0.4912537   0.4445097  )
         5        O      tau(   5) = (   0.5746154   0.4093125   0.5028391  )
         6        H      tau(   6) = (   0.5802858   0.3878163   0.4831816  )
         7        H      tau(   7) = (   0.6005106   0.4221346   0.5094964  )
         8        O      tau(   8) = (   0.5097534   0.5084191   0.3209634  )
         9        H      tau(   9) = (   0.5094926   0.5379557   0.3178732  )
        10        H      tau(  10) = (   0.4853477   0.4981564   0.3076134  )
        11        O      tau(  11) = (   0.4180849   0.5590590   0.5103948  )
        12        H      tau(  12) = (   0.4067417   0.5403957   0.5304998  )
        13        H      tau(  13) = (   0.4323383   0.5802927   0.5253876  )
        14        O      tau(  14) = (   0.5867006   0.4740920   0.4469997  )
        15        O      tau(  15) = (   0.5668188   0.5032456   0.3883297  )
        16        O      tau(  16) = (   0.5313992   0.4076959   0.4311016  )
        17        O      tau(  17) = (   0.5099391   0.4373170   0.3732665  )
        18        O      tau(  18) = (   0.5014911   0.5601000   0.3861378  )
        19        O      tau(  19) = (   0.4743746   0.5773228   0.4465760  )
        20        O      tau(  20) = (   0.4447183   0.4938718   0.3754437  )
        21        O      tau(  21) = (   0.4157319   0.5123732   0.4346726  )
        22        O      tau(  22) = (   0.5018106   0.5403493   0.5192085  )
        23        O      tau(  23) = (   0.5471536   0.4891179   0.5215587  )
        24        O      tau(  24) = (   0.4409377   0.4781653   0.5107294  )
        25        O      tau(  25) = (   0.4868020   0.4277912   0.5038214  )
        26        C      tau(  26) = (   0.5936324   0.4946784   0.4150054  )
        27        C      tau(  27) = (   0.6369305   0.5111515   0.4075349  )
        28        C      tau(  28) = (   0.6512247   0.4971056   0.3649317  )
        29        H      tau(  29) = (   0.6301521   0.5074851   0.3410016  )
        30        H      tau(  30) = (   0.6535368   0.4636089   0.3632141  )
        31        H      tau(  31) = (   0.6816679   0.5098299   0.3586058  )
        32        C      tau(  32) = (   0.6341491   0.5582294   0.4085348  )
        33        H      tau(  33) = (   0.6127756   0.5695186   0.3852661  )
        34        H      tau(  34) = (   0.6644718   0.5713133   0.4023591  )
        35        H      tau(  35) = (   0.6240819   0.5693010   0.4386547  )
        36        C      tau(  36) = (   0.6667561   0.4961566   0.4403811  )
        37        H      tau(  37) = (   0.6692404   0.4626640   0.4403589  )
        38        H      tau(  38) = (   0.6572799   0.5059517   0.4710604  )
        39        H      tau(  39) = (   0.6973182   0.5087385   0.4343605  )
        40        C      tau(  40) = (   0.5209514   0.4064312   0.3937498  )
        41        C      tau(  41) = (   0.5202540   0.3644788   0.3728082  )
        42        C      tau(  42) = (   0.4785993   0.3451712   0.3839431  )
        43        H      tau(  43) = (   0.4531049   0.3637901   0.3724361  )
        44        H      tau(  44) = (   0.4753050   0.3417383   0.4171947  )
        45        H      tau(  45) = (   0.4763541   0.3147013   0.3699628  )
        46        C      tau(  46) = (   0.5550438   0.3375172   0.3891832  )
        47        H      tau(  47) = (   0.5851264   0.3512286   0.3830730  )
        48        H      tau(  48) = (   0.5541773   0.3076134   0.3739139  )
        49        H      tau(  49) = (   0.5520833   0.3323501   0.4221963  )
        50        C      tau(  50) = (   0.5238422   0.3691034   0.3262789  )
        51        H      tau(  51) = (   0.5526978   0.3839597   0.3175995  )
        52        H      tau(  52) = (   0.4986325   0.3873298   0.3137800  )
        53        H      tau(  53) = (   0.5230527   0.3387533   0.3118998  )
        54        C      tau(  54) = (   0.4894749   0.5862488   0.4119937  )
        55        C      tau(  55) = (   0.4927408   0.6318506   0.4014369  )
        56        C      tau(  56) = (   0.5137947   0.6383208   0.3600997  )
        57        H      tau(  57) = (   0.5165066   0.6712299   0.3539382  )
        58        H      tau(  58) = (   0.4961380   0.6246763   0.3349910  )
        59        H      tau(  59) = (   0.5446493   0.6250939   0.3597462  )
        60        C      tau(  60) = (   0.4489262   0.6492358   0.4001516  )
        61        H      tau(  61) = (   0.4501183   0.6820473   0.3930419  )
        62        H      tau(  62) = (   0.4334026   0.6453226   0.4296305  )
        63        H      tau(  63) = (   0.4304896   0.6342248   0.3763716  )
        64        C      tau(  64) = (   0.5173147   0.6531059   0.4355437  )
        65        H      tau(  65) = (   0.5188822   0.6860799   0.4293166  )
        66        H      tau(  66) = (   0.5487992   0.6414031   0.4370249  )
        67        H      tau(  67) = (   0.5029057   0.6485890   0.4654837  )
        68        C      tau(  68) = (   0.4138339   0.4995644   0.3982442  )
        69        C      tau(  69) = (   0.3716829   0.4894705   0.3802524  )
        70        C      tau(  70) = (   0.3700473   0.4426319   0.3747011  )
        71        H      tau(  71) = (   0.3405670   0.4340235   0.3610761  )
        72        H      tau(  72) = (   0.3727758   0.4267436   0.4042031  )
        73        H      tau(  73) = (   0.3946136   0.4319406   0.3544771  )
        74        C      tau(  74) = (   0.3674130   0.5105349   0.3383993  )
        75        H      tau(  75) = (   0.3375433   0.5029086   0.3250606  )
        76        H      tau(  76) = (   0.3912628   0.5003951   0.3171012  )
        77        H      tau(  77) = (   0.3691391   0.5439859   0.3412715  )
        78        C      tau(  78) = (   0.3373435   0.5034112   0.4088997  )
        79        H      tau(  79) = (   0.3076134   0.4957062   0.3952770  )
        80        H      tau(  80) = (   0.3382527   0.5365805   0.4140055  )
        81        H      tau(  81) = (   0.3393985   0.4883526   0.4388100  )
        82        C      tau(  82) = (   0.5326607   0.5226663   0.5344687  )
        83        C      tau(  83) = (   0.5528189   0.5423577   0.5720001  )
        84        C      tau(  84) = (   0.5522921   0.5891475   0.5679748  )
        85        H      tau(  85) = (   0.5698594   0.5993699   0.5412060  )
        86        H      tau(  86) = (   0.5661434   0.6029265   0.5952996  )
        87        H      tau(  87) = (   0.5210253   0.6008738   0.5649833  )
        88        C      tau(  88) = (   0.5267943   0.5292189   0.6091645  )
        89        H      tau(  89) = (   0.5264197   0.4957914   0.6126142  )
        90        H      tau(  90) = (   0.4951332   0.5400906   0.6063616  )
        91        H      tau(  91) = (   0.5398692   0.5423745   0.6371797  )
        92        C      tau(  92) = (   0.5968075   0.5270300   0.5773847  )
        93        H      tau(  93) = (   0.6105409   0.5416373   0.6043389  )
        94        H      tau(  94) = (   0.6157994   0.5345817   0.5507147  )
        95        H      tau(  95) = (   0.5977730   0.4938102   0.5818793  )
        96        C      tau(  96) = (   0.4533804   0.4419294   0.5171184  )
        97        C      tau(  97) = (   0.4252941   0.4131333   0.5412201  )
        98        C      tau(  98) = (   0.3944838   0.3959014   0.5098108  )
        99        H      tau(  99) = (   0.3731140   0.3752064   0.5254263  )
       100        H      tau( 100) = (   0.4101610   0.3784418   0.4857532  )
       101        H      tau( 101) = (   0.3766945   0.4205254   0.4954693  )
       102        C      tau( 102) = (   0.4022744   0.4368903   0.5745675  )
       103        H      tau( 103) = (   0.3825623   0.4157912   0.5917290  )
       104        H      tau( 104) = (   0.3828207   0.4608487   0.5614262  )
       105        H      tau( 105) = (   0.4235009   0.4511245   0.5964137  )
       106        C      tau( 106) = (   0.4498339   0.3780296   0.5602962  )
       107        H      tau( 107) = (   0.4289534   0.3573707   0.5765989  )
       108        H      tau( 108) = (   0.4724756   0.3894092   0.5823574  )
       109        H      tau( 109) = (   0.4661544   0.3603327   0.5369697  )

     number of k points=     1
                       cart. coord. in units 2pi/alat
        k(    1) = (   0.0000000   0.0000000   0.0000000), wk =   1.0000000

     Dense  grid: 12906675 G-vectors     FFT dimensions: ( 300, 300, 288)

     Estimated max dynamical RAM per process >     919.33 MB

     Estimated total dynamical RAM >     114.92 GB

     Check: negative core charge=   -0.000002
     Generating pointlists ...
     new r_m :   0.0241 (alat units)  1.4832 (a.u.) for type    1
     new r_m :   0.0122 (alat units)  0.7512 (a.u.) for type    2
     new r_m :   0.0122 (alat units)  0.7512 (a.u.) for type    3
     new r_m :   0.0138 (alat units)  0.8494 (a.u.) for type    4

     Initial potential from superposition of free atoms

     starting charge     323.9959, renormalised to     323.0000

     negative rho (up, down):  4.388E-02 4.067E-02

     STARTING HUBBARD OCCUPATIONS:

     =================== HUBBARD OCCUPATIONS ===================
     ------------------------ ATOM    1 ------------------------
     Tr[ns(  1)] (up, down, total) =   5.00000  2.00000  7.00000
     Atomic magnetic moment for atom   1 =   3.00000
     SPIN  1
     eigenvalues:
       1.000  1.000  1.000  1.000  1.000
     eigenvectors (columns):
       1.000  0.000  0.000  0.000  0.000
       0.000  1.000  0.000  0.000  0.000
       0.000  0.000  1.000  0.000  0.000
       0.000  0.000  0.000  1.000  0.000
       0.000  0.000  0.000  0.000  1.000
     occupation matrix ns (before diag.):
       1.000  0.000  0.000  0.000  0.000
       0.000  1.000  0.000  0.000  0.000
       0.000  0.000  1.000  0.000  0.000
       0.000  0.000  0.000  1.000  0.000
       0.000  0.000  0.000  0.000  1.000
     SPIN  2
     eigenvalues:
       0.400  0.400  0.400  0.400  0.400
     eigenvectors (columns):
       1.000  0.000  0.000  0.000  0.000
       0.000  1.000  0.000  0.000  0.000
       0.000  0.000  1.000  0.000  0.000
       0.000  0.000  0.000  1.000  0.000
       0.000  0.000  0.000  0.000  1.000
     occupation matrix ns (before diag.):
       0.400  0.000  0.000  0.000  0.000
       0.000  0.400  0.000  0.000  0.000
       0.000  0.000  0.400  0.000  0.000
       0.000  0.000  0.000  0.400  0.000
       0.000  0.000  0.000  0.000  0.400
     ------------------------ ATOM    2 ------------------------
     Tr[ns(  2)] (up, down, total) =   5.00000  2.00000  7.00000
     Atomic magnetic moment for atom   2 =   3.00000
     SPIN  1
     eigenvalues:
       1.000  1.000  1.000  1.000  1.000
     eigenvectors (columns):
       1.000  0.000  0.000  0.000  0.000
       0.000  1.000  0.000  0.000  0.000
       0.000  0.000  1.000  0.000  0.000
       0.000  0.000  0.000  1.000  0.000
       0.000  0.000  0.000  0.000  1.000
     occupation matrix ns (before diag.):
       1.000  0.000  0.000  0.000  0.000
       0.000  1.000  0.000  0.000  0.000
       0.000  0.000  1.000  0.000  0.000
       0.000  0.000  0.000  1.000  0.000
       0.000  0.000  0.000  0.000  1.000
     SPIN  2
     eigenvalues:
       0.400  0.400  0.400  0.400  0.400
     eigenvectors (columns):
       1.000  0.000  0.000  0.000  0.000
       0.000  1.000  0.000  0.000  0.000
       0.000  0.000  1.000  0.000  0.000
       0.000  0.000  0.000  1.000  0.000
       0.000  0.000  0.000  0.000  1.000
     occupation matrix ns (before diag.):
       0.400  0.000  0.000  0.000  0.000
       0.000  0.400  0.000  0.000  0.000
       0.000  0.000  0.400  0.000  0.000
       0.000  0.000  0.000  0.400  0.000
       0.000  0.000  0.000  0.000  0.400
     ------------------------ ATOM    3 ------------------------
     Tr[ns(  3)] (up, down, total) =   5.00000  2.00000  7.00000
     Atomic magnetic moment for atom   3 =   3.00000
     SPIN  1
     eigenvalues:
       1.000  1.000  1.000  1.000  1.000
     eigenvectors (columns):
       1.000  0.000  0.000  0.000  0.000
       0.000  1.000  0.000  0.000  0.000
       0.000  0.000  1.000  0.000  0.000
       0.000  0.000  0.000  1.000  0.000
       0.000  0.000  0.000  0.000  1.000
     occupation matrix ns (before diag.):
       1.000  0.000  0.000  0.000  0.000
       0.000  1.000  0.000  0.000  0.000
       0.000  0.000  1.000  0.000  0.000
       0.000  0.000  0.000  1.000  0.000
       0.000  0.000  0.000  0.000  1.000
     SPIN  2
     eigenvalues:
       0.400  0.400  0.400  0.400  0.400
     eigenvectors (columns):
       1.000  0.000  0.000  0.000  0.000
       0.000  1.000  0.000  0.000  0.000
       0.000  0.000  1.000  0.000  0.000
       0.000  0.000  0.000  1.000  0.000
       0.000  0.000  0.000  0.000  1.000
     occupation matrix ns (before diag.):
       0.400  0.000  0.000  0.000  0.000
       0.000  0.400  0.000  0.000  0.000
       0.000  0.000  0.400  0.000  0.000
       0.000  0.000  0.000  0.400  0.000
       0.000  0.000  0.000  0.000  0.400

     Number of occupied Hubbard levels =   21.0000

     Atomic wfc used for Hubbard projectors are orthogonalized

     Starting wfcs are  722 randomized atomic wfcs
     Checking if some PAW data can be deallocated... 

     total cpu time spent up to now is       79.9 secs

     per-process dynamical memory:   408.6 Mb

     Self-consistent Calculation

     iteration #  1     ecut=    58.80 Ry     beta= 0.30
     Davidson diagonalization with overlap
     ethr =  1.00E-02,  avg # of iterations =  2.0

     =================== HUBBARD OCCUPATIONS ===================
     ------------------------ ATOM    1 ------------------------
     Tr[ns(  1)] (up, down, total) =   3.41938  1.33728  4.75666
     Atomic magnetic moment for atom   1 =   2.08210
     SPIN  1
     eigenvalues:
       0.228  0.287  0.951  0.969  0.985
     eigenvectors (columns):
       0.257 -0.184  0.754  0.565 -0.111
      -0.524 -0.461 -0.272  0.529  0.398
      -0.625  0.626  0.414 -0.021  0.214
      -0.433 -0.061 -0.098  0.133 -0.884
      -0.286 -0.598  0.421 -0.618  0.041
     occupation matrix ns (before diag.):
       0.887  0.045  0.192  0.078 -0.026
       0.045  0.621 -0.042 -0.194 -0.297
       0.192 -0.042  0.409 -0.177  0.120
       0.078 -0.194 -0.177  0.840 -0.116
      -0.026 -0.297  0.120 -0.116  0.662
     SPIN  2
     eigenvalues:
       0.112  0.116  0.142  0.361  0.606
     eigenvectors (columns):
       0.174  0.121  0.777 -0.586  0.093
       0.378 -0.647 -0.213 -0.383 -0.497
      -0.878 -0.389  0.198 -0.105 -0.166
       0.017 -0.442 -0.202 -0.221  0.846
       0.236 -0.469  0.521  0.671  0.050
     occupation matrix ns (before diag.):
       0.220  0.028  0.012  0.066 -0.084
       0.028  0.273  0.050 -0.184 -0.078
       0.012  0.050  0.130 -0.064 -0.018
       0.066 -0.184 -0.064  0.479 -0.018
      -0.084 -0.078 -0.018 -0.018  0.235
     ------------------------ ATOM    2 ------------------------
     Tr[ns(  2)] (up, down, total) =   3.43396  1.17484  4.60881
     Atomic magnetic moment for atom   2 =   2.25912
     SPIN  1
     eigenvalues:
       0.236  0.288  0.954  0.971  0.986
     eigenvectors (columns):
      -0.051  0.959  0.054 -0.040  0.272
      -0.087  0.141  0.731 -0.030 -0.662
       0.054  0.235 -0.672 -0.068 -0.696
       0.986  0.042  0.106 -0.123  0.001
       0.122  0.065 -0.009  0.989 -0.057
     occupation matrix ns (before diag.):
       0.343 -0.099 -0.154  0.010 -0.038
      -0.099  0.949 -0.004  0.058  0.002
      -0.154 -0.004  0.930 -0.045 -0.015
       0.010  0.058 -0.045  0.255 -0.090
      -0.038  0.002 -0.015 -0.090  0.957
     SPIN  2
     eigenvalues:
       0.112  0.116  0.146  0.327  0.474
     eigenvectors (columns):
       0.198  0.933 -0.043 -0.231  0.190
       0.154  0.145  0.783  0.101 -0.575
      -0.067  0.203 -0.593  0.280 -0.724
       0.953 -0.224 -0.170 -0.098 -0.050
       0.154  0.133  0.066  0.921  0.325
     occupation matrix ns (before diag.):
       0.140 -0.045 -0.062  0.001 -0.023
      -0.045  0.255  0.141  0.004 -0.046
      -0.062  0.141  0.331  0.010 -0.031
       0.001  0.004  0.010  0.116 -0.026
      -0.023 -0.046 -0.031 -0.026  0.333
     ------------------------ ATOM    3 ------------------------
     Tr[ns(  3)] (up, down, total) =   3.33620  0.69234  4.02854
     Atomic magnetic moment for atom   3 =   2.64385
     SPIN  1
     eigenvalues:
       0.224  0.243  0.921  0.965  0.983
     eigenvectors (columns):
       0.164  0.096 -0.772 -0.601 -0.081
      -0.745 -0.448 -0.382  0.182  0.256
      -0.456  0.621  0.251 -0.405  0.423
       0.455 -0.219 -0.042  0.027  0.862
       0.056  0.597 -0.440  0.664  0.080
     occupation matrix ns (before diag.):
       0.913  0.108  0.021 -0.043 -0.063
       0.108  0.403 -0.045  0.184  0.217
       0.021 -0.045  0.533  0.259 -0.244
      -0.043  0.184  0.259  0.791  0.076
      -0.063  0.217 -0.244  0.076  0.697
     SPIN  2
     eigenvalues:
       0.083  0.107  0.113  0.122  0.268
     eigenvectors (columns):
      -0.755 -0.273  0.321  0.063 -0.498
      -0.436  0.281 -0.698  0.479  0.117
       0.210 -0.722 -0.567 -0.138 -0.305
       0.275 -0.334  0.288  0.852  0.059
      -0.346 -0.461  0.064 -0.147  0.801
     occupation matrix ns (before diag.):
       0.134 -0.018  0.027  0.002 -0.070
      -0.018  0.111 -0.002  0.009  0.010
       0.027 -0.002  0.123 -0.007 -0.037
       0.002  0.009 -0.007  0.117  0.008
      -0.070  0.010 -0.037  0.008  0.208

     Number of occupied Hubbard levels =   13.3940

     negative rho (up, down):  4.603E-02 4.183E-02

     total cpu time spent up to now is      110.8 secs

     total energy              =   -2271.74440767 Ry
     estimated scf accuracy    <      24.67174163 Ry

     total magnetization       =     3.00 Bohr mag/cell
     absolute magnetization    =    11.20 Bohr mag/cell

     iteration #  2     ecut=    58.80 Ry     beta= 0.30
     Davidson diagonalization with overlap
     ethr =  7.64E-03,  avg # of iterations =  5.5

     negative rho (up, down):  4.710E-02 4.296E-02

     total cpu time spent up to now is      146.8 secs

     total energy              =   -2270.46638882 Ry
     estimated scf accuracy    <      51.52002129 Ry

     total magnetization       =     3.00 Bohr mag/cell
     absolute magnetization    =     3.76 Bohr mag/cell

     iteration #  3     ecut=    58.80 Ry     beta= 0.30
     Davidson diagonalization with overlap
     ethr =  7.64E-03,  avg # of iterations =  6.0

     negative rho (up, down):  4.865E-02 4.454E-02

     total cpu time spent up to now is      176.3 secs

     total energy              =   -2277.26454199 Ry
     estimated scf accuracy    <       4.80967118 Ry

     total magnetization       =     3.00 Bohr mag/cell
     absolute magnetization    =     4.35 Bohr mag/cell

     iteration #  4     ecut=    58.80 Ry     beta= 0.30
     Davidson diagonalization with overlap
     ethr =  1.49E-03,  avg # of iterations =  8.5

     negative rho (up, down):  4.908E-02 4.502E-02

     total cpu time spent up to now is      204.6 secs

     total energy              =   -2276.36490741 Ry
     estimated scf accuracy    <      23.06844121 Ry

     total magnetization       =     3.00 Bohr mag/cell
     absolute magnetization    =     4.03 Bohr mag/cell

     iteration #  5     ecut=    58.80 Ry     beta= 0.30
     Davidson diagonalization with overlap
     ethr =  1.49E-03,  avg # of iterations = 10.0

     negative rho (up, down):  5.062E-02 4.664E-02

     total cpu time spent up to now is      233.2 secs

     total energy              =   -2277.62077805 Ry
     estimated scf accuracy    <       2.03190599 Ry

     total magnetization       =     3.00 Bohr mag/cell
     absolute magnetization    =     4.32 Bohr mag/cell

     iteration #  6     ecut=    58.80 Ry     beta= 0.30
     Davidson diagonalization with overlap
     ethr =  6.29E-04,  avg # of iterations =  4.5

     negative rho (up, down):  5.193E-02 4.804E-02

     total cpu time spent up to now is      258.5 secs

     total energy              =   -2277.68277724 Ry
     estimated scf accuracy    <       0.77170424 Ry

     total magnetization       =     3.00 Bohr mag/cell
     absolute magnetization    =     4.24 Bohr mag/cell

     iteration #  7     ecut=    58.80 Ry     beta= 0.30
     Davidson diagonalization with overlap
     ethr =  2.39E-04,  avg # of iterations =  7.0

     negative rho (up, down):  5.227E-02 4.840E-02

     total cpu time spent up to now is      287.1 secs

     total energy              =   -2277.78578485 Ry
     estimated scf accuracy    <       0.26877800 Ry

     total magnetization       =     3.00 Bohr mag/cell
     absolute magnetization    =     4.40 Bohr mag/cell

     iteration #  8     ecut=    58.80 Ry     beta= 0.30
     Davidson diagonalization with overlap
     ethr =  8.32E-05,  avg # of iterations =  2.0

     negative rho (up, down):  5.271E-02 4.889E-02

     total cpu time spent up to now is      311.4 secs

     total energy              =   -2277.78986123 Ry
     estimated scf accuracy    <       0.20609394 Ry

     total magnetization       =     3.00 Bohr mag/cell
     absolute magnetization    =     4.45 Bohr mag/cell

     iteration #  9     ecut=    58.80 Ry     beta= 0.30
     Davidson diagonalization with overlap
     ethr =  6.38E-05,  avg # of iterations =  4.5

     negative rho (up, down):  5.296E-02 4.917E-02

     total cpu time spent up to now is      337.2 secs

     total energy              =   -2277.80487197 Ry
     estimated scf accuracy    <       0.07486032 Ry

     total magnetization       =     3.00 Bohr mag/cell
     absolute magnetization    =     4.48 Bohr mag/cell

     iteration # 10     ecut=    58.80 Ry     beta= 0.30
     Davidson diagonalization with overlap
     ethr =  2.32E-05,  avg # of iterations =  7.0

     negative rho (up, down):  5.297E-02 4.919E-02

     total cpu time spent up to now is      365.6 secs

     total energy              =   -2277.81884602 Ry
     estimated scf accuracy    <       0.01979291 Ry

     total magnetization       =     3.00 Bohr mag/cell
     absolute magnetization    =     4.64 Bohr mag/cell

     iteration # 11     ecut=    58.80 Ry     beta= 0.30
     Davidson diagonalization with overlap
     ethr =  6.13E-06,  avg # of iterations =  1.5

     negative rho (up, down):  5.306E-02 4.936E-02

     total cpu time spent up to now is      389.0 secs

     total energy              =   -2277.82945499 Ry
     estimated scf accuracy    <       0.01750334 Ry

     total magnetization       =     3.00 Bohr mag/cell
     absolute magnetization    =     4.66 Bohr mag/cell

     iteration # 12     ecut=    58.80 Ry     beta= 0.30
     Davidson diagonalization with overlap
     ethr =  5.42E-06,  avg # of iterations =  8.0

     negative rho (up, down):  5.306E-02 4.936E-02

     total cpu time spent up to now is      422.8 secs

     total energy              =   -2277.83768294 Ry
     estimated scf accuracy    <       0.05038921 Ry

     total magnetization       =     3.00 Bohr mag/cell
     absolute magnetization    =     5.21 Bohr mag/cell

     iteration # 13     ecut=    58.80 Ry     beta= 0.30
     Davidson diagonalization with overlap
     ethr =  5.42E-06,  avg # of iterations =  1.0

     negative rho (up, down):  5.317E-02 4.957E-02

     total cpu time spent up to now is      445.3 secs

     total energy              =   -2277.85224142 Ry
     estimated scf accuracy    <       0.05296713 Ry

     total magnetization       =     3.00 Bohr mag/cell
     absolute magnetization    =     5.19 Bohr mag/cell

     iteration # 14     ecut=    58.80 Ry     beta= 0.30
     Davidson diagonalization with overlap
     ethr =  5.42E-06,  avg # of iterations =  9.0

     negative rho (up, down):  5.313E-02 4.954E-02

     total cpu time spent up to now is      477.6 secs

     total energy              =   -2277.86613556 Ry
     estimated scf accuracy    <       0.18549169 Ry

     total magnetization       =     3.00 Bohr mag/cell
     absolute magnetization    =     5.86 Bohr mag/cell

     iteration # 15     ecut=    58.80 Ry     beta= 0.30
     Davidson diagonalization with overlap
     ethr =  5.42E-06,  avg # of iterations =  1.0

     negative rho (up, down):  5.305E-02 4.954E-02

     total cpu time spent up to now is      500.1 secs

     total energy              =   -2277.87429634 Ry
     estimated scf accuracy    <       0.17824086 Ry

     total magnetization       =     3.00 Bohr mag/cell
     absolute magnetization    =     5.87 Bohr mag/cell

     iteration # 16     ecut=    58.80 Ry     beta= 0.30
     Davidson diagonalization with overlap
     ethr =  5.42E-06,  avg # of iterations =  9.0

     negative rho (up, down):  5.305E-02 4.953E-02

     total cpu time spent up to now is      528.7 secs

     total energy              =   -2277.87668695 Ry
     estimated scf accuracy    <       0.14116254 Ry

     total magnetization       =     3.00 Bohr mag/cell
     absolute magnetization    =     6.02 Bohr mag/cell

     iteration # 17     ecut=    58.80 Ry     beta= 0.30
     Davidson diagonalization with overlap
     ethr =  5.42E-06,  avg # of iterations =  1.0

     negative rho (up, down):  5.304E-02 4.940E-02

     total cpu time spent up to now is      551.2 secs

     total energy              =   -2277.85031629 Ry
     estimated scf accuracy    <       0.13965882 Ry

     total magnetization       =     3.00 Bohr mag/cell
     absolute magnetization    =     6.02 Bohr mag/cell

     iteration # 18     ecut=    58.80 Ry     beta= 0.30
     Davidson diagonalization with overlap
     ethr =  5.42E-06,  avg # of iterations =  8.5

     negative rho (up, down):  5.307E-02 4.945E-02

     total cpu time spent up to now is      580.1 secs

     total energy              =   -2277.85784452 Ry
     estimated scf accuracy    <       0.05710293 Ry

     total magnetization       =     3.00 Bohr mag/cell
     absolute magnetization    =     5.60 Bohr mag/cell

     iteration # 19     ecut=    58.80 Ry     beta= 0.30
     Davidson diagonalization with overlap
     ethr =  5.42E-06,  avg # of iterations =  2.0

     negative rho (up, down):  5.297E-02 4.945E-02

     total cpu time spent up to now is      604.2 secs

     total energy              =   -2277.86475146 Ry
     estimated scf accuracy    <       0.05567687 Ry

     total magnetization       =     3.00 Bohr mag/cell
     absolute magnetization    =     5.61 Bohr mag/cell

     iteration # 20     ecut=    58.80 Ry     beta= 0.30
     Davidson diagonalization with overlap
     ethr =  5.42E-06,  avg # of iterations =  9.0

     negative rho (up, down):  5.290E-02 4.949E-02

     total cpu time spent up to now is      633.8 secs

     total energy              =   -2277.88617524 Ry
     estimated scf accuracy    <       0.10701627 Ry

     total magnetization       =     3.00 Bohr mag/cell
     absolute magnetization    =     5.97 Bohr mag/cell

     iteration # 21     ecut=    58.80 Ry     beta= 0.30
     Davidson diagonalization with overlap
     ethr =  5.42E-06,  avg # of iterations =  9.0

     negative rho (up, down):  5.290E-02 4.960E-02

     total cpu time spent up to now is      665.9 secs

     total energy              =   -2277.90517545 Ry
     estimated scf accuracy    <       0.09426463 Ry

     total magnetization       =     3.00 Bohr mag/cell
     absolute magnetization    =     6.29 Bohr mag/cell

     iteration # 22     ecut=    58.80 Ry     beta= 0.30
     Davidson diagonalization with overlap
     ethr =  5.42E-06,  avg # of iterations =  8.5

     negative rho (up, down):  5.286E-02 4.957E-02

     total cpu time spent up to now is      706.7 secs

     total energy              =   -2277.92632333 Ry
     estimated scf accuracy    <       0.10549392 Ry

     total magnetization       =     3.00 Bohr mag/cell
     absolute magnetization    =     6.64 Bohr mag/cell

     iteration # 23     ecut=    58.80 Ry     beta= 0.30
     Davidson diagonalization with overlap
     ethr =  5.42E-06,  avg # of iterations =  3.5

     negative rho (up, down):  5.286E-02 4.958E-02

     total cpu time spent up to now is      731.8 secs

     total energy              =   -2277.92085782 Ry
     estimated scf accuracy    <       0.08539534 Ry

     total magnetization       =     3.00 Bohr mag/cell
     absolute magnetization    =     6.63 Bohr mag/cell

     iteration # 24     ecut=    58.80 Ry     beta= 0.30
     Davidson diagonalization with overlap
     ethr =  5.42E-06,  avg # of iterations =  8.5

     negative rho (up, down):  5.275E-02 4.932E-02

     total cpu time spent up to now is      760.4 secs

     total energy              =   -2277.87355218 Ry
     estimated scf accuracy    <       0.10148114 Ry

     total magnetization       =     3.00 Bohr mag/cell
     absolute magnetization    =     6.54 Bohr mag/cell

     iteration # 25     ecut=    58.80 Ry     beta= 0.30
     Davidson diagonalization with overlap
     ethr =  5.42E-06,  avg # of iterations = 11.5

     negative rho (up, down):  5.273E-02 4.945E-02

     total cpu time spent up to now is      801.5 secs

     total energy              =   -2277.90531600 Ry
     estimated scf accuracy    <       0.05118933 Ry

     total magnetization       =     3.00 Bohr mag/cell
     absolute magnetization    =     6.06 Bohr mag/cell

     iteration # 26     ecut=    58.80 Ry     beta= 0.30
     Davidson diagonalization with overlap
     ethr =  5.42E-06,  avg # of iterations = 11.5

     negative rho (up, down):  5.274E-02 4.948E-02

     total cpu time spent up to now is      836.9 secs

     total energy              =   -2277.92324715 Ry
     estimated scf accuracy    <       0.03503725 Ry

     total magnetization       =     3.00 Bohr mag/cell
     absolute magnetization    =     6.40 Bohr mag/cell

     iteration # 27     ecut=    58.80 Ry     beta= 0.30
     Davidson diagonalization with overlap
     ethr =  5.42E-06,  avg # of iterations =  8.0

     negative rho (up, down):  5.280E-02 4.956E-02

     total cpu time spent up to now is      863.7 secs

     total energy              =   -2277.93258913 Ry
     estimated scf accuracy    <       0.02605353 Ry

     total magnetization       =     3.00 Bohr mag/cell
     absolute magnetization    =     6.45 Bohr mag/cell

     iteration # 28     ecut=    58.80 Ry     beta= 0.30
     Davidson diagonalization with overlap
     ethr =  5.42E-06,  avg # of iterations =  7.5

     negative rho (up, down):  5.287E-02 4.963E-02

     total cpu time spent up to now is      895.4 secs

     total energy              =   -2277.94338329 Ry
     estimated scf accuracy    <       0.00467317 Ry

     total magnetization       =     3.00 Bohr mag/cell
     absolute magnetization    =     6.57 Bohr mag/cell

     iteration # 29     ecut=    58.80 Ry     beta= 0.30
     Davidson diagonalization with overlap
     ethr =  1.45E-06,  avg # of iterations =  6.0

     negative rho (up, down):  5.291E-02 4.966E-02

     total cpu time spent up to now is      925.6 secs

     total energy              =   -2277.94548275 Ry
     estimated scf accuracy    <       0.00181447 Ry

     total magnetization       =     3.00 Bohr mag/cell
     absolute magnetization    =     6.68 Bohr mag/cell

     iteration # 30     ecut=    58.80 Ry     beta= 0.30
     Davidson diagonalization with overlap
     ethr =  5.62E-07,  avg # of iterations =  5.5

     negative rho (up, down):  5.291E-02 4.966E-02

     total cpu time spent up to now is      953.5 secs

     total energy              =   -2277.94610474 Ry
     estimated scf accuracy    <       0.00088490 Ry

     total magnetization       =     3.00 Bohr mag/cell
     absolute magnetization    =     6.73 Bohr mag/cell

     iteration # 31     ecut=    58.80 Ry     beta= 0.30
     Davidson diagonalization with overlap
     ethr =  2.74E-07,  avg # of iterations =  6.0

     negative rho (up, down):  5.292E-02 4.966E-02

     total cpu time spent up to now is      981.4 secs

     total energy              =   -2277.94670519 Ry
     estimated scf accuracy    <       0.00059973 Ry

     total magnetization       =     3.00 Bohr mag/cell
     absolute magnetization    =     6.73 Bohr mag/cell

     iteration # 32     ecut=    58.80 Ry     beta= 0.30
     Davidson diagonalization with overlap
     ethr =  1.86E-07,  avg # of iterations =  5.5

     negative rho (up, down):  5.292E-02 4.965E-02

     total cpu time spent up to now is     1011.1 secs

     total energy              =   -2277.94734516 Ry
     estimated scf accuracy    <       0.00045552 Ry

     total magnetization       =     3.00 Bohr mag/cell
     absolute magnetization    =     6.78 Bohr mag/cell

     iteration # 33     ecut=    58.80 Ry     beta= 0.30
     Davidson diagonalization with overlap
     ethr =  1.41E-07,  avg # of iterations =  8.5

     negative rho (up, down):  5.294E-02 4.965E-02

     total cpu time spent up to now is     1045.1 secs

     total energy              =   -2277.94776334 Ry
     estimated scf accuracy    <       0.00050688 Ry

     total magnetization       =     3.00 Bohr mag/cell
     absolute magnetization    =     6.82 Bohr mag/cell

     iteration # 34     ecut=    58.80 Ry     beta= 0.30
     Davidson diagonalization with overlap
     ethr =  1.41E-07,  avg # of iterations =  7.0

     negative rho (up, down):  5.293E-02 4.965E-02

     total cpu time spent up to now is     1079.2 secs

     total energy              =   -2277.94835903 Ry
     estimated scf accuracy    <       0.00042822 Ry

     total magnetization       =     3.00 Bohr mag/cell
     absolute magnetization    =     6.86 Bohr mag/cell

     iteration # 35     ecut=    58.80 Ry     beta= 0.30
     Davidson diagonalization with overlap
     ethr =  1.33E-07,  avg # of iterations =  5.0

     negative rho (up, down):  5.293E-02 4.964E-02

     total cpu time spent up to now is     1105.8 secs

     total energy              =   -2277.94864175 Ry
     estimated scf accuracy    <       0.00025972 Ry

     total magnetization       =     3.00 Bohr mag/cell
     absolute magnetization    =     6.88 Bohr mag/cell

     iteration # 36     ecut=    58.80 Ry     beta= 0.30
     Davidson diagonalization with overlap
     ethr =  8.04E-08,  avg # of iterations =  6.0

     negative rho (up, down):  5.294E-02 4.963E-02

     total cpu time spent up to now is     1142.7 secs

     total energy              =   -2277.94913877 Ry
     estimated scf accuracy    <       0.00017726 Ry

     total magnetization       =     3.00 Bohr mag/cell
     absolute magnetization    =     6.93 Bohr mag/cell

     iteration # 37     ecut=    58.80 Ry     beta= 0.30
     Davidson diagonalization with overlap
     ethr =  5.49E-08,  avg # of iterations =  7.5

     negative rho (up, down):  5.294E-02 4.963E-02

     total cpu time spent up to now is     1181.6 secs

     total energy              =   -2277.94969521 Ry
     estimated scf accuracy    <       0.00014490 Ry

     total magnetization       =     3.00 Bohr mag/cell
     absolute magnetization    =     6.98 Bohr mag/cell

     iteration # 38     ecut=    58.80 Ry     beta= 0.30
     Davidson diagonalization with overlap
     ethr =  4.49E-08,  avg # of iterations =  6.5

     negative rho (up, down):  5.296E-02 4.964E-02

     total cpu time spent up to now is     1215.9 secs

     total energy              =   -2277.94971853 Ry
     estimated scf accuracy    <       0.00012731 Ry

     total magnetization       =     3.00 Bohr mag/cell
     absolute magnetization    =     7.01 Bohr mag/cell

     iteration # 39     ecut=    58.80 Ry     beta= 0.30
     Davidson diagonalization with overlap
     ethr =  3.94E-08,  avg # of iterations =  9.0

     negative rho (up, down):  5.296E-02 4.964E-02

     total cpu time spent up to now is     1263.3 secs

     total energy              =   -2277.95052557 Ry
     estimated scf accuracy    <       0.00009763 Ry

     total magnetization       =     3.00 Bohr mag/cell
     absolute magnetization    =     7.07 Bohr mag/cell

     iteration # 40     ecut=    58.80 Ry     beta= 0.30
     Davidson diagonalization with overlap
     ethr =  3.02E-08,  avg # of iterations =  6.0

     negative rho (up, down):  5.296E-02 4.964E-02

     total cpu time spent up to now is     1300.7 secs

     total energy              =   -2277.95074696 Ry
     estimated scf accuracy    <       0.00007860 Ry

     total magnetization       =     3.00 Bohr mag/cell
     absolute magnetization    =     7.09 Bohr mag/cell

     iteration # 41     ecut=    58.80 Ry     beta= 0.30
     Davidson diagonalization with overlap
     ethr =  2.43E-08,  avg # of iterations =  8.0

     negative rho (up, down):  5.296E-02 4.964E-02

     total cpu time spent up to now is     1341.7 secs

     total energy              =   -2277.95099829 Ry
     estimated scf accuracy    <       0.00006930 Ry

     total magnetization       =     3.00 Bohr mag/cell
     absolute magnetization    =     7.11 Bohr mag/cell

     iteration # 42     ecut=    58.80 Ry     beta= 0.30
     Davidson diagonalization with overlap
     ethr =  2.15E-08,  avg # of iterations =  8.0

     negative rho (up, down):  5.295E-02 4.963E-02

     total cpu time spent up to now is     1384.0 secs

     total energy              =   -2277.95122733 Ry
     estimated scf accuracy    <       0.00005312 Ry

     total magnetization       =     3.00 Bohr mag/cell
     absolute magnetization    =     7.13 Bohr mag/cell

     iteration # 43     ecut=    58.80 Ry     beta= 0.30
     Davidson diagonalization with overlap
     ethr =  1.64E-08,  avg # of iterations =  9.5

     negative rho (up, down):  5.295E-02 4.963E-02

     total cpu time spent up to now is     1430.2 secs

     total energy              =   -2277.95149194 Ry
     estimated scf accuracy    <       0.00004117 Ry

     total magnetization       =     3.00 Bohr mag/cell
     absolute magnetization    =     7.13 Bohr mag/cell

     iteration # 44     ecut=    58.80 Ry     beta= 0.30
     Davidson diagonalization with overlap
     ethr =  1.27E-08,  avg # of iterations =  8.5

     negative rho (up, down):  5.295E-02 4.963E-02

     total cpu time spent up to now is     1476.1 secs

     total energy              =   -2277.95178410 Ry
     estimated scf accuracy    <       0.00003485 Ry

     total magnetization       =     3.00 Bohr mag/cell
     absolute magnetization    =     7.15 Bohr mag/cell

     iteration # 45     ecut=    58.80 Ry     beta= 0.30
     Davidson diagonalization with overlap
     ethr =  1.08E-08,  avg # of iterations =  6.5

     negative rho (up, down):  5.295E-02 4.963E-02

     total cpu time spent up to now is     1514.1 secs

     total energy              =   -2277.95187950 Ry
     estimated scf accuracy    <       0.00002868 Ry

     total magnetization       =     3.00 Bohr mag/cell
     absolute magnetization    =     7.14 Bohr mag/cell

     iteration # 46     ecut=    58.80 Ry     beta= 0.30
     Davidson diagonalization with overlap
     ethr =  8.88E-09,  avg # of iterations =  6.0

     negative rho (up, down):  5.295E-02 4.964E-02

     total cpu time spent up to now is     1552.6 secs

     total energy              =   -2277.95197508 Ry
     estimated scf accuracy    <       0.00002595 Ry

     total magnetization       =     3.00 Bohr mag/cell
     absolute magnetization    =     7.14 Bohr mag/cell

     iteration # 47     ecut=    58.80 Ry     beta= 0.30
     Davidson diagonalization with overlap
     ethr =  8.04E-09,  avg # of iterations =  7.0

     negative rho (up, down):  5.295E-02 4.964E-02

     total cpu time spent up to now is     1592.1 secs

     total energy              =   -2277.95205306 Ry
     estimated scf accuracy    <       0.00002449 Ry

     total magnetization       =     3.00 Bohr mag/cell
     absolute magnetization    =     7.14 Bohr mag/cell

     iteration # 48     ecut=    58.80 Ry     beta= 0.30
     Davidson diagonalization with overlap
     ethr =  7.58E-09,  avg # of iterations =  8.0

     negative rho (up, down):  5.295E-02 4.964E-02

     total cpu time spent up to now is     1632.8 secs

     total energy              =   -2277.95213859 Ry
     estimated scf accuracy    <       0.00002316 Ry

     total magnetization       =     3.00 Bohr mag/cell
     absolute magnetization    =     7.14 Bohr mag/cell

     iteration # 49     ecut=    58.80 Ry     beta= 0.30
     Davidson diagonalization with overlap
     ethr =  7.17E-09,  avg # of iterations =  8.5

     negative rho (up, down):  5.295E-02 4.964E-02

     total cpu time spent up to now is     1674.6 secs

     total energy              =   -2277.95220129 Ry
     estimated scf accuracy    <       0.00002214 Ry

     total magnetization       =     3.00 Bohr mag/cell
     absolute magnetization    =     7.15 Bohr mag/cell

     iteration # 50     ecut=    58.80 Ry     beta= 0.30
     Davidson diagonalization with overlap
     ethr =  6.85E-09,  avg # of iterations =  9.0

     negative rho (up, down):  5.295E-02 4.964E-02

     total cpu time spent up to now is     1723.5 secs

     total energy              =   -2277.95234042 Ry
     estimated scf accuracy    <       0.00002103 Ry

     total magnetization       =     3.00 Bohr mag/cell
     absolute magnetization    =     7.15 Bohr mag/cell

     iteration # 51     ecut=    58.80 Ry     beta= 0.30
     Davidson diagonalization with overlap
     ethr =  6.51E-09,  avg # of iterations = 10.0

     negative rho (up, down):  5.295E-02 4.964E-02

     total cpu time spent up to now is     1769.6 secs

     total energy              =   -2277.95244478 Ry
     estimated scf accuracy    <       0.00002084 Ry

     total magnetization       =     3.00 Bohr mag/cell
     absolute magnetization    =     7.15 Bohr mag/cell

     iteration # 52     ecut=    58.80 Ry     beta= 0.30
     Davidson diagonalization with overlap
     ethr =  6.45E-09,  avg # of iterations =  1.0

     negative rho (up, down):  5.295E-02 4.964E-02

     total cpu time spent up to now is     1792.1 secs

     total energy              =   -2277.95242126 Ry
     estimated scf accuracy    <       0.00001974 Ry

     total magnetization       =     3.00 Bohr mag/cell
     absolute magnetization    =     7.15 Bohr mag/cell

     iteration # 53     ecut=    58.80 Ry     beta= 0.30
     Davidson diagonalization with overlap
     ethr =  6.11E-09,  avg # of iterations =  9.5

     negative rho (up, down):  5.295E-02 4.964E-02

     total cpu time spent up to now is     1839.7 secs

     total energy              =   -2277.95256587 Ry
     estimated scf accuracy    <       0.00002169 Ry

     total magnetization       =     3.00 Bohr mag/cell
     absolute magnetization    =     7.16 Bohr mag/cell

     iteration # 54     ecut=    58.80 Ry     beta= 0.30
     Davidson diagonalization with overlap
     ethr =  6.11E-09,  avg # of iterations =  7.5

     negative rho (up, down):  5.295E-02 4.964E-02

     total cpu time spent up to now is     1872.1 secs

     total energy              =   -2277.95247976 Ry
     estimated scf accuracy    <       0.00002395 Ry

     total magnetization       =     3.00 Bohr mag/cell
     absolute magnetization    =     7.16 Bohr mag/cell

     iteration # 55     ecut=    58.80 Ry     beta= 0.30
     Davidson diagonalization with overlap
     ethr =  6.11E-09,  avg # of iterations = 10.0

     negative rho (up, down):  5.295E-02 4.965E-02

     total cpu time spent up to now is     1926.0 secs

     total energy              =   -2277.95273440 Ry
     estimated scf accuracy    <       0.00002175 Ry

     total magnetization       =     3.00 Bohr mag/cell
     absolute magnetization    =     7.16 Bohr mag/cell

     iteration # 56     ecut=    58.80 Ry     beta= 0.30
     Davidson diagonalization with overlap
     ethr =  6.11E-09,  avg # of iterations =  9.0

     negative rho (up, down):  5.295E-02 4.965E-02

     total cpu time spent up to now is     1969.8 secs

     total energy              =   -2277.95281959 Ry
     estimated scf accuracy    <       0.00002422 Ry

     total magnetization       =     3.00 Bohr mag/cell
     absolute magnetization    =     7.16 Bohr mag/cell

     iteration # 57     ecut=    58.80 Ry     beta= 0.30
     Davidson diagonalization with overlap
     ethr =  6.11E-09,  avg # of iterations =  9.5

     negative rho (up, down):  5.295E-02 4.965E-02

     total cpu time spent up to now is     2013.1 secs

     total energy              =   -2277.95285875 Ry
     estimated scf accuracy    <       0.00002463 Ry

     total magnetization       =     3.00 Bohr mag/cell
     absolute magnetization    =     7.16 Bohr mag/cell

     iteration # 58     ecut=    58.80 Ry     beta= 0.30
     Davidson diagonalization with overlap
     ethr =  6.11E-09,  avg # of iterations =  5.0

     negative rho (up, down):  5.295E-02 4.964E-02

     total cpu time spent up to now is     2042.1 secs

     total energy              =   -2277.95268073 Ry
     estimated scf accuracy    <       0.00002551 Ry

     total magnetization       =     3.00 Bohr mag/cell
     absolute magnetization    =     7.16 Bohr mag/cell

     iteration # 59     ecut=    58.80 Ry     beta= 0.30
     Davidson diagonalization with overlap
     ethr =  6.11E-09,  avg # of iterations =  9.5

     negative rho (up, down):  5.295E-02 4.964E-02

     total cpu time spent up to now is     2088.2 secs

     total energy              =   -2277.95271032 Ry
     estimated scf accuracy    <       0.00002900 Ry

     total magnetization       =     3.00 Bohr mag/cell
     absolute magnetization    =     7.15 Bohr mag/cell

     iteration # 60     ecut=    58.80 Ry     beta= 0.30
     Davidson diagonalization with overlap
     ethr =  6.11E-09,  avg # of iterations = 10.0

     negative rho (up, down):  5.294E-02 4.964E-02

     total cpu time spent up to now is     2140.0 secs

     total energy              =   -2277.95239700 Ry
     estimated scf accuracy    <       0.00002446 Ry

     total magnetization       =     3.00 Bohr mag/cell
     absolute magnetization    =     7.16 Bohr mag/cell

     iteration # 61     ecut=    58.80 Ry     beta= 0.30
     Davidson diagonalization with overlap
     ethr =  6.11E-09,  avg # of iterations = 11.0

     negative rho (up, down):  5.294E-02 4.964E-02

     total cpu time spent up to now is     2197.7 secs

     total energy              =   -2277.95273179 Ry
     estimated scf accuracy    <       0.00002438 Ry

     total magnetization       =     3.00 Bohr mag/cell
     absolute magnetization    =     7.15 Bohr mag/cell

     iteration # 62     ecut=    58.80 Ry     beta= 0.30
     Davidson diagonalization with overlap
     ethr =  6.11E-09,  avg # of iterations =  8.5

     negative rho (up, down):  5.294E-02 4.964E-02

     total cpu time spent up to now is     2244.7 secs

     total energy              =   -2277.95278343 Ry
     estimated scf accuracy    <       0.00002128 Ry

     total magnetization       =     3.00 Bohr mag/cell
     absolute magnetization    =     7.16 Bohr mag/cell

     iteration # 63     ecut=    58.80 Ry     beta= 0.30
     Davidson diagonalization with overlap
     ethr =  6.11E-09,  avg # of iterations =  7.0

     negative rho (up, down):  5.294E-02 4.964E-02

     total cpu time spent up to now is     2277.1 secs

     total energy              =   -2277.95263185 Ry
     estimated scf accuracy    <       0.00002258 Ry

     total magnetization       =     3.00 Bohr mag/cell
     absolute magnetization    =     7.16 Bohr mag/cell

     iteration # 64     ecut=    58.80 Ry     beta= 0.30
     Davidson diagonalization with overlap
     ethr =  6.11E-09,  avg # of iterations =  9.5

     negative rho (up, down):  5.294E-02 4.965E-02

     total cpu time spent up to now is     2331.7 secs

     total energy              =   -2277.95291608 Ry
     estimated scf accuracy    <       0.00002226 Ry

     total magnetization       =     3.00 Bohr mag/cell
     absolute magnetization    =     7.15 Bohr mag/cell

     iteration # 65     ecut=    58.80 Ry     beta= 0.30
     Davidson diagonalization with overlap
     ethr =  6.11E-09,  avg # of iterations =  8.5

     negative rho (up, down):  5.294E-02 4.965E-02

     total cpu time spent up to now is     2382.0 secs

     total energy              =   -2277.95310411 Ry
     estimated scf accuracy    <       0.00002211 Ry

     total magnetization       =     3.00 Bohr mag/cell
     absolute magnetization    =     7.16 Bohr mag/cell

     iteration # 66     ecut=    58.80 Ry     beta= 0.30
     Davidson diagonalization with overlap
     ethr =  6.11E-09,  avg # of iterations =  8.5

     negative rho (up, down):  5.294E-02 4.965E-02

     total cpu time spent up to now is     2425.1 secs

     total energy              =   -2277.95315539 Ry
     estimated scf accuracy    <       0.00002254 Ry

     total magnetization       =     3.00 Bohr mag/cell
     absolute magnetization    =     7.16 Bohr mag/cell

     iteration # 67     ecut=    58.80 Ry     beta= 0.30
     Davidson diagonalization with overlap
     ethr =  6.11E-09,  avg # of iterations =  5.0

     negative rho (up, down):  5.294E-02 4.965E-02

     total cpu time spent up to now is     2453.9 secs

     total energy              =   -2277.95318059 Ry
     estimated scf accuracy    <       0.00002221 Ry

     total magnetization       =     3.00 Bohr mag/cell
     absolute magnetization    =     7.16 Bohr mag/cell

     iteration # 68     ecut=    58.80 Ry     beta= 0.30
     Davidson diagonalization with overlap
     ethr =  6.11E-09,  avg # of iterations =  5.0

     negative rho (up, down):  5.294E-02 4.965E-02

     total cpu time spent up to now is     2483.4 secs

     total energy              =   -2277.95320130 Ry
     estimated scf accuracy    <       0.00002431 Ry

     total magnetization       =     3.00 Bohr mag/cell
     absolute magnetization    =     7.16 Bohr mag/cell

     iteration # 69     ecut=    58.80 Ry     beta= 0.30
     Davidson diagonalization with overlap
     ethr =  6.11E-09,  avg # of iterations =  4.5

     negative rho (up, down):  5.294E-02 4.965E-02

     total cpu time spent up to now is     2509.7 secs

     total energy              =   -2277.95321885 Ry
     estimated scf accuracy    <       0.00002378 Ry

     total magnetization       =     3.00 Bohr mag/cell
     absolute magnetization    =     7.16 Bohr mag/cell

     iteration # 70     ecut=    58.80 Ry     beta= 0.30
     Davidson diagonalization with overlap
     ethr =  6.11E-09,  avg # of iterations =  5.5

     negative rho (up, down):  5.294E-02 4.965E-02

     total cpu time spent up to now is     2539.2 secs

     total energy              =   -2277.95323229 Ry
     estimated scf accuracy    <       0.00002256 Ry

     total magnetization       =     3.00 Bohr mag/cell
     absolute magnetization    =     7.16 Bohr mag/cell

     iteration # 71     ecut=    58.80 Ry     beta= 0.30
     Davidson diagonalization with overlap
     ethr =  6.11E-09,  avg # of iterations =  3.5

     negative rho (up, down):  5.294E-02 4.965E-02

     total cpu time spent up to now is     2564.3 secs

     total energy              =   -2277.95266949 Ry
     estimated scf accuracy    <       0.00002229 Ry

     total magnetization       =     3.00 Bohr mag/cell
     absolute magnetization    =     7.16 Bohr mag/cell

     iteration # 72     ecut=    58.80 Ry     beta= 0.30
     Davidson diagonalization with overlap
     ethr =  6.11E-09,  avg # of iterations = 10.0

     negative rho (up, down):  5.294E-02 4.965E-02

     total cpu time spent up to now is     2619.8 secs

     total energy              =   -2277.95307398 Ry
     estimated scf accuracy    <       0.00002097 Ry

     total magnetization       =     3.00 Bohr mag/cell
     absolute magnetization    =     7.16 Bohr mag/cell

     iteration # 73     ecut=    58.80 Ry     beta= 0.30
     Davidson diagonalization with overlap
     ethr =  6.11E-09,  avg # of iterations =  7.0

     negative rho (up, down):  5.294E-02 4.965E-02

     total cpu time spent up to now is     2657.4 secs

     total energy              =   -2277.95307926 Ry
     estimated scf accuracy    <       0.00001922 Ry

     total magnetization       =     3.00 Bohr mag/cell
     absolute magnetization    =     7.16 Bohr mag/cell

     iteration # 74     ecut=    58.80 Ry     beta= 0.30
     Davidson diagonalization with overlap
     ethr =  5.95E-09,  avg # of iterations =  7.5

     negative rho (up, down):  5.294E-02 4.965E-02

     total cpu time spent up to now is     2702.6 secs

     total energy              =   -2277.95324340 Ry
     estimated scf accuracy    <       0.00001951 Ry

     total magnetization       =     3.00 Bohr mag/cell
     absolute magnetization    =     7.16 Bohr mag/cell

     iteration # 75     ecut=    58.80 Ry     beta= 0.30
     Davidson diagonalization with overlap
     ethr =  5.95E-09,  avg # of iterations =  7.5

     negative rho (up, down):  5.294E-02 4.965E-02

     total cpu time spent up to now is     2739.3 secs

     total energy              =   -2277.95319354 Ry
     estimated scf accuracy    <       0.00001979 Ry

     total magnetization       =     3.00 Bohr mag/cell
     absolute magnetization    =     7.16 Bohr mag/cell

     iteration # 76     ecut=    58.80 Ry     beta= 0.30
     Davidson diagonalization with overlap
     ethr =  5.95E-09,  avg # of iterations =  6.0

     negative rho (up, down):  5.294E-02 4.965E-02

     total cpu time spent up to now is     2776.0 secs

     total energy              =   -2277.95323351 Ry
     estimated scf accuracy    <       0.00002068 Ry

     total magnetization       =     3.00 Bohr mag/cell
     absolute magnetization    =     7.16 Bohr mag/cell

     iteration # 77     ecut=    58.80 Ry     beta= 0.30
     Davidson diagonalization with overlap
     ethr =  5.95E-09,  avg # of iterations =  5.0

     negative rho (up, down):  5.294E-02 4.965E-02

     total cpu time spent up to now is     2805.4 secs

     total energy              =   -2277.95322671 Ry
     estimated scf accuracy    <       0.00001998 Ry

     total magnetization       =     3.00 Bohr mag/cell
     absolute magnetization    =     7.16 Bohr mag/cell

     iteration # 78     ecut=    58.80 Ry     beta= 0.30
     Davidson diagonalization with overlap
     ethr =  5.95E-09,  avg # of iterations =  5.0

     negative rho (up, down):  5.294E-02 4.965E-02

     total cpu time spent up to now is     2832.2 secs

     total energy              =   -2277.95324227 Ry
     estimated scf accuracy    <       0.00001985 Ry

     total magnetization       =     3.00 Bohr mag/cell
     absolute magnetization    =     7.16 Bohr mag/cell

     iteration # 79     ecut=    58.80 Ry     beta= 0.30
     Davidson diagonalization with overlap
     ethr =  5.95E-09,  avg # of iterations =  5.0

     negative rho (up, down):  5.294E-02 4.965E-02

     total cpu time spent up to now is     2861.0 secs

     total energy              =   -2277.95326248 Ry
     estimated scf accuracy    <       0.00001972 Ry

     total magnetization       =     3.00 Bohr mag/cell
     absolute magnetization    =     7.16 Bohr mag/cell

     iteration # 80     ecut=    58.80 Ry     beta= 0.30
     Davidson diagonalization with overlap
     ethr =  5.95E-09,  avg # of iterations =  7.0

     negative rho (up, down):  5.294E-02 4.965E-02

     total cpu time spent up to now is     2896.4 secs

     total energy              =   -2277.95327595 Ry
     estimated scf accuracy    <       0.00001955 Ry

     total magnetization       =     3.00 Bohr mag/cell
     absolute magnetization    =     7.15 Bohr mag/cell

     iteration # 81     ecut=    58.80 Ry     beta= 0.30
     Davidson diagonalization with overlap
     ethr =  5.95E-09,  avg # of iterations =  4.5

     negative rho (up, down):  5.294E-02 4.965E-02

     total cpu time spent up to now is     2922.0 secs

     total energy              =   -2277.95328689 Ry
     estimated scf accuracy    <       0.00001990 Ry

     total magnetization       =     3.00 Bohr mag/cell
     absolute magnetization    =     7.15 Bohr mag/cell

     iteration # 82     ecut=    58.80 Ry     beta= 0.30
     Davidson diagonalization with overlap
     ethr =  5.95E-09,  avg # of iterations =  6.0

     negative rho (up, down):  5.294E-02 4.965E-02

     total cpu time spent up to now is     2956.9 secs

     total energy              =   -2277.95323639 Ry
     estimated scf accuracy    <       0.00001990 Ry

     total magnetization       =     3.00 Bohr mag/cell
     absolute magnetization    =     7.16 Bohr mag/cell

     iteration # 83     ecut=    58.80 Ry     beta= 0.30
     Davidson diagonalization with overlap
     ethr =  5.95E-09,  avg # of iterations =  6.0

     negative rho (up, down):  5.294E-02 4.965E-02

     total cpu time spent up to now is     2992.3 secs

     total energy              =   -2277.95320411 Ry
     estimated scf accuracy    <       0.00002182 Ry

     total magnetization       =     3.00 Bohr mag/cell
     absolute magnetization    =     7.16 Bohr mag/cell

     iteration # 84     ecut=    58.80 Ry     beta= 0.30
     Davidson diagonalization with overlap
     ethr =  5.95E-09,  avg # of iterations =  8.5

     negative rho (up, down):  5.294E-02 4.965E-02

     total cpu time spent up to now is     3042.9 secs

     total energy              =   -2277.95324159 Ry
     estimated scf accuracy    <       0.00002008 Ry

     total magnetization       =     3.00 Bohr mag/cell
     absolute magnetization    =     7.16 Bohr mag/cell

     iteration # 85     ecut=    58.80 Ry     beta= 0.30
     Davidson diagonalization with overlap
     ethr =  5.95E-09,  avg # of iterations =  8.0

     negative rho (up, down):  5.294E-02 4.965E-02

     total cpu time spent up to now is     3086.1 secs

     total energy              =   -2277.95333212 Ry
     estimated scf accuracy    <       0.00002068 Ry

     total magnetization       =     3.00 Bohr mag/cell
     absolute magnetization    =     7.16 Bohr mag/cell

     iteration # 86     ecut=    58.80 Ry     beta= 0.30
     Davidson diagonalization with overlap
     ethr =  5.95E-09,  avg # of iterations =  6.0

     negative rho (up, down):  5.294E-02 4.966E-02

     total cpu time spent up to now is     3124.5 secs

     total energy              =   -2277.95302484 Ry
     estimated scf accuracy    <       0.00001838 Ry

     total magnetization       =     3.00 Bohr mag/cell
     absolute magnetization    =     7.16 Bohr mag/cell

     iteration # 87     ecut=    58.80 Ry     beta= 0.30
     Davidson diagonalization with overlap
     ethr =  5.69E-09,  avg # of iterations = 10.0

     negative rho (up, down):  5.294E-02 4.966E-02

     total cpu time spent up to now is     3184.7 secs

     total energy              =   -2277.95343669 Ry
     estimated scf accuracy    <       0.00001927 Ry

     total magnetization       =     3.00 Bohr mag/cell
     absolute magnetization    =     7.16 Bohr mag/cell

     iteration # 88     ecut=    58.80 Ry     beta= 0.30
     Davidson diagonalization with overlap
     ethr =  5.69E-09,  avg # of iterations =  7.0

     negative rho (up, down):  5.294E-02 4.966E-02

     total cpu time spent up to now is     3224.7 secs

     total energy              =   -2277.95350684 Ry
     estimated scf accuracy    <       0.00002026 Ry

     total magnetization       =     3.00 Bohr mag/cell
     absolute magnetization    =     7.16 Bohr mag/cell

     iteration # 89     ecut=    58.80 Ry     beta= 0.30
     Davidson diagonalization with overlap
     ethr =  5.69E-09,  avg # of iterations =  6.0

     negative rho (up, down):  5.294E-02 4.966E-02

     total cpu time spent up to now is     3260.6 secs

     total energy              =   -2277.95309194 Ry
     estimated scf accuracy    <       0.00001934 Ry

     total magnetization       =     3.00 Bohr mag/cell
     absolute magnetization    =     7.16 Bohr mag/cell

     iteration # 90     ecut=    58.80 Ry     beta= 0.30
     Davidson diagonalization with overlap
     ethr =  5.69E-09,  avg # of iterations =  9.5

     negative rho (up, down):  5.294E-02 4.966E-02

     total cpu time spent up to now is     3321.4 secs

     total energy              =   -2277.95355813 Ry
     estimated scf accuracy    <       0.00001917 Ry

     total magnetization       =     3.00 Bohr mag/cell
     absolute magnetization    =     7.16 Bohr mag/cell

     iteration # 91     ecut=    58.80 Ry     beta= 0.30
     Davidson diagonalization with overlap
     ethr =  5.69E-09,  avg # of iterations =  7.5

     negative rho (up, down):  5.294E-02 4.966E-02

     total cpu time spent up to now is     3364.3 secs

     total energy              =   -2277.95365334 Ry
     estimated scf accuracy    <       0.00002111 Ry

     total magnetization       =     3.00 Bohr mag/cell
     absolute magnetization    =     7.16 Bohr mag/cell

     iteration # 92     ecut=    58.80 Ry     beta= 0.30
     Davidson diagonalization with overlap
     ethr =  5.69E-09,  avg # of iterations =  6.5

     negative rho (up, down):  5.294E-02 4.966E-02

     total cpu time spent up to now is     3403.3 secs

     total energy              =   -2277.95371615 Ry
     estimated scf accuracy    <       0.00001745 Ry

     total magnetization       =     3.00 Bohr mag/cell
     absolute magnetization    =     7.17 Bohr mag/cell

     iteration # 93     ecut=    58.80 Ry     beta= 0.30
     Davidson diagonalization with overlap
     ethr =  5.40E-09,  avg # of iterations =  7.0

     negative rho (up, down):  5.294E-02 4.966E-02

     total cpu time spent up to now is     3438.0 secs

     total energy              =   -2277.95362017 Ry
     estimated scf accuracy    <       0.00001713 Ry

     total magnetization       =     3.00 Bohr mag/cell
     absolute magnetization    =     7.17 Bohr mag/cell

     iteration # 94     ecut=    58.80 Ry     beta= 0.30
     Davidson diagonalization with overlap
     ethr =  5.30E-09,  avg # of iterations =  7.5

     negative rho (up, down):  5.294E-02 4.966E-02

     total cpu time spent up to now is     3479.7 secs

     total energy              =   -2277.95343543 Ry
     estimated scf accuracy    <       0.00001850 Ry

     total magnetization       =     3.00 Bohr mag/cell
     absolute magnetization    =     7.16 Bohr mag/cell

     iteration # 95     ecut=    58.80 Ry     beta= 0.30
     Davidson diagonalization with overlap
     ethr =  5.30E-09,  avg # of iterations =  9.0

     negative rho (up, down):  5.294E-02 4.966E-02

     total cpu time spent up to now is     3527.3 secs

     total energy              =   -2277.95335350 Ry
     estimated scf accuracy    <       0.00001856 Ry

     total magnetization       =     3.00 Bohr mag/cell
     absolute magnetization    =     7.17 Bohr mag/cell

     iteration # 96     ecut=    58.80 Ry     beta= 0.30
     Davidson diagonalization with overlap
     ethr =  5.30E-09,  avg # of iterations = 10.0

     negative rho (up, down):  5.294E-02 4.966E-02

     total cpu time spent up to now is     3586.5 secs

     total energy              =   -2277.95377080 Ry
     estimated scf accuracy    <       0.00001641 Ry

     total magnetization       =     3.00 Bohr mag/cell
     absolute magnetization    =     7.17 Bohr mag/cell

     iteration # 97     ecut=    58.80 Ry     beta= 0.30
     Davidson diagonalization with overlap
     ethr =  5.08E-09,  avg # of iterations =  7.5

     negative rho (up, down):  5.294E-02 4.966E-02

     total cpu time spent up to now is     3620.5 secs

     total energy              =   -2277.95373262 Ry
     estimated scf accuracy    <       0.00001638 Ry

     total magnetization       =     3.00 Bohr mag/cell
     absolute magnetization    =     7.17 Bohr mag/cell

     iteration # 98     ecut=    58.80 Ry     beta= 0.30
     Davidson diagonalization with overlap
     ethr =  5.07E-09,  avg # of iterations =  7.0

     negative rho (up, down):  5.294E-02 4.966E-02

     total cpu time spent up to now is     3655.8 secs

     total energy              =   -2277.95375947 Ry
     estimated scf accuracy    <       0.00001663 Ry

     total magnetization       =     3.00 Bohr mag/cell
     absolute magnetization    =     7.17 Bohr mag/cell

     iteration # 99     ecut=    58.80 Ry     beta= 0.30
     Davidson diagonalization with overlap
     ethr =  5.07E-09,  avg # of iterations =  5.0

     negative rho (up, down):  5.294E-02 4.966E-02

     total cpu time spent up to now is     3687.1 secs

     total energy              =   -2277.95378124 Ry
     estimated scf accuracy    <       0.00001636 Ry

     total magnetization       =     3.00 Bohr mag/cell
     absolute magnetization    =     7.17 Bohr mag/cell

     iteration #100     ecut=    58.80 Ry     beta= 0.30
     Davidson diagonalization with overlap
     ethr =  5.06E-09,  avg # of iterations =  5.0

     negative rho (up, down):  5.294E-02 4.966E-02

     total cpu time spent up to now is     3717.3 secs

     total energy              =   -2277.95370927 Ry
     estimated scf accuracy    <       0.00001634 Ry

     total magnetization       =     3.00 Bohr mag/cell
     absolute magnetization    =     7.17 Bohr mag/cell

     iteration #101     ecut=    58.80 Ry     beta= 0.30
     Davidson diagonalization with overlap
     ethr =  5.06E-09,  avg # of iterations =  6.5

     negative rho (up, down):  5.294E-02 4.966E-02

     total cpu time spent up to now is     3754.0 secs

     total energy              =   -2277.95372734 Ry
     estimated scf accuracy    <       0.00001732 Ry

     total magnetization       =     3.00 Bohr mag/cell
     absolute magnetization    =     7.17 Bohr mag/cell

     iteration #102     ecut=    58.80 Ry     beta= 0.30
     Davidson diagonalization with overlap
     ethr =  5.06E-09,  avg # of iterations =  7.0

     negative rho (up, down):  5.294E-02 4.966E-02

     total cpu time spent up to now is     3799.0 secs

     total energy              =   -2277.95384227 Ry
     estimated scf accuracy    <       0.00001568 Ry

     total magnetization       =     3.00 Bohr mag/cell
     absolute magnetization    =     7.17 Bohr mag/cell

     iteration #103     ecut=    58.80 Ry     beta= 0.30
     Davidson diagonalization with overlap
     ethr =  4.86E-09,  avg # of iterations =  6.0

     negative rho (up, down):  5.294E-02 4.966E-02

     total cpu time spent up to now is     3835.9 secs

     total energy              =   -2277.95382074 Ry
     estimated scf accuracy    <       0.00001567 Ry

     total magnetization       =     3.00 Bohr mag/cell
     absolute magnetization    =     7.17 Bohr mag/cell

     iteration #104     ecut=    58.80 Ry     beta= 0.30
     Davidson diagonalization with overlap
     ethr =  4.85E-09,  avg # of iterations =  6.5

     negative rho (up, down):  5.294E-02 4.966E-02

     total cpu time spent up to now is     3869.7 secs

     total energy              =   -2277.95384258 Ry
     estimated scf accuracy    <       0.00001633 Ry

     total magnetization       =     3.00 Bohr mag/cell
     absolute magnetization    =     7.17 Bohr mag/cell

     iteration #105     ecut=    58.80 Ry     beta= 0.30
     Davidson diagonalization with overlap
     ethr =  4.85E-09,  avg # of iterations =  7.5

     negative rho (up, down):  5.294E-02 4.966E-02

     total cpu time spent up to now is     3911.7 secs

     total energy              =   -2277.95384001 Ry
     estimated scf accuracy    <       0.00001704 Ry

     total magnetization       =     3.00 Bohr mag/cell
     absolute magnetization    =     7.17 Bohr mag/cell

     iteration #106     ecut=    58.80 Ry     beta= 0.30
     Davidson diagonalization with overlap
     ethr =  4.85E-09,  avg # of iterations =  8.5

     negative rho (up, down):  5.294E-02 4.966E-02

     total cpu time spent up to now is     3963.8 secs

     total energy              =   -2277.95397897 Ry
     estimated scf accuracy    <       0.00001724 Ry

     total magnetization       =     3.00 Bohr mag/cell
     absolute magnetization    =     7.17 Bohr mag/cell

     iteration #107     ecut=    58.80 Ry     beta= 0.30
     Davidson diagonalization with overlap
     ethr =  4.85E-09,  avg # of iterations =  5.5

     negative rho (up, down):  5.294E-02 4.967E-02

     total cpu time spent up to now is     3994.6 secs

     total energy              =   -2277.95397460 Ry
     estimated scf accuracy    <       0.00001727 Ry

     total magnetization       =     3.00 Bohr mag/cell
     absolute magnetization    =     7.17 Bohr mag/cell

     iteration #108     ecut=    58.80 Ry     beta= 0.30
     Davidson diagonalization with overlap
     ethr =  4.85E-09,  avg # of iterations =  8.0

     negative rho (up, down):  5.294E-02 4.966E-02

     total cpu time spent up to now is     4038.1 secs

     total energy              =   -2277.95391082 Ry
     estimated scf accuracy    <       0.00001697 Ry

     total magnetization       =     3.00 Bohr mag/cell
     absolute magnetization    =     7.17 Bohr mag/cell

     iteration #109     ecut=    58.80 Ry     beta= 0.30
     Davidson diagonalization with overlap
     ethr =  4.85E-09,  avg # of iterations =  7.5

     negative rho (up, down):  5.294E-02 4.967E-02

     total cpu time spent up to now is     4078.5 secs

     total energy              =   -2277.95398435 Ry
     estimated scf accuracy    <       0.00001739 Ry

     total magnetization       =     3.00 Bohr mag/cell
     absolute magnetization    =     7.17 Bohr mag/cell

     iteration #110     ecut=    58.80 Ry     beta= 0.30
     Davidson diagonalization with overlap
     ethr =  4.85E-09,  avg # of iterations =  6.5

     negative rho (up, down):  5.294E-02 4.967E-02

     total cpu time spent up to now is     4113.3 secs

     total energy              =   -2277.95401457 Ry
     estimated scf accuracy    <       0.00001746 Ry

     total magnetization       =     3.00 Bohr mag/cell
     absolute magnetization    =     7.17 Bohr mag/cell

     iteration #111     ecut=    58.80 Ry     beta= 0.30
     Davidson diagonalization with overlap
     ethr =  4.85E-09,  avg # of iterations =  6.0

     negative rho (up, down):  5.294E-02 4.967E-02

     total cpu time spent up to now is     4145.7 secs

     total energy              =   -2277.95400336 Ry
     estimated scf accuracy    <       0.00001784 Ry

     total magnetization       =     3.00 Bohr mag/cell
     absolute magnetization    =     7.17 Bohr mag/cell

     iteration #112     ecut=    58.80 Ry     beta= 0.30
     Davidson diagonalization with overlap
     ethr =  4.85E-09,  avg # of iterations =  4.0

     negative rho (up, down):  5.294E-02 4.966E-02

     total cpu time spent up to now is     4174.5 secs

     total energy              =   -2277.95377874 Ry
     estimated scf accuracy    <       0.00001835 Ry

     total magnetization       =     3.00 Bohr mag/cell
     absolute magnetization    =     7.17 Bohr mag/cell

     iteration #113     ecut=    58.80 Ry     beta= 0.30
     Davidson diagonalization with overlap
     ethr =  4.85E-09,  avg # of iterations =  8.0

     negative rho (up, down):  5.294E-02 4.966E-02

     total cpu time spent up to now is     4223.1 secs

     total energy              =   -2277.95384906 Ry
     estimated scf accuracy    <       0.00001701 Ry

     total magnetization       =     3.00 Bohr mag/cell
     absolute magnetization    =     7.17 Bohr mag/cell

     iteration #114     ecut=    58.80 Ry     beta= 0.30
     Davidson diagonalization with overlap
     ethr =  4.85E-09,  avg # of iterations =  8.5

     negative rho (up, down):  5.294E-02 4.966E-02

     total cpu time spent up to now is     4275.0 secs

     total energy              =   -2277.95405093 Ry
     estimated scf accuracy    <       0.00001646 Ry

     total magnetization       =     3.00 Bohr mag/cell
     absolute magnetization    =     7.17 Bohr mag/cell

     iteration #115     ecut=    58.80 Ry     beta= 0.30
     Davidson diagonalization with overlap
     ethr =  4.85E-09,  avg # of iterations =  7.0

     negative rho (up, down):  5.294E-02 4.966E-02

     total cpu time spent up to now is     4307.1 secs

     total energy              =   -2277.95377469 Ry
     estimated scf accuracy    <       0.00001685 Ry

     total magnetization       =     3.00 Bohr mag/cell
     absolute magnetization    =     7.17 Bohr mag/cell

     iteration #116     ecut=    58.80 Ry     beta= 0.30
     Davidson diagonalization with overlap
     ethr =  4.85E-09,  avg # of iterations =  9.0

     negative rho (up, down):  5.294E-02 4.966E-02

     total cpu time spent up to now is     4356.9 secs

     total energy              =   -2277.95395017 Ry
     estimated scf accuracy    <       0.00001717 Ry

     total magnetization       =     3.00 Bohr mag/cell
     absolute magnetization    =     7.17 Bohr mag/cell

     iteration #117     ecut=    58.80 Ry     beta= 0.30
     Davidson diagonalization with overlap
     ethr =  4.85E-09,  avg # of iterations =  1.0

     negative rho (up, down):  5.294E-02 4.967E-02

[...]
=------------------------------------------------------------------------------=

     Program PWSCF v.7.3.1 starts on 14Oct2025 at 16:27:59 

     This program is part of the open-source Quantum ESPRESSO suite
     for quantum simulation of materials; please cite
         "P. Giannozzi et al., J. Phys.:Condens. Matter 21 395502 (2009);
         "P. Giannozzi et al., J. Phys.:Condens. Matter 29 465901 (2017);
         "P. Giannozzi et al., J. Chem. Phys. 152 154105 (2020);
          URL http://www.quantum-espresso.org", 
     in publications or presentations arising from this work. More details at
     http://www.quantum-espresso.org/quote

     Parallel version (MPI), running on   128 processors

     MPI processes distributed on     2 nodes
     238253 MiB available memory on the printing compute node when the environment starts

     Reading input from Fe3_O_piv_6_H2O_3_LowSpin.in

     Current dimensions of program PWSCF are:
     Max number of different atomic species (ntypx) = 10
     Max number of k-points (npk) =  40000
     Max angular momentum in pseudopotentials (lmaxx) =  4
read_pp_mesh; mismatch in mesh size, discarding the one in header
read_pp_mesh; mismatch in mesh size, discarding the one in header
read_pp_mesh; mismatch in mesh size, discarding the one in header
read_pp_mesh; mismatch in mesh size, discarding the one in header
     file Fe.GGA-PBE-paw.UPF: wavefunction(s)  4S 3P 4P 3D 4D renormalized
     file O.GGA-PBE-paw.UPF: wavefunction(s)  3S 2P 3P renormalized
     file H.GGA-PBE-paw.UPF: wavefunction(s)  2S 2P renormalized
     file C.GGA-PBE-paw.UPF: wavefunction(s)  3S 3P renormalized
     Message from routine setup:
     the system is metallic, specify occupations

     R & G space division:  proc/nbgrp/npool/nimage =     128
     Subspace diagonalization in iterative solution of the eigenvalue problem:
     one sub-group per band group will be used
     custom distributed-memory algorithm (size of sub-group:  2*  2 procs)


     Parallelization info
     --------------------
     sticks:   dense  smooth     PW     G-vecs:    dense   smooth      PW
     Min         542     542    135               100828   100828   12601
     Max         543     543    136               100837   100837   12608
     Sum       69493   69493  17367             12906675 12906675 1613349

     Using Slab Decomposition



     bravais-lattice index     =            0
     lattice parameter (alat)  =      61.4318  a.u.
     unit-cell volume          =  211893.4902 (a.u.)^3
     number of atoms/cell      =          109
     number of atomic types    =            4
     number of electrons       =       323.00 (up: 163.00, down: 160.00)
     number of Kohn-Sham states=          163
     kinetic-energy cutoff     =      58.8000  Ry
     charge density cutoff     =     235.2000  Ry
     scf convergence threshold =      1.0E-06
     mixing beta               =       0.3000
     number of iterations used =            8  plain     mixing
     Exchange-correlation= SLA PW PBX PBC
                           (   1   4   3   4   0   0   0)
     Hubbard projectors: ortho-atomic
     Hubbard parameters of DFT+U (Dudarev formulation) in eV:
     U(Fe-3d) =  4.0000

     Internal variables: lda_plus_u =T, lda_plus_u_kind = 0

     celldm(1)=  61.431848  celldm(2)=   0.000000  celldm(3)=   0.000000
     celldm(4)=   0.000000  celldm(5)=   0.000000  celldm(6)=   0.000000

     crystal axes: (cart. coord. in units of alat)
               a(1) = (   1.000000   0.000000   0.000000 )  
               a(2) = (   0.000000   0.983954   0.000000 )  
               a(3) = (   0.000000   0.000000   0.928885 )  

     reciprocal axes: (cart. coord. in units 2 pi/alat)
               b(1) = (  1.000000  0.000000  0.000000 )  
               b(2) = (  0.000000  1.016308  0.000000 )  
               b(3) = (  0.000000  0.000000  1.076559 )  


     PseudoPot. # 1 for Fe read from file:
     /work/e89/e89/phsmea/CASTEP_TO_QS_ARCHER/Fe.GGA-PBE-paw.UPF
     MD5 check sum: 2d46233e65fd0c9f60bb7b941dda812a
     Pseudo is Projector augmented-wave + core cor, Zval = 16.0
     Generated using ATOMPAW code
     Shape of augmentation charge: SINC**2
     Using radial grid of 2342 points,  6 beta functions with: 
                l(1) =   0
                l(2) =   0
                l(3) =   1
                l(4) =   1
                l(5) =   2
                l(6) =   2
     Q(r) pseudized with 0 coefficients 


     PseudoPot. # 2 for O  read from file:
     /work/e89/e89/phsmea/CASTEP_TO_QS_ARCHER/O.GGA-PBE-paw.UPF
     MD5 check sum: 75cebe6e27812ecd511c7c5e5b8738d8
     Pseudo is Projector augmented-wave + core cor, Zval =  6.0
     Generated using ATOMPAW code
     Shape of augmentation charge: SINC**2
     Using radial grid of 2342 points,  4 beta functions with: 
                l(1) =   0
                l(2) =   0
                l(3) =   1
                l(4) =   1
     Q(r) pseudized with 0 coefficients 


     PseudoPot. # 3 for H  read from file:
     /work/e89/e89/phsmea/CASTEP_TO_QS_ARCHER/H.GGA-PBE-paw.UPF
     MD5 check sum: b9d592600ff6b56d2e28875790887365
     Pseudo is Projector augmented-wave + core cor, Zval =  1.0
     Generated using ATOMPAW code
     Shape of augmentation charge: SINC**2
     Using radial grid of 2342 points,  3 beta functions with: 
                l(1) =   0
                l(2) =   0
                l(3) =   1
     Q(r) pseudized with 0 coefficients 


     PseudoPot. # 4 for C  read from file:
     /work/e89/e89/phsmea/CASTEP_TO_QS_ARCHER/C.GGA-PBE-paw.UPF
     MD5 check sum: 4aa9e32dab6042a76c944283fa01cc46
     Pseudo is Projector augmented-wave + core cor, Zval =  4.0
     Generated using ATOMPAW code
     Shape of augmentation charge: SINC**2
     Using radial grid of 2342 points,  4 beta functions with: 
                l(1) =   0
                l(2) =   0
                l(3) =   1
                l(4) =   1
     Q(r) pseudized with 0 coefficients 


     atomic species   valence    mass     pseudopotential
     Fe               16.00    55.84500     Fe( 1.00)
     O                 6.00    16.00000     O ( 1.00)
     H                 1.00     1.00800     H ( 1.00)
     C                 4.00    12.01100     C ( 1.00)

     Starting magnetic structure 
     atomic species   magnetization
     Fe              0.062
     O               0.000
     H               0.000
     C               0.000

     No symmetry found



   Cartesian axes

     site n.     atom                  positions (alat units)
         1        Fe     tau(   1) = (   0.5339877   0.4530735   0.4734192  )
         2        Fe     tau(   2) = (   0.5059010   0.4973119   0.3865703  )
         3        Fe     tau(   3) = (   0.4616292   0.5239900   0.4739621  )
         4        O      tau(   4) = (   0.5002216   0.4912537   0.4445097  )
         5        O      tau(   5) = (   0.5746154   0.4093125   0.5028391  )
         6        H      tau(   6) = (   0.5802858   0.3878163   0.4831816  )
         7        H      tau(   7) = (   0.6005106   0.4221346   0.5094964  )
         8        O      tau(   8) = (   0.5097534   0.5084191   0.3209634  )
         9        H      tau(   9) = (   0.5094926   0.5379557   0.3178732  )
        10        H      tau(  10) = (   0.4853477   0.4981564   0.3076134  )
        11        O      tau(  11) = (   0.4180849   0.5590590   0.5103948  )
        12        H      tau(  12) = (   0.4067417   0.5403957   0.5304998  )
        13        H      tau(  13) = (   0.4323383   0.5802927   0.5253876  )
        14        O      tau(  14) = (   0.5867006   0.4740920   0.4469997  )
        15        O      tau(  15) = (   0.5668188   0.5032456   0.3883297  )
        16        O      tau(  16) = (   0.5313992   0.4076959   0.4311016  )
        17        O      tau(  17) = (   0.5099391   0.4373170   0.3732665  )
        18        O      tau(  18) = (   0.5014911   0.5601000   0.3861378  )
        19        O      tau(  19) = (   0.4743746   0.5773228   0.4465760  )
        20        O      tau(  20) = (   0.4447183   0.4938718   0.3754437  )
        21        O      tau(  21) = (   0.4157319   0.5123732   0.4346726  )
        22        O      tau(  22) = (   0.5018106   0.5403493   0.5192085  )
        23        O      tau(  23) = (   0.5471536   0.4891179   0.5215587  )
        24        O      tau(  24) = (   0.4409377   0.4781653   0.5107294  )
        25        O      tau(  25) = (   0.4868020   0.4277912   0.5038214  )
        26        C      tau(  26) = (   0.5936324   0.4946784   0.4150054  )
        27        C      tau(  27) = (   0.6369305   0.5111515   0.4075349  )
        28        C      tau(  28) = (   0.6512247   0.4971056   0.3649317  )
        29        H      tau(  29) = (   0.6301521   0.5074851   0.3410016  )
        30        H      tau(  30) = (   0.6535368   0.4636089   0.3632141  )
        31        H      tau(  31) = (   0.6816679   0.5098299   0.3586058  )
        32        C      tau(  32) = (   0.6341491   0.5582294   0.4085348  )
        33        H      tau(  33) = (   0.6127756   0.5695186   0.3852661  )
        34        H      tau(  34) = (   0.6644718   0.5713133   0.4023591  )
        35        H      tau(  35) = (   0.6240819   0.5693010   0.4386547  )
        36        C      tau(  36) = (   0.6667561   0.4961566   0.4403811  )
        37        H      tau(  37) = (   0.6692404   0.4626640   0.4403589  )
        38        H      tau(  38) = (   0.6572799   0.5059517   0.4710604  )
        39        H      tau(  39) = (   0.6973182   0.5087385   0.4343605  )
        40        C      tau(  40) = (   0.5209514   0.4064312   0.3937498  )
        41        C      tau(  41) = (   0.5202540   0.3644788   0.3728082  )
        42        C      tau(  42) = (   0.4785993   0.3451712   0.3839431  )
        43        H      tau(  43) = (   0.4531049   0.3637901   0.3724361  )
        44        H      tau(  44) = (   0.4753050   0.3417383   0.4171947  )
        45        H      tau(  45) = (   0.4763541   0.3147013   0.3699628  )
        46        C      tau(  46) = (   0.5550438   0.3375172   0.3891832  )
        47        H      tau(  47) = (   0.5851264   0.3512286   0.3830730  )
        48        H      tau(  48) = (   0.5541773   0.3076134   0.3739139  )
        49        H      tau(  49) = (   0.5520833   0.3323501   0.4221963  )
        50        C      tau(  50) = (   0.5238422   0.3691034   0.3262789  )
        51        H      tau(  51) = (   0.5526978   0.3839597   0.3175995  )
        52        H      tau(  52) = (   0.4986325   0.3873298   0.3137800  )
        53        H      tau(  53) = (   0.5230527   0.3387533   0.3118998  )
        54        C      tau(  54) = (   0.4894749   0.5862488   0.4119937  )
        55        C      tau(  55) = (   0.4927408   0.6318506   0.4014369  )
        56        C      tau(  56) = (   0.5137947   0.6383208   0.3600997  )
        57        H      tau(  57) = (   0.5165066   0.6712299   0.3539382  )
        58        H      tau(  58) = (   0.4961380   0.6246763   0.3349910  )
        59        H      tau(  59) = (   0.5446493   0.6250939   0.3597462  )
        60        C      tau(  60) = (   0.4489262   0.6492358   0.4001516  )
        61        H      tau(  61) = (   0.4501183   0.6820473   0.3930419  )
        62        H      tau(  62) = (   0.4334026   0.6453226   0.4296305  )
        63        H      tau(  63) = (   0.4304896   0.6342248   0.3763716  )
        64        C      tau(  64) = (   0.5173147   0.6531059   0.4355437  )
        65        H      tau(  65) = (   0.5188822   0.6860799   0.4293166  )
        66        H      tau(  66) = (   0.5487992   0.6414031   0.4370249  )
        67        H      tau(  67) = (   0.5029057   0.6485890   0.4654837  )
        68        C      tau(  68) = (   0.4138339   0.4995644   0.3982442  )
        69        C      tau(  69) = (   0.3716829   0.4894705   0.3802524  )
        70        C      tau(  70) = (   0.3700473   0.4426319   0.3747011  )
        71        H      tau(  71) = (   0.3405670   0.4340235   0.3610761  )
        72        H      tau(  72) = (   0.3727758   0.4267436   0.4042031  )
        73        H      tau(  73) = (   0.3946136   0.4319406   0.3544771  )
        74        C      tau(  74) = (   0.3674130   0.5105349   0.3383993  )
        75        H      tau(  75) = (   0.3375433   0.5029086   0.3250606  )
        76        H      tau(  76) = (   0.3912628   0.5003951   0.3171012  )
        77        H      tau(  77) = (   0.3691391   0.5439859   0.3412715  )
        78        C      tau(  78) = (   0.3373435   0.5034112   0.4088997  )
        79        H      tau(  79) = (   0.3076134   0.4957062   0.3952770  )
        80        H      tau(  80) = (   0.3382527   0.5365805   0.4140055  )
        81        H      tau(  81) = (   0.3393985   0.4883526   0.4388100  )
        82        C      tau(  82) = (   0.5326607   0.5226663   0.5344687  )
        83        C      tau(  83) = (   0.5528189   0.5423577   0.5720001  )
        84        C      tau(  84) = (   0.5522921   0.5891475   0.5679748  )
        85        H      tau(  85) = (   0.5698594   0.5993699   0.5412060  )
        86        H      tau(  86) = (   0.5661434   0.6029265   0.5952996  )
        87        H      tau(  87) = (   0.5210253   0.6008738   0.5649833  )
        88        C      tau(  88) = (   0.5267943   0.5292189   0.6091645  )
        89        H      tau(  89) = (   0.5264197   0.4957914   0.6126142  )
        90        H      tau(  90) = (   0.4951332   0.5400906   0.6063616  )
        91        H      tau(  91) = (   0.5398692   0.5423745   0.6371797  )
        92        C      tau(  92) = (   0.5968075   0.5270300   0.5773847  )
        93        H      tau(  93) = (   0.6105409   0.5416373   0.6043389  )
        94        H      tau(  94) = (   0.6157994   0.5345817   0.5507147  )
        95        H      tau(  95) = (   0.5977730   0.4938102   0.5818793  )
        96        C      tau(  96) = (   0.4533804   0.4419294   0.5171184  )
        97        C      tau(  97) = (   0.4252941   0.4131333   0.5412201  )
        98        C      tau(  98) = (   0.3944838   0.3959014   0.5098108  )
        99        H      tau(  99) = (   0.3731140   0.3752064   0.5254263  )
       100        H      tau( 100) = (   0.4101610   0.3784418   0.4857532  )
       101        H      tau( 101) = (   0.3766945   0.4205254   0.4954693  )
       102        C      tau( 102) = (   0.4022744   0.4368903   0.5745675  )
       103        H      tau( 103) = (   0.3825623   0.4157912   0.5917290  )
       104        H      tau( 104) = (   0.3828207   0.4608487   0.5614262  )
       105        H      tau( 105) = (   0.4235009   0.4511245   0.5964137  )
       106        C      tau( 106) = (   0.4498339   0.3780296   0.5602962  )
       107        H      tau( 107) = (   0.4289534   0.3573707   0.5765989  )
       108        H      tau( 108) = (   0.4724756   0.3894092   0.5823574  )
       109        H      tau( 109) = (   0.4661544   0.3603327   0.5369697  )

     number of k points=     1
                       cart. coord. in units 2pi/alat
        k(    1) = (   0.0000000   0.0000000   0.0000000), wk =   1.0000000

     Dense  grid: 12906675 G-vectors     FFT dimensions: ( 300, 300, 288)

     Estimated max dynamical RAM per process >       1.10 GB

     Estimated total dynamical RAM >     141.36 GB

     Check: negative core charge=   -0.000002
     Generating pointlists ...
     new r_m :   0.0241 (alat units)  1.4832 (a.u.) for type    1
     new r_m :   0.0122 (alat units)  0.7512 (a.u.) for type    2
     new r_m :   0.0122 (alat units)  0.7512 (a.u.) for type    3
     new r_m :   0.0138 (alat units)  0.8494 (a.u.) for type    4

     Initial potential from superposition of free atoms

     starting charge     323.9959, renormalised to     323.0000

     negative rho (up, down):  4.388E-02 4.067E-02

     STARTING HUBBARD OCCUPATIONS:

     =================== HUBBARD OCCUPATIONS ===================
     ------------------------ ATOM    1 ------------------------
     Tr[ns(  1)] (up, down, total) =   5.00000  2.00000  7.00000
     Atomic magnetic moment for atom   1 =   3.00000
     SPIN  1
     eigenvalues:
       1.000  1.000  1.000  1.000  1.000
     eigenvectors (columns):
       1.000  0.000  0.000  0.000  0.000
       0.000  1.000  0.000  0.000  0.000
       0.000  0.000  1.000  0.000  0.000
       0.000  0.000  0.000  1.000  0.000
       0.000  0.000  0.000  0.000  1.000
     occupation matrix ns (before diag.):
       1.000  0.000  0.000  0.000  0.000
       0.000  1.000  0.000  0.000  0.000
       0.000  0.000  1.000  0.000  0.000
       0.000  0.000  0.000  1.000  0.000
       0.000  0.000  0.000  0.000  1.000
     SPIN  2
     eigenvalues:
       0.400  0.400  0.400  0.400  0.400
     eigenvectors (columns):
       1.000  0.000  0.000  0.000  0.000
       0.000  1.000  0.000  0.000  0.000
       0.000  0.000  1.000  0.000  0.000
       0.000  0.000  0.000  1.000  0.000
       0.000  0.000  0.000  0.000  1.000
     occupation matrix ns (before diag.):
       0.400  0.000  0.000  0.000  0.000
       0.000  0.400  0.000  0.000  0.000
       0.000  0.000  0.400  0.000  0.000
       0.000  0.000  0.000  0.400  0.000
       0.000  0.000  0.000  0.000  0.400
     ------------------------ ATOM    2 ------------------------
     Tr[ns(  2)] (up, down, total) =   5.00000  2.00000  7.00000
     Atomic magnetic moment for atom   2 =   3.00000
     SPIN  1
     eigenvalues:
       1.000  1.000  1.000  1.000  1.000
     eigenvectors (columns):
       1.000  0.000  0.000  0.000  0.000
       0.000  1.000  0.000  0.000  0.000
       0.000  0.000  1.000  0.000  0.000
       0.000  0.000  0.000  1.000  0.000
       0.000  0.000  0.000  0.000  1.000
     occupation matrix ns (before diag.):
       1.000  0.000  0.000  0.000  0.000
       0.000  1.000  0.000  0.000  0.000
       0.000  0.000  1.000  0.000  0.000
       0.000  0.000  0.000  1.000  0.000
       0.000  0.000  0.000  0.000  1.000
     SPIN  2
     eigenvalues:
       0.400  0.400  0.400  0.400  0.400
     eigenvectors (columns):
       1.000  0.000  0.000  0.000  0.000
       0.000  1.000  0.000  0.000  0.000
       0.000  0.000  1.000  0.000  0.000
       0.000  0.000  0.000  1.000  0.000
       0.000  0.000  0.000  0.000  1.000
     occupation matrix ns (before diag.):
       0.400  0.000  0.000  0.000  0.000
       0.000  0.400  0.000  0.000  0.000
       0.000  0.000  0.400  0.000  0.000
       0.000  0.000  0.000  0.400  0.000
       0.000  0.000  0.000  0.000  0.400
     ------------------------ ATOM    3 ------------------------
     Tr[ns(  3)] (up, down, total) =   5.00000  2.00000  7.00000
     Atomic magnetic moment for atom   3 =   3.00000
     SPIN  1
     eigenvalues:
       1.000  1.000  1.000  1.000  1.000
     eigenvectors (columns):
       1.000  0.000  0.000  0.000  0.000
       0.000  1.000  0.000  0.000  0.000
       0.000  0.000  1.000  0.000  0.000
       0.000  0.000  0.000  1.000  0.000
       0.000  0.000  0.000  0.000  1.000
     occupation matrix ns (before diag.):
       1.000  0.000  0.000  0.000  0.000
       0.000  1.000  0.000  0.000  0.000
       0.000  0.000  1.000  0.000  0.000
       0.000  0.000  0.000  1.000  0.000
       0.000  0.000  0.000  0.000  1.000
     SPIN  2
     eigenvalues:
       0.400  0.400  0.400  0.400  0.400
     eigenvectors (columns):
       1.000  0.000  0.000  0.000  0.000
       0.000  1.000  0.000  0.000  0.000
       0.000  0.000  1.000  0.000  0.000
       0.000  0.000  0.000  1.000  0.000
       0.000  0.000  0.000  0.000  1.000
     occupation matrix ns (before diag.):
       0.400  0.000  0.000  0.000  0.000
       0.000  0.400  0.000  0.000  0.000
       0.000  0.000  0.400  0.000  0.000
       0.000  0.000  0.000  0.400  0.000
       0.000  0.000  0.000  0.000  0.400

     Number of occupied Hubbard levels =   21.0000

     Atomic wfc used for Hubbard projectors are orthogonalized

