
     Program PWSCF v.7.3.1 starts on 30Mar2025 at 12:18:35 

     This program is part of the open-source Quantum ESPRESSO suite
     for quantum simulation of materials; please cite
         "P. Giannozzi et al., J. Phys.:Condens. Matter 21 395502 (2009);
         "P. Giannozzi et al., J. Phys.:Condens. Matter 29 465901 (2017);
         "P. Giannozzi et al., J. Chem. Phys. 152 154105 (2020);
          URL http://www.quantum-espresso.org", 
     in publications or presentations arising from this work. More details at
     http://www.quantum-espresso.org/quote

     Parallel version (MPI), running on    28 processors

     MPI processes distributed on     1 nodes
     244383 MiB available memory on the printing compute node when the environment starts

     Reading input from Fe_EtOH_3_LowSpin.in

     Current dimensions of program PWSCF are:
     Max number of different atomic species (ntypx) = 10
     Max number of k-points (npk) =  40000
     Max angular momentum in pseudopotentials (lmaxx) =  4
read_pp_mesh; mismatch in mesh size, discarding the one in header
read_pp_mesh; mismatch in mesh size, discarding the one in header
read_pp_mesh; mismatch in mesh size, discarding the one in header
     file Fe.GGA-PBE-paw.UPF: wavefunction(s)  4S 3P 4P 3D 4D renormalized
     file O.GGA-PBE-paw.UPF: wavefunction(s)  3S 2P 3P renormalized
     file H.GGA-PBE-paw.UPF: wavefunction(s)  2S 2P renormalized
     file C.GGA-PBE-paw.UPF: wavefunction(s)  3S 3P renormalized
     Message from routine setup:
     the system is metallic, specify occupations

     R & G space division:  proc/nbgrp/npool/nimage =      28
     Subspace diagonalization in iterative solution of the eigenvalue problem:
     a serial algorithm will be used


     Parallelization info
     --------------------
     sticks:   dense  smooth     PW     G-vecs:    dense   smooth      PW
     Min        1857    1857    464               303575   303575   37946
     Max        1858    1858    465               303580   303580   37950
     Sum       52017   52017  12997              8500173  8500173 1062547

     Using Slab Decomposition



     bravais-lattice index     =            0
     lattice parameter (alat)  =      52.6122  a.u.
     unit-cell volume          =  139542.7664 (a.u.)^3
     number of atoms/cell      =           28
     number of atomic types    =            4
     number of electrons       =        73.00 (up:  37.00, down:  36.00)
     number of Kohn-Sham states=           37
     kinetic-energy cutoff     =      58.8000  Ry
     charge density cutoff     =     235.2000  Ry
     scf convergence threshold =      1.0E-06
     mixing beta               =       0.3000
     number of iterations used =            8  plain     mixing
     Exchange-correlation= SLA PW PBX PBC
                           (   1   4   3   4   0   0   0)
     Hubbard projectors: ortho-atomic
     Hubbard parameters of DFT+U (Dudarev formulation) in eV:
     U(Fe-3d) =  4.0000

     Internal variables: lda_plus_u =T, lda_plus_u_kind = 0

     celldm(1)=  52.612241  celldm(2)=   0.000000  celldm(3)=   0.000000
     celldm(4)=   0.000000  celldm(5)=   0.000000  celldm(6)=   0.000000

     crystal axes: (cart. coord. in units of alat)
               a(1) = (   1.000000   0.000000   0.000000 )  
               a(2) = (   0.000000   1.004173   0.000000 )  
               a(3) = (   0.000000   0.000000   0.954198 )  

     reciprocal axes: (cart. coord. in units 2 pi/alat)
               b(1) = (  1.000000  0.000000  0.000000 )  
               b(2) = (  0.000000  0.995844  0.000000 )  
               b(3) = (  0.000000  0.000000  1.048001 )  


     PseudoPot. # 1 for Fe read from file:
     /work/e89/e89/phsmea/CASTEP_TO_QS_ARCHER/Fe.GGA-PBE-paw.UPF
     MD5 check sum: 89f6fde11583ee234fe819c830abe0a6
     Pseudo is Projector augmented-wave + core cor, Zval = 16.0
     Generated using ATOMPAW code
     Shape of augmentation charge: SINC**2
     Using radial grid of 2342 points,  6 beta functions with: 
                l(1) =   0
                l(2) =   0
                l(3) =   1
                l(4) =   1
                l(5) =   2
                l(6) =   2
     Q(r) pseudized with 0 coefficients 


     PseudoPot. # 2 for O  read from file:
     /work/e89/e89/phsmea/CASTEP_TO_QS_ARCHER/O.GGA-PBE-paw.UPF
     MD5 check sum: 75cebe6e27812ecd511c7c5e5b8738d8
     Pseudo is Projector augmented-wave + core cor, Zval =  6.0
     Generated using ATOMPAW code
     Shape of augmentation charge: SINC**2
     Using radial grid of 2342 points,  4 beta functions with: 
                l(1) =   0
                l(2) =   0
                l(3) =   1
                l(4) =   1
     Q(r) pseudized with 0 coefficients 


     PseudoPot. # 3 for H  read from file:
     /work/e89/e89/phsmea/CASTEP_TO_QS_ARCHER/H.GGA-PBE-paw.UPF
     MD5 check sum: b9d592600ff6b56d2e28875790887365
     Pseudo is Projector augmented-wave + core cor, Zval =  1.0
     Generated using ATOMPAW code
     Shape of augmentation charge: SINC**2
     Using radial grid of 2342 points,  3 beta functions with: 
                l(1) =   0
                l(2) =   0
                l(3) =   1
     Q(r) pseudized with 0 coefficients 


     PseudoPot. # 4 for C  read from file:
     /work/e89/e89/phsmea/CASTEP_TO_QS_ARCHER/C.GGA-PBE-paw.UPF
     MD5 check sum: 6449554384d65163c08b954f27925b11
     Pseudo is Projector augmented-wave + core cor, Zval =  4.0
     Generated using ATOMPAW code
     Shape of augmentation charge: SINC**2
     Using radial grid of 2342 points,  4 beta functions with: 
                l(1) =   0
                l(2) =   0
                l(3) =   1
                l(4) =   1
     Q(r) pseudized with 0 coefficients 


     atomic species   valence    mass     pseudopotential
     Fe               16.00    55.84500     Fe( 1.00)
     O                 6.00    16.00000     O ( 1.00)
     H                 1.00     1.00800     H ( 1.00)
     C                 4.00    12.01100     C ( 1.00)

     Starting magnetic structure 
     atomic species   magnetization
     Fe              0.062
     O               0.000
     H               0.000
     C               0.000

     No symmetry found



   Cartesian axes

     site n.     atom                  positions (alat units)
         1        Fe     tau(   1) = (   0.4731795   0.4936033   0.4536223  )
         2        O      tau(   2) = (   0.4485081   0.5465446   0.4207990  )
         3        O      tau(   3) = (   0.4317938   0.4611703   0.4948999  )
         4        O      tau(   4) = (   0.5369389   0.4735319   0.4474933  )
         5        H      tau(   5) = (   0.4138269   0.5503047   0.4169346  )
         6        C      tau(   6) = (   0.5795487   0.4840553   0.4095145  )
         7        H      tau(   7) = (   0.4024991   0.4765834   0.5065634  )
         8        C      tau(   8) = (   0.4709140   0.5933291   0.3934057  )
         9        H      tau(   9) = (   0.5513062   0.4519894   0.4711675  )
        10        C      tau(  10) = (   0.4307281   0.4075943   0.5206491  )
        11        H      tau(  11) = (   0.4816638   0.5776349   0.3591799  )
        12        H      tau(  12) = (   0.5012264   0.6021808   0.4165067  )
        13        C      tau(  13) = (   0.4328952   0.6302519   0.3904766  )
        14        H      tau(  14) = (   0.4022549   0.6193502   0.3684441  )
        15        H      tau(  15) = (   0.4497250   0.6604355   0.3710945  )
        16        H      tau(  16) = (   0.4217483   0.6441853   0.4253662  )
        17        H      tau(  17) = (   0.4494062   0.3860445   0.4938737  )
        18        C      tau(  18) = (   0.3801155   0.3946258   0.5292807  )
        19        H      tau(  19) = (   0.4522033   0.4146779   0.5526202  )
        20        H      tau(  20) = (   0.3591799   0.3895186   0.4965642  )
        21        H      tau(  21) = (   0.3619709   0.4181067   0.5550066  )
        22        H      tau(  22) = (   0.3822005   0.3591799   0.5470081  )
        23        H      tau(  23) = (   0.5962006   0.5159095   0.4251003  )
        24        H      tau(  24) = (   0.5595344   0.4919013   0.3768221  )
        25        C      tau(  25) = (   0.6107492   0.4410723   0.4071265  )
        26        H      tau(  26) = (   0.6290297   0.4332691   0.4410124  )
        27        H      tau(  27) = (   0.6393899   0.4507243   0.3815531  )
        28        H      tau(  28) = (   0.5927649   0.4094136   0.3926755  )

     number of k points=     1
                       cart. coord. in units 2pi/alat
        k(    1) = (   0.0000000   0.0000000   0.0000000), wk =   1.0000000

     Dense  grid:  8500173 G-vectors     FFT dimensions: ( 270, 270, 250)

     Estimated max dynamical RAM per process >       1.57 GB

     Estimated total dynamical RAM >      43.92 GB
     Generating pointlists ...
     new r_m :   0.0276 (alat units)  1.4507 (a.u.) for type    1
     new r_m :   0.0145 (alat units)  0.7614 (a.u.) for type    2
     new r_m :   0.0145 (alat units)  0.7614 (a.u.) for type    3
     new r_m :   0.0161 (alat units)  0.8490 (a.u.) for type    4

     Initial potential from superposition of free atoms

     starting charge      75.9988, renormalised to      73.0000

     negative rho (up, down):  2.133E-02 1.941E-02

     STARTING HUBBARD OCCUPATIONS:

     =================== HUBBARD OCCUPATIONS ===================
     ------------------------ ATOM    1 ------------------------
     Tr[ns(  1)] (up, down, total) =   5.00000  2.00000  7.00000
     Atomic magnetic moment for atom   1 =   3.00000
     SPIN  1
     eigenvalues:
       1.000  1.000  1.000  1.000  1.000
     eigenvectors (columns):
       1.000  0.000  0.000  0.000  0.000
       0.000  1.000  0.000  0.000  0.000
       0.000  0.000  1.000  0.000  0.000
       0.000  0.000  0.000  1.000  0.000
       0.000  0.000  0.000  0.000  1.000
     occupation matrix ns (before diag.):
       1.000  0.000  0.000  0.000  0.000
       0.000  1.000  0.000  0.000  0.000
       0.000  0.000  1.000  0.000  0.000
       0.000  0.000  0.000  1.000  0.000
       0.000  0.000  0.000  0.000  1.000
     SPIN  2
     eigenvalues:
       0.400  0.400  0.400  0.400  0.400
     eigenvectors (columns):
       1.000  0.000  0.000  0.000  0.000
       0.000  1.000  0.000  0.000  0.000
       0.000  0.000  1.000  0.000  0.000
       0.000  0.000  0.000  1.000  0.000
       0.000  0.000  0.000  0.000  1.000
     occupation matrix ns (before diag.):
       0.400  0.000  0.000  0.000  0.000
       0.000  0.400  0.000  0.000  0.000
       0.000  0.000  0.400  0.000  0.000
       0.000  0.000  0.000  0.400  0.000
       0.000  0.000  0.000  0.000  0.400

     Number of occupied Hubbard levels =    7.0000

     Atomic wfc used for Hubbard projectors are orthogonalized

     Starting wfcs are  180 randomized atomic wfcs
     Checking if some PAW data can be deallocated... 

     total cpu time spent up to now is       28.5 secs

     per-process dynamical memory:   356.6 Mb

     Self-consistent Calculation

     iteration #  1     ecut=    58.80 Ry     beta= 0.30
     Davidson diagonalization with overlap
     ethr =  1.00E-02,  avg # of iterations =  2.0

     =================== HUBBARD OCCUPATIONS ===================
     ------------------------ ATOM    1 ------------------------
     Tr[ns(  1)] (up, down, total) =   4.90668  4.74341  9.65008
     Atomic magnetic moment for atom   1 =   0.16327
     SPIN  1
     eigenvalues:
       0.979  0.981  0.981  0.982  0.984
     eigenvectors (columns):
       0.435 -0.033  0.802 -0.208 -0.351
      -0.107 -0.032  0.228  0.952 -0.173
      -0.636  0.227  0.542 -0.104  0.490
      -0.351  0.642 -0.103 -0.114 -0.664
       0.521  0.731 -0.031  0.165  0.408
     occupation matrix ns (before diag.):
       0.981  0.000  0.000  0.001 -0.001
       0.000  0.982 -0.000  0.000  0.000
       0.000 -0.000  0.981 -0.001  0.001
       0.001  0.000 -0.001  0.982 -0.000
      -0.001  0.000  0.001 -0.000  0.981
     SPIN  2
     eigenvalues:
       0.830  0.975  0.977  0.979  0.981
     eigenvectors (columns):
       0.403  0.546  0.693 -0.019 -0.243
       0.493 -0.250 -0.146  0.790 -0.221
       0.208 -0.582  0.537 -0.055  0.571
       0.271 -0.497 -0.008 -0.509 -0.648
       0.691  0.231 -0.459 -0.336  0.382
     occupation matrix ns (before diag.):
       0.953 -0.029 -0.012 -0.015 -0.042
      -0.029  0.943 -0.016 -0.020 -0.051
      -0.012 -0.016  0.972 -0.010 -0.020
      -0.015 -0.020 -0.010  0.968 -0.028
      -0.042 -0.051 -0.020 -0.028  0.908

     Number of occupied Hubbard levels =    9.6501

     negative rho (up, down):  2.410E-02 2.257E-02

     total cpu time spent up to now is       44.8 secs

     total energy              =    -576.88190464 Ry
     estimated scf accuracy    <      19.01149079 Ry

     total magnetization       =     1.00 Bohr mag/cell
     absolute magnetization    =     1.18 Bohr mag/cell

     iteration #  2     ecut=    58.80 Ry     beta= 0.30
     Davidson diagonalization with overlap
     ethr =  1.00E-02,  avg # of iterations =  5.0

     negative rho (up, down):  2.318E-02 2.187E-02

     total cpu time spent up to now is       63.2 secs

     total energy              =    -581.82734506 Ry
     estimated scf accuracy    <      38.52957422 Ry

     total magnetization       =     1.00 Bohr mag/cell
     absolute magnetization    =     1.07 Bohr mag/cell

     iteration #  3     ecut=    58.80 Ry     beta= 0.30
     Davidson diagonalization with overlap
     ethr =  1.00E-02,  avg # of iterations =  7.0

     negative rho (up, down):  2.345E-02 2.190E-02

     total cpu time spent up to now is       79.0 secs

     total energy              =    -583.65027386 Ry
     estimated scf accuracy    <       3.08313388 Ry

     total magnetization       =     1.00 Bohr mag/cell
     absolute magnetization    =     1.37 Bohr mag/cell

     iteration #  4     ecut=    58.80 Ry     beta= 0.30
     Davidson diagonalization with overlap
     ethr =  4.22E-03,  avg # of iterations =  3.5

     negative rho (up, down):  2.428E-02 2.250E-02

     total cpu time spent up to now is       93.5 secs

     total energy              =    -583.73526959 Ry
     estimated scf accuracy    <       0.87515339 Ry

     total magnetization       =     1.00 Bohr mag/cell
     absolute magnetization    =     1.63 Bohr mag/cell

     iteration #  5     ecut=    58.80 Ry     beta= 0.30
     Davidson diagonalization with overlap
     ethr =  1.20E-03,  avg # of iterations =  4.5

     negative rho (up, down):  2.519E-02 2.332E-02

     total cpu time spent up to now is      109.2 secs

     total energy              =    -583.84477660 Ry
     estimated scf accuracy    <       0.24178971 Ry

     total magnetization       =     1.00 Bohr mag/cell
     absolute magnetization    =     1.65 Bohr mag/cell

     iteration #  6     ecut=    58.80 Ry     beta= 0.30
     Davidson diagonalization with overlap
     ethr =  3.31E-04,  avg # of iterations =  3.0

     negative rho (up, down):  2.566E-02 2.360E-02

     total cpu time spent up to now is      124.5 secs

     total energy              =    -583.82359937 Ry
     estimated scf accuracy    <       0.38547924 Ry

     total magnetization       =     1.00 Bohr mag/cell
     absolute magnetization    =     2.73 Bohr mag/cell

     iteration #  7     ecut=    58.80 Ry     beta= 0.30
     Davidson diagonalization with overlap
     ethr =  3.31E-04,  avg # of iterations =  3.5

     negative rho (up, down):  2.624E-02 2.412E-02

     total cpu time spent up to now is      139.6 secs

     total energy              =    -583.89585525 Ry
     estimated scf accuracy    <       0.08439821 Ry

     total magnetization       =     1.00 Bohr mag/cell
     absolute magnetization    =     1.90 Bohr mag/cell

     iteration #  8     ecut=    58.80 Ry     beta= 0.30
     Davidson diagonalization with overlap
     ethr =  1.16E-04,  avg # of iterations =  3.0

     negative rho (up, down):  2.681E-02 2.467E-02

     total cpu time spent up to now is      154.0 secs

     total energy              =    -583.89540830 Ry
     estimated scf accuracy    <       0.07694123 Ry

     total magnetization       =     1.00 Bohr mag/cell
     absolute magnetization    =     1.99 Bohr mag/cell

     iteration #  9     ecut=    58.80 Ry     beta= 0.30
     Davidson diagonalization with overlap
     ethr =  1.05E-04,  avg # of iterations =  2.5

     negative rho (up, down):  2.687E-02 2.473E-02

     total cpu time spent up to now is      168.6 secs

     total energy              =    -583.90088747 Ry
     estimated scf accuracy    <       0.01396233 Ry

     total magnetization       =     1.00 Bohr mag/cell
     absolute magnetization    =     2.29 Bohr mag/cell

     iteration # 10     ecut=    58.80 Ry     beta= 0.30
     Davidson diagonalization with overlap
     ethr =  1.91E-05,  avg # of iterations =  2.0

     negative rho (up, down):  2.706E-02 2.493E-02

     total cpu time spent up to now is      183.0 secs

     total energy              =    -583.90302883 Ry
     estimated scf accuracy    <       0.00821029 Ry

     total magnetization       =     1.00 Bohr mag/cell
     absolute magnetization    =     2.32 Bohr mag/cell

     iteration # 11     ecut=    58.80 Ry     beta= 0.30
     Davidson diagonalization with overlap
     ethr =  1.12E-05,  avg # of iterations =  6.0

     negative rho (up, down):  2.699E-02 2.486E-02

     total cpu time spent up to now is      200.1 secs

     total energy              =    -583.90742649 Ry
     estimated scf accuracy    <       0.11201584 Ry

     total magnetization       =     1.00 Bohr mag/cell
     absolute magnetization    =     2.99 Bohr mag/cell

     iteration # 12     ecut=    58.80 Ry     beta= 0.30
     Davidson diagonalization with overlap
     ethr =  1.12E-05,  avg # of iterations =  3.5

     negative rho (up, down):  2.699E-02 2.486E-02

     total cpu time spent up to now is      214.9 secs

     total energy              =    -583.90831786 Ry
     estimated scf accuracy    <       0.04126612 Ry

     total magnetization       =     1.00 Bohr mag/cell
     absolute magnetization    =     2.79 Bohr mag/cell

     iteration # 13     ecut=    58.80 Ry     beta= 0.30
     Davidson diagonalization with overlap
     ethr =  1.12E-05,  avg # of iterations =  1.0

     negative rho (up, down):  2.700E-02 2.487E-02

     total cpu time spent up to now is      228.9 secs

     total energy              =    -583.90939134 Ry
     estimated scf accuracy    <       0.04038472 Ry

     total magnetization       =     1.00 Bohr mag/cell
     absolute magnetization    =     2.80 Bohr mag/cell

     iteration # 14     ecut=    58.80 Ry     beta= 0.30
     Davidson diagonalization with overlap
     ethr =  1.12E-05,  avg # of iterations =  1.0

     negative rho (up, down):  2.708E-02 2.493E-02

     total cpu time spent up to now is      242.9 secs

     total energy              =    -583.91636682 Ry
     estimated scf accuracy    <       0.03758877 Ry

     total magnetization       =     1.00 Bohr mag/cell
     absolute magnetization    =     2.81 Bohr mag/cell

     iteration # 15     ecut=    58.80 Ry     beta= 0.30
     Davidson diagonalization with overlap
     ethr =  1.12E-05,  avg # of iterations =  4.5

     negative rho (up, down):  2.713E-02 2.497E-02

     total cpu time spent up to now is      260.1 secs

     total energy              =    -583.93428275 Ry
     estimated scf accuracy    <       0.36901470 Ry

     total magnetization       =     1.00 Bohr mag/cell
     absolute magnetization    =     3.42 Bohr mag/cell

     iteration # 16     ecut=    58.80 Ry     beta= 0.30
     Davidson diagonalization with overlap
     ethr =  1.12E-05,  avg # of iterations =  1.0

     negative rho (up, down):  2.720E-02 2.501E-02

     total cpu time spent up to now is      274.1 secs

     total energy              =    -583.91074688 Ry
     estimated scf accuracy    <       0.36813665 Ry

     total magnetization       =     1.00 Bohr mag/cell
     absolute magnetization    =     3.42 Bohr mag/cell

     iteration # 17     ecut=    58.80 Ry     beta= 0.30
     Davidson diagonalization with overlap
     ethr =  1.12E-05,  avg # of iterations =  4.5

     negative rho (up, down):  2.720E-02 2.502E-02

     total cpu time spent up to now is      289.6 secs

     total energy              =    -583.92487118 Ry
     estimated scf accuracy    <       0.21784033 Ry

     total magnetization       =     1.00 Bohr mag/cell
     absolute magnetization    =     3.20 Bohr mag/cell

     iteration # 18     ecut=    58.80 Ry     beta= 0.30
     Davidson diagonalization with overlap
     ethr =  1.12E-05,  avg # of iterations =  1.0

     negative rho (up, down):  2.719E-02 2.497E-02

     total cpu time spent up to now is      303.6 secs

     total energy              =    -583.92144285 Ry
     estimated scf accuracy    <       0.22260349 Ry

     total magnetization       =     1.00 Bohr mag/cell
     absolute magnetization    =     3.20 Bohr mag/cell

     iteration # 19     ecut=    58.80 Ry     beta= 0.30
     Davidson diagonalization with overlap
     ethr =  1.12E-05,  avg # of iterations =  4.0

     negative rho (up, down):  2.721E-02 2.496E-02

     total cpu time spent up to now is      318.2 secs

     total energy              =    -583.92565115 Ry
     estimated scf accuracy    <       0.12914168 Ry

     total magnetization       =     1.00 Bohr mag/cell
     absolute magnetization    =     3.11 Bohr mag/cell

     iteration # 20     ecut=    58.80 Ry     beta= 0.30
     Davidson diagonalization with overlap
     ethr =  1.12E-05,  avg # of iterations =  4.0

     negative rho (up, down):  2.725E-02 2.507E-02

     total cpu time spent up to now is      333.5 secs

     total energy              =    -583.93417649 Ry
     estimated scf accuracy    <       0.11681846 Ry

     total magnetization       =     1.00 Bohr mag/cell
     absolute magnetization    =     3.15 Bohr mag/cell

     iteration # 21     ecut=    58.80 Ry     beta= 0.30
     Davidson diagonalization with overlap
     ethr =  1.12E-05,  avg # of iterations =  4.5

     negative rho (up, down):  2.720E-02 2.498E-02

     total cpu time spent up to now is      349.8 secs

     total energy              =    -583.93257869 Ry
     estimated scf accuracy    <       0.21234955 Ry

     total magnetization       =     1.00 Bohr mag/cell
     absolute magnetization    =     3.39 Bohr mag/cell

     iteration # 22     ecut=    58.80 Ry     beta= 0.30
     Davidson diagonalization with overlap
     ethr =  1.12E-05,  avg # of iterations =  5.0

     negative rho (up, down):  2.724E-02 2.499E-02

     total cpu time spent up to now is      365.0 secs

     total energy              =    -583.92422091 Ry
     estimated scf accuracy    <       0.25899352 Ry

     total magnetization       =     1.00 Bohr mag/cell
     absolute magnetization    =     3.37 Bohr mag/cell

     iteration # 23     ecut=    58.80 Ry     beta= 0.30
     Davidson diagonalization with overlap
     ethr =  1.12E-05,  avg # of iterations =  4.0

     negative rho (up, down):  2.726E-02 2.491E-02

     total cpu time spent up to now is      379.9 secs

     total energy              =    -583.91427285 Ry
     estimated scf accuracy    <       0.09898817 Ry

     total magnetization       =     1.00 Bohr mag/cell
     absolute magnetization    =     3.17 Bohr mag/cell

     iteration # 24     ecut=    58.80 Ry     beta= 0.30
     Davidson diagonalization with overlap
     ethr =  1.12E-05,  avg # of iterations =  6.0

     negative rho (up, down):  2.727E-02 2.487E-02

     total cpu time spent up to now is      398.0 secs

     total energy              =    -583.92430988 Ry
     estimated scf accuracy    <       0.06229008 Ry

     total magnetization       =     1.00 Bohr mag/cell
     absolute magnetization    =     3.04 Bohr mag/cell

     iteration # 25     ecut=    58.80 Ry     beta= 0.30
     Davidson diagonalization with overlap
     ethr =  1.12E-05,  avg # of iterations =  7.0

     negative rho (up, down):  2.726E-02 2.487E-02

     total cpu time spent up to now is      414.4 secs

     total energy              =    -583.92906880 Ry
     estimated scf accuracy    <       0.01335754 Ry

     total magnetization       =     1.00 Bohr mag/cell
     absolute magnetization    =     2.95 Bohr mag/cell

     iteration # 26     ecut=    58.80 Ry     beta= 0.30
     Davidson diagonalization with overlap
     ethr =  1.12E-05,  avg # of iterations =  1.0

     negative rho (up, down):  2.726E-02 2.496E-02

     total cpu time spent up to now is      428.3 secs

     total energy              =    -583.92522612 Ry
     estimated scf accuracy    <       0.01236906 Ry

     total magnetization       =     1.00 Bohr mag/cell
     absolute magnetization    =     2.95 Bohr mag/cell

     iteration # 27     ecut=    58.80 Ry     beta= 0.30
     Davidson diagonalization with overlap
     ethr =  1.12E-05,  avg # of iterations =  6.0

     negative rho (up, down):  2.729E-02 2.494E-02

     total cpu time spent up to now is      445.0 secs

     total energy              =    -583.92760142 Ry
     estimated scf accuracy    <       0.01289652 Ry

     total magnetization       =     1.00 Bohr mag/cell
     absolute magnetization    =     3.06 Bohr mag/cell

     iteration # 28     ecut=    58.80 Ry     beta= 0.30
     Davidson diagonalization with overlap
     ethr =  1.12E-05,  avg # of iterations =  4.0

     negative rho (up, down):  2.731E-02 2.496E-02

     total cpu time spent up to now is      460.1 secs

     total energy              =    -583.92988145 Ry
     estimated scf accuracy    <       0.00237659 Ry

     total magnetization       =     1.00 Bohr mag/cell
     absolute magnetization    =     3.01 Bohr mag/cell

     iteration # 29     ecut=    58.80 Ry     beta= 0.30
     Davidson diagonalization with overlap
     ethr =  3.26E-06,  avg # of iterations =  7.0

     negative rho (up, down):  2.731E-02 2.497E-02

     total cpu time spent up to now is      476.1 secs

     total energy              =    -583.93060266 Ry
     estimated scf accuracy    <       0.00267949 Ry

     total magnetization       =     1.00 Bohr mag/cell
     absolute magnetization    =     3.02 Bohr mag/cell

     iteration # 30     ecut=    58.80 Ry     beta= 0.30
     Davidson diagonalization with overlap
     ethr =  3.26E-06,  avg # of iterations =  1.0

     negative rho (up, down):  2.732E-02 2.501E-02

     total cpu time spent up to now is      490.1 secs

     total energy              =    -583.93078885 Ry
     estimated scf accuracy    <       0.00216955 Ry

     total magnetization       =     1.00 Bohr mag/cell
     absolute magnetization    =     3.02 Bohr mag/cell

     iteration # 31     ecut=    58.80 Ry     beta= 0.30
     Davidson diagonalization with overlap
     ethr =  2.97E-06,  avg # of iterations =  4.5

     negative rho (up, down):  2.732E-02 2.501E-02

     total cpu time spent up to now is      506.4 secs

     total energy              =    -583.93158461 Ry
     estimated scf accuracy    <       0.00643404 Ry

     total magnetization       =     1.00 Bohr mag/cell
     absolute magnetization    =     3.08 Bohr mag/cell

     iteration # 32     ecut=    58.80 Ry     beta= 0.30
     Davidson diagonalization with overlap
     ethr =  2.97E-06,  avg # of iterations =  1.0

     negative rho (up, down):  2.732E-02 2.499E-02

     total cpu time spent up to now is      520.3 secs

     total energy              =    -583.93137550 Ry
     estimated scf accuracy    <       0.00648618 Ry

     total magnetization       =     1.00 Bohr mag/cell
     absolute magnetization    =     3.08 Bohr mag/cell

     iteration # 33     ecut=    58.80 Ry     beta= 0.30
     Davidson diagonalization with overlap
     ethr =  2.97E-06,  avg # of iterations =  4.5

     negative rho (up, down):  2.732E-02 2.498E-02

     total cpu time spent up to now is      535.5 secs

     total energy              =    -583.93198433 Ry
     estimated scf accuracy    <       0.00249272 Ry

     total magnetization       =     1.00 Bohr mag/cell
     absolute magnetization    =     3.03 Bohr mag/cell

     iteration # 34     ecut=    58.80 Ry     beta= 0.30
     Davidson diagonalization with overlap
     ethr =  2.97E-06,  avg # of iterations =  1.0

     negative rho (up, down):  2.732E-02 2.499E-02

     total cpu time spent up to now is      549.5 secs

     total energy              =    -583.93209849 Ry
     estimated scf accuracy    <       0.00245992 Ry

     total magnetization       =     1.00 Bohr mag/cell
     absolute magnetization    =     3.03 Bohr mag/cell

     iteration # 35     ecut=    58.80 Ry     beta= 0.30
     Davidson diagonalization with overlap
     ethr =  2.97E-06,  avg # of iterations =  1.0

     negative rho (up, down):  2.733E-02 2.499E-02

     total cpu time spent up to now is      563.4 secs

     total energy              =    -583.93237182 Ry
     estimated scf accuracy    <       0.00245898 Ry

     total magnetization       =     1.00 Bohr mag/cell
     absolute magnetization    =     3.03 Bohr mag/cell

     iteration # 36     ecut=    58.80 Ry     beta= 0.30
     Davidson diagonalization with overlap
     ethr =  2.97E-06,  avg # of iterations =  2.0

     negative rho (up, down):  2.733E-02 2.499E-02

     total cpu time spent up to now is      577.6 secs

     total energy              =    -583.93190629 Ry
     estimated scf accuracy    <       0.00235668 Ry

     total magnetization       =     1.00 Bohr mag/cell
     absolute magnetization    =     3.03 Bohr mag/cell

     iteration # 37     ecut=    58.80 Ry     beta= 0.30
     Davidson diagonalization with overlap
     ethr =  2.97E-06,  avg # of iterations =  3.0

     negative rho (up, down):  2.732E-02 2.500E-02

     total cpu time spent up to now is      592.1 secs

     total energy              =    -583.93247330 Ry
     estimated scf accuracy    <       0.00090540 Ry

     total magnetization       =     1.00 Bohr mag/cell
     absolute magnetization    =     3.02 Bohr mag/cell

     iteration # 38     ecut=    58.80 Ry     beta= 0.30
     Davidson diagonalization with overlap
     ethr =  1.24E-06,  avg # of iterations =  5.0

     negative rho (up, down):  2.734E-02 2.502E-02

     total cpu time spent up to now is      607.6 secs

     total energy              =    -583.93301324 Ry
     estimated scf accuracy    <       0.00402849 Ry

     total magnetization       =     1.00 Bohr mag/cell
     absolute magnetization    =     3.03 Bohr mag/cell

     iteration # 39     ecut=    58.80 Ry     beta= 0.30
     Davidson diagonalization with overlap
     ethr =  1.24E-06,  avg # of iterations =  5.0

     negative rho (up, down):  2.734E-02 2.502E-02

     total cpu time spent up to now is      623.7 secs

     total energy              =    -583.93370351 Ry
     estimated scf accuracy    <       0.00294859 Ry

     total magnetization       =     1.00 Bohr mag/cell
     absolute magnetization    =     3.01 Bohr mag/cell

     iteration # 40     ecut=    58.80 Ry     beta= 0.30
     Davidson diagonalization with overlap
     ethr =  1.24E-06,  avg # of iterations =  2.5

     negative rho (up, down):  2.733E-02 2.502E-02

     total cpu time spent up to now is      638.3 secs

     total energy              =    -583.93396246 Ry
     estimated scf accuracy    <       0.00301602 Ry

     total magnetization       =     1.00 Bohr mag/cell
     absolute magnetization    =     3.01 Bohr mag/cell

     iteration # 41     ecut=    58.80 Ry     beta= 0.30
     Davidson diagonalization with overlap
     ethr =  1.24E-06,  avg # of iterations =  4.5

     negative rho (up, down):  2.729E-02 2.496E-02

     total cpu time spent up to now is      654.0 secs

     total energy              =    -583.93220079 Ry
     estimated scf accuracy    <       0.00352779 Ry

     total magnetization       =     1.00 Bohr mag/cell
     absolute magnetization    =     2.98 Bohr mag/cell

     iteration # 42     ecut=    58.80 Ry     beta= 0.30
     Davidson diagonalization with overlap
     ethr =  1.24E-06,  avg # of iterations =  5.5

     negative rho (up, down):  2.728E-02 2.497E-02

     total cpu time spent up to now is      671.1 secs

     total energy              =    -583.93342075 Ry
     estimated scf accuracy    <       0.00140666 Ry

     total magnetization       =     1.00 Bohr mag/cell
     absolute magnetization    =     3.00 Bohr mag/cell

     iteration # 43     ecut=    58.80 Ry     beta= 0.30
     Davidson diagonalization with overlap
     ethr =  1.24E-06,  avg # of iterations =  5.5

     negative rho (up, down):  2.731E-02 2.497E-02

     total cpu time spent up to now is      686.9 secs

     total energy              =    -583.93317008 Ry
     estimated scf accuracy    <       0.00127213 Ry

     total magnetization       =     1.00 Bohr mag/cell
     absolute magnetization    =     2.99 Bohr mag/cell

     iteration # 44     ecut=    58.80 Ry     beta= 0.30
     Davidson diagonalization with overlap
     ethr =  1.24E-06,  avg # of iterations =  5.0

     negative rho (up, down):  2.731E-02 2.497E-02

     total cpu time spent up to now is      702.5 secs

     total energy              =    -583.93330559 Ry
     estimated scf accuracy    <       0.00160663 Ry

     total magnetization       =     1.00 Bohr mag/cell
     absolute magnetization    =     2.99 Bohr mag/cell

     iteration # 45     ecut=    58.80 Ry     beta= 0.30
     Davidson diagonalization with overlap
     ethr =  1.24E-06,  avg # of iterations =  1.0

     negative rho (up, down):  2.727E-02 2.501E-02

     total cpu time spent up to now is      716.5 secs

     total energy              =    -583.93325196 Ry
     estimated scf accuracy    <       0.00169008 Ry

     total magnetization       =     1.00 Bohr mag/cell
     absolute magnetization    =     2.99 Bohr mag/cell

     iteration # 46     ecut=    58.80 Ry     beta= 0.30
     Davidson diagonalization with overlap
     ethr =  1.24E-06,  avg # of iterations =  5.0

     negative rho (up, down):  2.724E-02 2.505E-02

     total cpu time spent up to now is      734.0 secs

     total energy              =    -583.93491602 Ry
     estimated scf accuracy    <       0.00163558 Ry

     total magnetization       =     1.00 Bohr mag/cell
     absolute magnetization    =     2.99 Bohr mag/cell

     iteration # 47     ecut=    58.80 Ry     beta= 0.30
     Davidson diagonalization with overlap
     ethr =  1.24E-06,  avg # of iterations =  5.0

     negative rho (up, down):  2.725E-02 2.505E-02

     total cpu time spent up to now is      750.5 secs

     total energy              =    -583.93584418 Ry
     estimated scf accuracy    <       0.00138768 Ry

     total magnetization       =     1.00 Bohr mag/cell
     absolute magnetization    =     2.99 Bohr mag/cell

     iteration # 48     ecut=    58.80 Ry     beta= 0.30
     Davidson diagonalization with overlap
     ethr =  1.24E-06,  avg # of iterations =  5.0

     negative rho (up, down):  2.722E-02 2.507E-02

     total cpu time spent up to now is      766.2 secs

     total energy              =    -583.93616913 Ry
     estimated scf accuracy    <       0.00146008 Ry

     total magnetization       =     1.00 Bohr mag/cell
     absolute magnetization    =     2.97 Bohr mag/cell

     iteration # 49     ecut=    58.80 Ry     beta= 0.30
     Davidson diagonalization with overlap
     ethr =  1.24E-06,  avg # of iterations =  4.0

     negative rho (up, down):  2.720E-02 2.508E-02

     total cpu time spent up to now is      782.6 secs

     total energy              =    -583.93676086 Ry
     estimated scf accuracy    <       0.00061385 Ry

     total magnetization       =     1.00 Bohr mag/cell
     absolute magnetization    =     2.97 Bohr mag/cell

     iteration # 50     ecut=    58.80 Ry     beta= 0.30
     Davidson diagonalization with overlap
     ethr =  8.41E-07,  avg # of iterations =  4.0

     negative rho (up, down):  2.718E-02 2.510E-02

     total cpu time spent up to now is      798.7 secs

     total energy              =    -583.93704825 Ry
     estimated scf accuracy    <       0.00060680 Ry

     total magnetization       =     1.00 Bohr mag/cell
     absolute magnetization    =     2.97 Bohr mag/cell

     iteration # 51     ecut=    58.80 Ry     beta= 0.30
     Davidson diagonalization with overlap
     ethr =  8.31E-07,  avg # of iterations =  4.0

     negative rho (up, down):  2.716E-02 2.510E-02

     total cpu time spent up to now is      815.5 secs

     total energy              =    -583.93749665 Ry
     estimated scf accuracy    <       0.00043798 Ry

     total magnetization       =     1.00 Bohr mag/cell
     absolute magnetization    =     2.96 Bohr mag/cell

     iteration # 52     ecut=    58.80 Ry     beta= 0.30
     Davidson diagonalization with overlap
     ethr =  6.00E-07,  avg # of iterations =  4.0

     negative rho (up, down):  2.714E-02 2.514E-02

     total cpu time spent up to now is      832.4 secs

     total energy              =    -583.93776726 Ry
     estimated scf accuracy    <       0.00027396 Ry

     total magnetization       =     1.00 Bohr mag/cell
     absolute magnetization    =     2.95 Bohr mag/cell

     iteration # 53     ecut=    58.80 Ry     beta= 0.30
     Davidson diagonalization with overlap
     ethr =  3.75E-07,  avg # of iterations =  4.5

     negative rho (up, down):  2.711E-02 2.521E-02

     total cpu time spent up to now is      850.2 secs

     total energy              =    -583.93600881 Ry
     estimated scf accuracy    <       0.00024124 Ry

     total magnetization       =     1.00 Bohr mag/cell
     absolute magnetization    =     2.94 Bohr mag/cell

     iteration # 54     ecut=    58.80 Ry     beta= 0.30
     Davidson diagonalization with overlap
     ethr =  3.30E-07,  avg # of iterations =  5.0

     negative rho (up, down):  2.713E-02 2.513E-02

     total cpu time spent up to now is      870.3 secs

     total energy              =    -583.93787423 Ry
     estimated scf accuracy    <       0.00019697 Ry

     total magnetization       =     1.00 Bohr mag/cell
     absolute magnetization    =     2.91 Bohr mag/cell

     iteration # 55     ecut=    58.80 Ry     beta= 0.30
     Davidson diagonalization with overlap
     ethr =  2.70E-07,  avg # of iterations =  5.0

     negative rho (up, down):  2.713E-02 2.514E-02

     total cpu time spent up to now is      889.3 secs

     total energy              =    -583.93872604 Ry
     estimated scf accuracy    <       0.00006072 Ry

     total magnetization       =     1.00 Bohr mag/cell
     absolute magnetization    =     2.93 Bohr mag/cell

     iteration # 56     ecut=    58.80 Ry     beta= 0.30
     Davidson diagonalization with overlap
     ethr =  8.32E-08,  avg # of iterations =  4.5

     negative rho (up, down):  2.713E-02 2.515E-02

     total cpu time spent up to now is      905.8 secs

     total energy              =    -583.93851673 Ry
     estimated scf accuracy    <       0.00004512 Ry

     total magnetization       =     1.00 Bohr mag/cell
     absolute magnetization    =     2.93 Bohr mag/cell

     iteration # 57     ecut=    58.80 Ry     beta= 0.30
     Davidson diagonalization with overlap
     ethr =  6.18E-08,  avg # of iterations =  5.0

     negative rho (up, down):  2.712E-02 2.515E-02

     total cpu time spent up to now is      925.7 secs

     total energy              =    -583.93906077 Ry
     estimated scf accuracy    <       0.00004587 Ry

     total magnetization       =     1.00 Bohr mag/cell
     absolute magnetization    =     2.93 Bohr mag/cell

     iteration # 58     ecut=    58.80 Ry     beta= 0.30
     Davidson diagonalization with overlap
     ethr =  6.18E-08,  avg # of iterations =  4.0

     negative rho (up, down):  2.711E-02 2.517E-02

     total cpu time spent up to now is      943.4 secs

     total energy              =    -583.93900592 Ry
     estimated scf accuracy    <       0.00004002 Ry

     total magnetization       =     1.00 Bohr mag/cell
     absolute magnetization    =     2.93 Bohr mag/cell

     iteration # 59     ecut=    58.80 Ry     beta= 0.30
     Davidson diagonalization with overlap
     ethr =  5.48E-08,  avg # of iterations =  5.0

     negative rho (up, down):  2.710E-02 2.515E-02

     total cpu time spent up to now is      963.0 secs

     total energy              =    -583.93931671 Ry
     estimated scf accuracy    <       0.00002529 Ry

     total magnetization       =     1.00 Bohr mag/cell
     absolute magnetization    =     2.92 Bohr mag/cell

     iteration # 60     ecut=    58.80 Ry     beta= 0.30
     Davidson diagonalization with overlap
     ethr =  3.46E-08,  avg # of iterations =  5.0

     negative rho (up, down):  2.709E-02 2.517E-02

     total cpu time spent up to now is      982.3 secs

     total energy              =    -583.93943608 Ry
     estimated scf accuracy    <       0.00002432 Ry

     total magnetization       =     1.00 Bohr mag/cell
     absolute magnetization    =     2.93 Bohr mag/cell

     iteration # 61     ecut=    58.80 Ry     beta= 0.30
     Davidson diagonalization with overlap
     ethr =  3.33E-08,  avg # of iterations =  5.0

     negative rho (up, down):  2.708E-02 2.518E-02

     total cpu time spent up to now is     1001.8 secs

     total energy              =    -583.93954629 Ry
     estimated scf accuracy    <       0.00001571 Ry

     total magnetization       =     1.00 Bohr mag/cell
     absolute magnetization    =     2.93 Bohr mag/cell

     iteration # 62     ecut=    58.80 Ry     beta= 0.30
     Davidson diagonalization with overlap
     ethr =  2.15E-08,  avg # of iterations =  5.0

     negative rho (up, down):  2.708E-02 2.516E-02

     total cpu time spent up to now is     1022.0 secs

     total energy              =    -583.93966873 Ry
     estimated scf accuracy    <       0.00001373 Ry

     total magnetization       =     1.00 Bohr mag/cell
     absolute magnetization    =     2.92 Bohr mag/cell

     iteration # 63     ecut=    58.80 Ry     beta= 0.30
     Davidson diagonalization with overlap
     ethr =  1.88E-08,  avg # of iterations =  5.0

     negative rho (up, down):  2.708E-02 2.520E-02

     total cpu time spent up to now is     1041.9 secs

     total energy              =    -583.93943688 Ry
     estimated scf accuracy    <       0.00001617 Ry

     total magnetization       =     1.00 Bohr mag/cell
     absolute magnetization    =     2.92 Bohr mag/cell

     iteration # 64     ecut=    58.80 Ry     beta= 0.30
     Davidson diagonalization with overlap
     ethr =  1.88E-08,  avg # of iterations =  5.0

     negative rho (up, down):  2.708E-02 2.518E-02

     total cpu time spent up to now is     1063.3 secs

     total energy              =    -583.93999258 Ry
     estimated scf accuracy    <       0.00002138 Ry

     total magnetization       =     1.00 Bohr mag/cell
     absolute magnetization    =     2.92 Bohr mag/cell

     iteration # 65     ecut=    58.80 Ry     beta= 0.30
     Davidson diagonalization with overlap
     ethr =  1.88E-08,  avg # of iterations =  4.5

     negative rho (up, down):  2.707E-02 2.519E-02

     total cpu time spent up to now is     1080.0 secs

     total energy              =    -583.93990133 Ry
     estimated scf accuracy    <       0.00000855 Ry

     total magnetization       =     1.00 Bohr mag/cell
     absolute magnetization    =     2.92 Bohr mag/cell

     iteration # 66     ecut=    58.80 Ry     beta= 0.30
     Davidson diagonalization with overlap
     ethr =  1.17E-08,  avg # of iterations =  5.0

     negative rho (up, down):  2.707E-02 2.517E-02

     total cpu time spent up to now is     1100.2 secs

     total energy              =    -583.94004579 Ry
     estimated scf accuracy    <       0.00001082 Ry

     total magnetization       =     1.00 Bohr mag/cell
     absolute magnetization    =     2.92 Bohr mag/cell

     iteration # 67     ecut=    58.80 Ry     beta= 0.30
     Davidson diagonalization with overlap
     ethr =  1.17E-08,  avg # of iterations =  4.5

     negative rho (up, down):  2.707E-02 2.517E-02

     total cpu time spent up to now is     1117.7 secs

     total energy              =    -583.93985771 Ry
     estimated scf accuracy    <       0.00000768 Ry

     total magnetization       =     1.00 Bohr mag/cell
     absolute magnetization    =     2.93 Bohr mag/cell

     iteration # 68     ecut=    58.80 Ry     beta= 0.30
     Davidson diagonalization with overlap
     ethr =  1.05E-08,  avg # of iterations =  5.0

     negative rho (up, down):  2.707E-02 2.518E-02

     total cpu time spent up to now is     1138.8 secs

     total energy              =    -583.93999106 Ry
     estimated scf accuracy    <       0.00000553 Ry

     total magnetization       =     1.00 Bohr mag/cell
     absolute magnetization    =     2.93 Bohr mag/cell

     iteration # 69     ecut=    58.80 Ry     beta= 0.30
     Davidson diagonalization with overlap
     ethr =  7.57E-09,  avg # of iterations =  5.0

     negative rho (up, down):  2.707E-02 2.516E-02

     total cpu time spent up to now is     1159.7 secs

     total energy              =    -583.94017091 Ry
     estimated scf accuracy    <       0.00000658 Ry

     total magnetization       =     1.00 Bohr mag/cell
     absolute magnetization    =     2.93 Bohr mag/cell

     iteration # 70     ecut=    58.80 Ry     beta= 0.30
     Davidson diagonalization with overlap
     ethr =  7.57E-09,  avg # of iterations =  5.0

     negative rho (up, down):  2.707E-02 2.516E-02

     total cpu time spent up to now is     1178.9 secs

     total energy              =    -583.94017948 Ry
     estimated scf accuracy    <       0.00000611 Ry

     total magnetization       =     1.00 Bohr mag/cell
     absolute magnetization    =     2.93 Bohr mag/cell

     iteration # 71     ecut=    58.80 Ry     beta= 0.30
     Davidson diagonalization with overlap
     ethr =  7.57E-09,  avg # of iterations =  4.5

     negative rho (up, down):  2.707E-02 2.516E-02

     total cpu time spent up to now is     1197.6 secs

     total energy              =    -583.94014492 Ry
     estimated scf accuracy    <       0.00000399 Ry

     total magnetization       =     1.00 Bohr mag/cell
     absolute magnetization    =     2.93 Bohr mag/cell

     iteration # 72     ecut=    58.80 Ry     beta= 0.30
     Davidson diagonalization with overlap
     ethr =  5.47E-09,  avg # of iterations =  5.0

     negative rho (up, down):  2.707E-02 2.515E-02

     total cpu time spent up to now is     1218.0 secs

     total energy              =    -583.94023919 Ry
     estimated scf accuracy    <       0.00000388 Ry

     total magnetization       =     1.00 Bohr mag/cell
     absolute magnetization    =     2.93 Bohr mag/cell

     iteration # 73     ecut=    58.80 Ry     beta= 0.30
     Davidson diagonalization with overlap
     ethr =  5.32E-09,  avg # of iterations =  4.5

     negative rho (up, down):  2.708E-02 2.515E-02

     total cpu time spent up to now is     1236.4 secs

     total energy              =    -583.94004030 Ry
     estimated scf accuracy    <       0.00000435 Ry

     total magnetization       =     1.00 Bohr mag/cell
     absolute magnetization    =     2.93 Bohr mag/cell

     iteration # 74     ecut=    58.80 Ry     beta= 0.30
     Davidson diagonalization with overlap
     ethr =  5.32E-09,  avg # of iterations =  5.0

     negative rho (up, down):  2.708E-02 2.515E-02

     total cpu time spent up to now is     1258.1 secs

     total energy              =    -583.94020546 Ry
     estimated scf accuracy    <       0.00000361 Ry

     total magnetization       =     1.00 Bohr mag/cell
     absolute magnetization    =     2.93 Bohr mag/cell

     iteration # 75     ecut=    58.80 Ry     beta= 0.30
     Davidson diagonalization with overlap
     ethr =  4.95E-09,  avg # of iterations =  5.0

     negative rho (up, down):  2.709E-02 2.514E-02

     total cpu time spent up to now is     1279.0 secs

     total energy              =    -583.94033560 Ry
     estimated scf accuracy    <       0.00000341 Ry

     total magnetization       =     1.00 Bohr mag/cell
     absolute magnetization    =     2.93 Bohr mag/cell

     iteration # 76     ecut=    58.80 Ry     beta= 0.30
     Davidson diagonalization with overlap
     ethr =  4.67E-09,  avg # of iterations =  4.0

     negative rho (up, down):  2.709E-02 2.514E-02

     total cpu time spent up to now is     1295.6 secs

     total energy              =    -583.94031038 Ry
     estimated scf accuracy    <       0.00000242 Ry

     total magnetization       =     1.00 Bohr mag/cell
     absolute magnetization    =     2.93 Bohr mag/cell

     iteration # 77     ecut=    58.80 Ry     beta= 0.30
     Davidson diagonalization with overlap
     ethr =  3.32E-09,  avg # of iterations =  5.0

     negative rho (up, down):  2.709E-02 2.514E-02

     total cpu time spent up to now is     1315.6 secs

     total energy              =    -583.94035673 Ry
     estimated scf accuracy    <       0.00000231 Ry

     total magnetization       =     1.00 Bohr mag/cell
     absolute magnetization    =     2.93 Bohr mag/cell

     iteration # 78     ecut=    58.80 Ry     beta= 0.30
     Davidson diagonalization with overlap
     ethr =  3.17E-09,  avg # of iterations =  5.0

     negative rho (up, down):  2.709E-02 2.513E-02

     total cpu time spent up to now is     1333.9 secs

     total energy              =    -583.94036276 Ry
     estimated scf accuracy    <       0.00000208 Ry

     total magnetization       =     1.00 Bohr mag/cell
     absolute magnetization    =     2.94 Bohr mag/cell

     iteration # 79     ecut=    58.80 Ry     beta= 0.30
     Davidson diagonalization with overlap
     ethr =  2.85E-09,  avg # of iterations =  5.0

     negative rho (up, down):  2.709E-02 2.513E-02

     total cpu time spent up to now is     1352.8 secs

     total energy              =    -583.94037324 Ry
     estimated scf accuracy    <       0.00000315 Ry

     total magnetization       =     1.00 Bohr mag/cell
     absolute magnetization    =     2.94 Bohr mag/cell

     iteration # 80     ecut=    58.80 Ry     beta= 0.30
     Davidson diagonalization with overlap
     ethr =  2.85E-09,  avg # of iterations =  4.5

     negative rho (up, down):  2.709E-02 2.513E-02

     total cpu time spent up to now is     1370.7 secs

     total energy              =    -583.94034848 Ry
     estimated scf accuracy    <       0.00000198 Ry

     total magnetization       =     1.00 Bohr mag/cell
     absolute magnetization    =     2.94 Bohr mag/cell

     iteration # 81     ecut=    58.80 Ry     beta= 0.30
     Davidson diagonalization with overlap
     ethr =  2.71E-09,  avg # of iterations =  5.0

     negative rho (up, down):  2.709E-02 2.513E-02

     total cpu time spent up to now is     1391.4 secs

     total energy              =    -583.94040297 Ry
     estimated scf accuracy    <       0.00000194 Ry

     total magnetization       =     1.00 Bohr mag/cell
     absolute magnetization    =     2.94 Bohr mag/cell

     iteration # 82     ecut=    58.80 Ry     beta= 0.30
     Davidson diagonalization with overlap
     ethr =  2.66E-09,  avg # of iterations =  4.0

     negative rho (up, down):  2.709E-02 2.513E-02

     total cpu time spent up to now is     1408.1 secs

     total energy              =    -583.94039721 Ry
     estimated scf accuracy    <       0.00000194 Ry

     total magnetization       =     1.00 Bohr mag/cell
     absolute magnetization    =     2.94 Bohr mag/cell

     iteration # 83     ecut=    58.80 Ry     beta= 0.30
     Davidson diagonalization with overlap
     ethr =  2.66E-09,  avg # of iterations =  5.0

     negative rho (up, down):  2.709E-02 2.513E-02

     total cpu time spent up to now is     1427.5 secs

     total energy              =    -583.94033555 Ry
     estimated scf accuracy    <       0.00000169 Ry

     total magnetization       =     1.00 Bohr mag/cell
     absolute magnetization    =     2.93 Bohr mag/cell

     iteration # 84     ecut=    58.80 Ry     beta= 0.30
     Davidson diagonalization with overlap
     ethr =  2.31E-09,  avg # of iterations =  5.5

     negative rho (up, down):  2.709E-02 2.513E-02

     total cpu time spent up to now is     1449.0 secs

     total energy              =    -583.94044848 Ry
     estimated scf accuracy    <       0.00000166 Ry

     total magnetization       =     1.00 Bohr mag/cell
     absolute magnetization    =     2.93 Bohr mag/cell

     iteration # 85     ecut=    58.80 Ry     beta= 0.30
     Davidson diagonalization with overlap
     ethr =  2.27E-09,  avg # of iterations =  4.0

     negative rho (up, down):  2.709E-02 2.512E-02

     total cpu time spent up to now is     1465.9 secs

     total energy              =    -583.94045125 Ry
     estimated scf accuracy    <       0.00000155 Ry

     total magnetization       =     1.00 Bohr mag/cell
     absolute magnetization    =     2.93 Bohr mag/cell

     iteration # 86     ecut=    58.80 Ry     beta= 0.30
     Davidson diagonalization with overlap
     ethr =  2.13E-09,  avg # of iterations =  4.5

     negative rho (up, down):  2.709E-02 2.512E-02

     total cpu time spent up to now is     1483.8 secs

     total energy              =    -583.94041378 Ry
     estimated scf accuracy    <       0.00000151 Ry

     total magnetization       =     1.00 Bohr mag/cell
     absolute magnetization    =     2.93 Bohr mag/cell

     iteration # 87     ecut=    58.80 Ry     beta= 0.30
     Davidson diagonalization with overlap
     ethr =  2.07E-09,  avg # of iterations =  5.0

     negative rho (up, down):  2.709E-02 2.511E-02

     total cpu time spent up to now is     1504.5 secs

     total energy              =    -583.94040298 Ry
     estimated scf accuracy    <       0.00000156 Ry

     total magnetization       =     1.00 Bohr mag/cell
     absolute magnetization    =     2.93 Bohr mag/cell

     iteration # 88     ecut=    58.80 Ry     beta= 0.30
     Davidson diagonalization with overlap
     ethr =  2.07E-09,  avg # of iterations =  5.5

     negative rho (up, down):  2.710E-02 2.511E-02

     total cpu time spent up to now is     1526.0 secs

     total energy              =    -583.94049522 Ry
     estimated scf accuracy    <       0.00000148 Ry

     total magnetization       =     1.00 Bohr mag/cell
     absolute magnetization    =     2.94 Bohr mag/cell

     iteration # 89     ecut=    58.80 Ry     beta= 0.30
     Davidson diagonalization with overlap
     ethr =  2.03E-09,  avg # of iterations =  5.0

     negative rho (up, down):  2.710E-02 2.510E-02

     total cpu time spent up to now is     1544.9 secs

     total energy              =    -583.94047683 Ry
     estimated scf accuracy    <       0.00000131 Ry

     total magnetization       =     1.00 Bohr mag/cell
     absolute magnetization    =     2.93 Bohr mag/cell

     iteration # 90     ecut=    58.80 Ry     beta= 0.30
     Davidson diagonalization with overlap
     ethr =  1.80E-09,  avg # of iterations =  5.5

     negative rho (up, down):  2.710E-02 2.510E-02

     total cpu time spent up to now is     1566.1 secs

     total energy              =    -583.94046864 Ry
     estimated scf accuracy    <       0.00000271 Ry

     total magnetization       =     1.00 Bohr mag/cell
     absolute magnetization    =     2.94 Bohr mag/cell

     iteration # 91     ecut=    58.80 Ry     beta= 0.30
     Davidson diagonalization with overlap
     ethr =  1.80E-09,  avg # of iterations =  5.5

     negative rho (up, down):  2.710E-02 2.510E-02

     total cpu time spent up to now is     1587.5 secs

     total energy              =    -583.94052757 Ry
     estimated scf accuracy    <       0.00000179 Ry

     total magnetization       =     1.00 Bohr mag/cell
     absolute magnetization    =     2.94 Bohr mag/cell

     iteration # 92     ecut=    58.80 Ry     beta= 0.30
     Davidson diagonalization with overlap
     ethr =  1.80E-09,  avg # of iterations =  5.0

     negative rho (up, down):  2.710E-02 2.510E-02

     total cpu time spent up to now is     1607.4 secs

     total energy              =    -583.94055243 Ry
     estimated scf accuracy    <       0.00000121 Ry

     total magnetization       =     1.00 Bohr mag/cell
     absolute magnetization    =     2.94 Bohr mag/cell

     iteration # 93     ecut=    58.80 Ry     beta= 0.30
     Davidson diagonalization with overlap
     ethr =  1.66E-09,  avg # of iterations =  4.5

     negative rho (up, down):  2.710E-02 2.510E-02

     total cpu time spent up to now is     1625.6 secs

     total energy              =    -583.94054866 Ry
     estimated scf accuracy    <       0.00000135 Ry

     total magnetization       =     1.00 Bohr mag/cell
     absolute magnetization    =     2.94 Bohr mag/cell

     iteration # 94     ecut=    58.80 Ry     beta= 0.30
     Davidson diagonalization with overlap
     ethr =  1.66E-09,  avg # of iterations =  5.0

     negative rho (up, down):  2.710E-02 2.510E-02

     total cpu time spent up to now is     1645.3 secs

     total energy              =    -583.94056445 Ry
     estimated scf accuracy    <       0.00000107 Ry

     total magnetization       =     1.00 Bohr mag/cell
     absolute magnetization    =     2.94 Bohr mag/cell

     iteration # 95     ecut=    58.80 Ry     beta= 0.30
     Davidson diagonalization with overlap
     ethr =  1.46E-09,  avg # of iterations =  4.5

     negative rho (up, down):  2.710E-02 2.509E-02

     total cpu time spent up to now is     1663.8 secs

     total energy              =    -583.94055262 Ry
     estimated scf accuracy    <       0.00000113 Ry

     total magnetization       =     1.00 Bohr mag/cell
     absolute magnetization    =     2.94 Bohr mag/cell

     iteration # 96     ecut=    58.80 Ry     beta= 0.30
     Davidson diagonalization with overlap
     ethr =  1.46E-09,  avg # of iterations =  5.5

     negative rho (up, down):  2.711E-02 2.509E-02

     total cpu time spent up to now is     1684.8 secs

     total energy              =    -583.94055635 Ry
     estimated scf accuracy    <       0.00000110 Ry

     total magnetization       =     1.00 Bohr mag/cell
     absolute magnetization    =     2.94 Bohr mag/cell

     iteration # 97     ecut=    58.80 Ry     beta= 0.30
     Davidson diagonalization with overlap
     ethr =  1.46E-09,  avg # of iterations =  5.5

     negative rho (up, down):  2.711E-02 2.509E-02

     Magnetic moment per site  (integrated on atomic sphere of radius R)
     atom   1 (R=0.028)  charge= 12.6933  magn=  1.4198
     atom   2 (R=0.014)  charge=  1.9591  magn= -0.0613
     atom   3 (R=0.014)  charge=  1.9545  magn= -0.0829
     atom   4 (R=0.014)  charge=  1.9601  magn= -0.0570
     atom   5 (R=0.014)  charge=  0.3861  magn=  0.0048
     atom   6 (R=0.016)  charge=  0.8129  magn= -0.0038
     atom   7 (R=0.014)  charge=  0.3857  magn=  0.0036
     atom   8 (R=0.016)  charge=  0.8128  magn= -0.0036
     atom   9 (R=0.014)  charge=  0.3867  magn=  0.0046
     atom  10 (R=0.016)  charge=  0.8106  magn= -0.0048
     atom  11 (R=0.014)  charge=  0.3902  magn= -0.0120
     atom  12 (R=0.014)  charge=  0.3928  magn= -0.0063
     atom  13 (R=0.016)  charge=  0.8587  magn= -0.0065
     atom  14 (R=0.014)  charge=  0.3837  magn= -0.0070
     atom  15 (R=0.014)  charge=  0.3685  magn= -0.0031
     atom  16 (R=0.014)  charge=  0.3858  magn= -0.0040
     atom  17 (R=0.014)  charge=  0.3924  magn= -0.0077
     atom  18 (R=0.016)  charge=  0.8593  magn= -0.0063
     atom  19 (R=0.014)  charge=  0.3852  magn= -0.0172
     atom  20 (R=0.014)  charge=  0.3844  magn= -0.0074
     atom  21 (R=0.014)  charge=  0.3828  magn= -0.0065
     atom  22 (R=0.014)  charge=  0.3675  magn= -0.0004
     atom  23 (R=0.014)  charge=  0.3896  magn= -0.0122
     atom  24 (R=0.014)  charge=  0.3953  magn= -0.0044
     atom  25 (R=0.016)  charge=  0.8586  magn= -0.0067
     atom  26 (R=0.014)  charge=  0.3842  magn= -0.0061
     atom  27 (R=0.014)  charge=  0.3693  magn= -0.0033
     atom  28 (R=0.014)  charge=  0.3869  magn= -0.0041

     total cpu time spent up to now is     1705.6 secs

     End of self-consistent calculation

     =================== HUBBARD OCCUPATIONS ===================
     ------------------------ ATOM    1 ------------------------
     Tr[ns(  1)] (up, down, total) =   3.96688  2.26173  6.22861
     Atomic magnetic moment for atom   1 =   1.70516
     SPIN  1
     eigenvalues:
       0.285  0.742  0.973  0.983  0.984
     eigenvectors (columns):
       0.430 -0.829  0.297  0.159  0.120
      -0.164 -0.077 -0.357  0.885 -0.237
       0.312 -0.235 -0.784 -0.364 -0.317
       0.340  0.207 -0.342  0.166  0.835
       0.759  0.457  0.230  0.176 -0.363
     occupation matrix ns (before diag.):
       0.687  0.035 -0.138 -0.060 -0.137
       0.035  0.961  0.029  0.041  0.096
      -0.138  0.029  0.896 -0.065 -0.137
      -0.060  0.041 -0.065  0.892 -0.202
      -0.137  0.096 -0.137 -0.202  0.531
     SPIN  2
     eigenvalues:
       0.044  0.112  0.127  0.987  0.992
     eigenvectors (columns):
      -0.260  0.233  0.026 -0.371  0.860
       0.286  0.388  0.775  0.388  0.125
       0.861  0.267 -0.331 -0.267  0.083
       0.286 -0.772  0.432 -0.343  0.135
      -0.166  0.357  0.320 -0.723 -0.468
     occupation matrix ns (before diag.):
       0.879 -0.026  0.165  0.218 -0.122
      -0.026  0.261 -0.102 -0.102 -0.290
       0.165 -0.102  0.131  0.071  0.143
       0.218 -0.102  0.071  0.228  0.167
      -0.122 -0.290  0.143  0.167  0.762

     Number of occupied Hubbard levels =    6.2286

 ------ SPIN UP ------------


          k = 0.0000 0.0000 0.0000 (****** PWs)   bands (ev):

  -102.8504 -69.4000 -69.0956 -68.2341 -34.4928 -34.3791 -34.3135 -26.3072
   -26.1200 -26.0700 -22.9707 -22.8417 -22.7242 -21.7178 -21.5963 -21.3067
   -19.9843 -19.6755 -19.3393 -18.9685 -18.7913 -18.7534 -18.0249 -17.7106
   -17.6189 -17.3473 -16.9526 -16.6710 -16.5347 -16.2108 -16.0985 -15.7549
   -15.5957 -15.4422 -15.3961 -15.1273 -15.1049

 ------ SPIN DOWN ----------


          k = 0.0000 0.0000 0.0000 (****** PWs)   bands (ev):

  -100.9372 -67.5449 -66.8538 -66.7084 -34.6984 -34.5486 -34.4580 -26.3489
   -26.1444 -26.1097 -22.9232 -22.8363 -22.7423 -21.3733 -21.1881 -20.8928
   -19.6070 -19.5583 -19.3291 -19.2199 -19.0730 -18.9352 -18.0308 -17.8506
   -17.0461 -16.6950 -16.4852 -16.3657 -15.9385 -15.8534 -15.7203 -15.6942
   -15.5938 -15.3497 -15.1705 -15.0675 -12.2420

     highest occupied, lowest unoccupied level (ev):   -15.0675  -12.2420

!    total energy              =    -583.94059453 Ry
     total all-electron energy =      -583.940595 Ry
     estimated scf accuracy    <       0.00000095 Ry

     The total energy is the sum of the following terms:
     one-electron contribution =   -1809.96229680 Ry
     hartree contribution      =     867.34572473 Ry
     xc contribution           =     -82.54482734 Ry
     ewald contribution        =     575.56768789 Ry
     Hubbard energy            =       0.10689981 Ry
     one-center paw contrib.   =    -134.45378281 Ry

     total magnetization       =     1.00 Bohr mag/cell
     absolute magnetization    =     2.94 Bohr mag/cell

     convergence has been achieved in  97 iterations

     negative rho (up, down):  2.711E-02 2.509E-02

     Forces acting on atoms (cartesian axes, Ry/au):

     atom    1 type  1   force =     0.00992757    0.00218277   -0.01227941
     atom    2 type  2   force =     0.00304130    0.04458200   -0.02122466
     atom    3 type  2   force =    -0.01295079   -0.04962890    0.03701710
     atom    4 type  2   force =     0.04075839   -0.00326860   -0.02142603
     atom    5 type  3   force =    -0.01431585   -0.00191982   -0.00832977
     atom    6 type  4   force =    -0.02046384   -0.02239669    0.00823429
     atom    7 type  3   force =    -0.01109045    0.01006909    0.00982907
     atom    8 type  4   force =    -0.02181291   -0.00826274    0.02564942
     atom    9 type  3   force =     0.00886331   -0.00334189    0.01341630
     atom   10 type  4   force =    -0.02886764    0.02487416   -0.03156515
     atom   11 type  3   force =     0.00473638   -0.00460656   -0.01174398
     atom   12 type  3   force =     0.01129011    0.00136181    0.00319600
     atom   13 type  4   force =     0.01371293   -0.00196062   -0.00061181
     atom   14 type  3   force =    -0.01235707    0.00220505   -0.00719572
     atom   15 type  3   force =     0.00163218    0.00668882   -0.00909045
     atom   16 type  3   force =    -0.00578443   -0.00020135    0.00994479
     atom   17 type  3   force =     0.01061511   -0.00738917   -0.00455703
     atom   18 type  4   force =     0.01762583   -0.00846951    0.00816749
     atom   19 type  3   force =     0.01109816    0.00331201    0.01416452
     atom   20 type  3   force =    -0.00739768    0.00237595   -0.01083554
     atom   21 type  3   force =    -0.01071284    0.00548194    0.00682654
     atom   22 type  3   force =    -0.00157799   -0.00609584    0.00602050
     atom   23 type  3   force =     0.00631837    0.01093332    0.00457283
     atom   24 type  3   force =    -0.00347898    0.00567535   -0.00822080
     atom   25 type  4   force =    -0.00163235    0.01029204   -0.00516859
     atom   26 type  3   force =     0.00921130   -0.00669189    0.00800282
     atom   27 type  3   force =     0.01061329    0.00320095   -0.00305787
     atom   28 type  3   force =    -0.00700141   -0.00900167    0.00026516

     Total force =     0.132765     Total SCF correction =     0.000315


     Computing stress (Cartesian axis) and pressure


     negative rho (up, down):  2.711E-02 2.509E-02
          total   stress  (Ry/bohr**3)                   (kbar)     P=        0.13
   0.00000172  -0.00000057  -0.00000006            0.25       -0.08       -0.01
  -0.00000057   0.00000029  -0.00000051           -0.08        0.04       -0.07
  -0.00000006  -0.00000051   0.00000067           -0.01       -0.07        0.10


     Writing all to output data dir ./out/Fe_EtOH_3_LowSpin.save/ :
     XML data file, charge density, pseudopotentials, collected wavefunctions

     init_run     :     26.21s CPU     26.86s WALL (       1 calls)
     electrons    :   1635.54s CPU   1678.17s WALL (       1 calls)
     forces       :    111.40s CPU    111.89s WALL (       1 calls)
     stress       :    387.23s CPU    388.08s WALL (       1 calls)

     Called by init_run:
     wfcinit      :     16.44s CPU     16.66s WALL (       1 calls)
     potinit      :      1.67s CPU      1.87s WALL (       1 calls)
     hinit0       :      1.86s CPU      1.90s WALL (       1 calls)

     Called by electrons:
     c_bands      :    805.81s CPU    812.88s WALL (      97 calls)
     sum_band     :    470.76s CPU    492.58s WALL (      97 calls)
     v_of_rho     :     83.56s CPU     83.73s WALL (      98 calls)
     newd         :    180.51s CPU    193.56s WALL (      98 calls)
     PAW_pot      :     65.71s CPU     65.71s WALL (      98 calls)
     mix_rho      :     29.87s CPU     29.95s WALL (      97 calls)

     Called by c_bands:
     init_us_2    :     25.25s CPU     25.28s WALL (     400 calls)
     cegterg      :    775.76s CPU    782.51s WALL (     194 calls)

     Called by *egterg:
     cdiaghg      :      4.86s CPU      4.87s WALL (    1020 calls)
     h_psi        :    607.06s CPU    609.51s WALL (    1022 calls)
     s_psi        :     60.58s CPU     60.75s WALL (    1032 calls)
     g_psi        :      2.22s CPU      2.23s WALL (     826 calls)

     Called by h_psi:
     h_psi:calbec :     60.38s CPU     60.40s WALL (    1022 calls)
     vloc_psi     :    476.64s CPU    477.08s WALL (    1022 calls)
     add_vuspsi   :     58.59s CPU     58.60s WALL (    1022 calls)
     vhpsi        :      8.74s CPU      8.75s WALL (    1022 calls)

     General routines
     calbec       :    178.12s CPU    178.19s WALL (    7850 calls)
     fft          :     55.23s CPU     55.51s WALL (    2100 calls)
     ffts         :      3.47s CPU      3.49s WALL (     194 calls)
     fftw         :    494.58s CPU    494.84s WALL (   52588 calls)

     Parallel routines

     Hubbard U routines
     new_ns       :      2.80s CPU      2.81s WALL (      97 calls)
     vhpsi        :      8.74s CPU      8.75s WALL (    1022 calls)
     force_hub    :    104.64s CPU    104.77s WALL (       1 calls)
                                        0.00s GPU  (       1 calls)
     stres_hub    :    350.01s CPU    350.24s WALL (       1 calls)
                                        0.00s GPU  (       1 calls)

     PWSCF        :  36m 2.68s CPU  36m53.94s WALL


   This run was terminated on:  12:55:29  30Mar2025            

=------------------------------------------------------------------------------=
   JOB DONE.
=------------------------------------------------------------------------------=

     Program PWSCF v.7.3.1 starts on 14Oct2025 at 16:27:56 

     This program is part of the open-source Quantum ESPRESSO suite
     for quantum simulation of materials; please cite
         "P. Giannozzi et al., J. Phys.:Condens. Matter 21 395502 (2009);
         "P. Giannozzi et al., J. Phys.:Condens. Matter 29 465901 (2017);
         "P. Giannozzi et al., J. Chem. Phys. 152 154105 (2020);
          URL http://www.quantum-espresso.org", 
     in publications or presentations arising from this work. More details at
     http://www.quantum-espresso.org/quote

     Parallel version (MPI), running on    28 processors

     MPI processes distributed on     1 nodes
     244389 MiB available memory on the printing compute node when the environment starts

     Reading input from Fe_EtOH_3_LowSpin.in

     Current dimensions of program PWSCF are:
     Max number of different atomic species (ntypx) = 10
     Max number of k-points (npk) =  40000
     Max angular momentum in pseudopotentials (lmaxx) =  4
read_pp_mesh; mismatch in mesh size, discarding the one in header
read_pp_mesh; mismatch in mesh size, discarding the one in header
read_pp_mesh; mismatch in mesh size, discarding the one in header
read_pp_mesh; mismatch in mesh size, discarding the one in header
     file Fe.GGA-PBE-paw.UPF: wavefunction(s)  4S 3P 4P 3D 4D renormalized
     file O.GGA-PBE-paw.UPF: wavefunction(s)  3S 2P 3P renormalized
     file H.GGA-PBE-paw.UPF: wavefunction(s)  2S 2P renormalized
     file C.GGA-PBE-paw.UPF: wavefunction(s)  3S 3P renormalized
     Message from routine setup:
     the system is metallic, specify occupations

     R & G space division:  proc/nbgrp/npool/nimage =      28
     Subspace diagonalization in iterative solution of the eigenvalue problem:
     a serial algorithm will be used


     Parallelization info
     --------------------
     sticks:   dense  smooth     PW     G-vecs:    dense   smooth      PW
     Min        1857    1857    464               303575   303575   37946
     Max        1858    1858    465               303580   303580   37950
     Sum       52017   52017  12997              8500173  8500173 1062547

     Using Slab Decomposition



     bravais-lattice index     =            0
     lattice parameter (alat)  =      52.6122  a.u.
     unit-cell volume          =  139542.7664 (a.u.)^3
     number of atoms/cell      =           28
     number of atomic types    =            4
     number of electrons       =        73.00 (up:  37.00, down:  36.00)
     number of Kohn-Sham states=           37
     kinetic-energy cutoff     =      58.8000  Ry
     charge density cutoff     =     235.2000  Ry
     scf convergence threshold =      1.0E-06
     mixing beta               =       0.3000
     number of iterations used =            8  plain     mixing
     Exchange-correlation= SLA PW PBX PBC
                           (   1   4   3   4   0   0   0)
     Hubbard projectors: ortho-atomic
     Hubbard parameters of DFT+U (Dudarev formulation) in eV:
     U(Fe-3d) =  4.0000

     Internal variables: lda_plus_u =T, lda_plus_u_kind = 0

     celldm(1)=  52.612241  celldm(2)=   0.000000  celldm(3)=   0.000000
     celldm(4)=   0.000000  celldm(5)=   0.000000  celldm(6)=   0.000000

     crystal axes: (cart. coord. in units of alat)
               a(1) = (   1.000000   0.000000   0.000000 )  
               a(2) = (   0.000000   1.004173   0.000000 )  
               a(3) = (   0.000000   0.000000   0.954198 )  

     reciprocal axes: (cart. coord. in units 2 pi/alat)
               b(1) = (  1.000000  0.000000  0.000000 )  
               b(2) = (  0.000000  0.995844  0.000000 )  
               b(3) = (  0.000000  0.000000  1.048001 )  


     PseudoPot. # 1 for Fe read from file:
     /work/e89/e89/phsmea/CASTEP_TO_QS_ARCHER/Fe.GGA-PBE-paw.UPF
     MD5 check sum: 2d46233e65fd0c9f60bb7b941dda812a
     Pseudo is Projector augmented-wave + core cor, Zval = 16.0
     Generated using ATOMPAW code
     Shape of augmentation charge: SINC**2
     Using radial grid of 2342 points,  6 beta functions with: 
                l(1) =   0
                l(2) =   0
                l(3) =   1
                l(4) =   1
                l(5) =   2
                l(6) =   2
     Q(r) pseudized with 0 coefficients 


     PseudoPot. # 2 for O  read from file:
     /work/e89/e89/phsmea/CASTEP_TO_QS_ARCHER/O.GGA-PBE-paw.UPF
     MD5 check sum: 75cebe6e27812ecd511c7c5e5b8738d8
     Pseudo is Projector augmented-wave + core cor, Zval =  6.0
     Generated using ATOMPAW code
     Shape of augmentation charge: SINC**2
     Using radial grid of 2342 points,  4 beta functions with: 
                l(1) =   0
                l(2) =   0
                l(3) =   1
                l(4) =   1
     Q(r) pseudized with 0 coefficients 


     PseudoPot. # 3 for H  read from file:
     /work/e89/e89/phsmea/CASTEP_TO_QS_ARCHER/H.GGA-PBE-paw.UPF
     MD5 check sum: b9d592600ff6b56d2e28875790887365
     Pseudo is Projector augmented-wave + core cor, Zval =  1.0
     Generated using ATOMPAW code
     Shape of augmentation charge: SINC**2
     Using radial grid of 2342 points,  3 beta functions with: 
                l(1) =   0
                l(2) =   0
                l(3) =   1
     Q(r) pseudized with 0 coefficients 


     PseudoPot. # 4 for C  read from file:
     /work/e89/e89/phsmea/CASTEP_TO_QS_ARCHER/C.GGA-PBE-paw.UPF
     MD5 check sum: 4aa9e32dab6042a76c944283fa01cc46
     Pseudo is Projector augmented-wave + core cor, Zval =  4.0
     Generated using ATOMPAW code
     Shape of augmentation charge: SINC**2
     Using radial grid of 2342 points,  4 beta functions with: 
                l(1) =   0
                l(2) =   0
                l(3) =   1
                l(4) =   1
     Q(r) pseudized with 0 coefficients 


     atomic species   valence    mass     pseudopotential
     Fe               16.00    55.84500     Fe( 1.00)
     O                 6.00    16.00000     O ( 1.00)
     H                 1.00     1.00800     H ( 1.00)
     C                 4.00    12.01100     C ( 1.00)

     Starting magnetic structure 
     atomic species   magnetization
     Fe              0.062
     O               0.000
     H               0.000
     C               0.000

     No symmetry found



   Cartesian axes

     site n.     atom                  positions (alat units)
         1        Fe     tau(   1) = (   0.4731795   0.4936033   0.4536223  )
         2        O      tau(   2) = (   0.4485081   0.5465446   0.4207990  )
         3        O      tau(   3) = (   0.4317938   0.4611703   0.4948999  )
         4        O      tau(   4) = (   0.5369389   0.4735319   0.4474933  )
         5        H      tau(   5) = (   0.4138269   0.5503047   0.4169346  )
         6        C      tau(   6) = (   0.5795487   0.4840553   0.4095145  )
         7        H      tau(   7) = (   0.4024991   0.4765834   0.5065634  )
         8        C      tau(   8) = (   0.4709140   0.5933291   0.3934057  )
         9        H      tau(   9) = (   0.5513062   0.4519894   0.4711675  )
        10        C      tau(  10) = (   0.4307281   0.4075943   0.5206491  )
        11        H      tau(  11) = (   0.4816638   0.5776349   0.3591799  )
        12        H      tau(  12) = (   0.5012264   0.6021808   0.4165067  )
        13        C      tau(  13) = (   0.4328952   0.6302519   0.3904766  )
        14        H      tau(  14) = (   0.4022549   0.6193502   0.3684441  )
        15        H      tau(  15) = (   0.4497250   0.6604355   0.3710945  )
        16        H      tau(  16) = (   0.4217483   0.6441853   0.4253662  )
        17        H      tau(  17) = (   0.4494062   0.3860445   0.4938737  )
        18        C      tau(  18) = (   0.3801155   0.3946258   0.5292807  )
        19        H      tau(  19) = (   0.4522033   0.4146779   0.5526202  )
        20        H      tau(  20) = (   0.3591799   0.3895186   0.4965642  )
        21        H      tau(  21) = (   0.3619709   0.4181067   0.5550066  )
        22        H      tau(  22) = (   0.3822005   0.3591799   0.5470081  )
        23        H      tau(  23) = (   0.5962006   0.5159095   0.4251003  )
        24        H      tau(  24) = (   0.5595344   0.4919013   0.3768221  )
        25        C      tau(  25) = (   0.6107492   0.4410723   0.4071265  )
        26        H      tau(  26) = (   0.6290297   0.4332691   0.4410124  )
        27        H      tau(  27) = (   0.6393899   0.4507243   0.3815531  )
        28        H      tau(  28) = (   0.5927649   0.4094136   0.3926755  )

     number of k points=     1
                       cart. coord. in units 2pi/alat
        k(    1) = (   0.0000000   0.0000000   0.0000000), wk =   1.0000000

     Dense  grid:  8500173 G-vectors     FFT dimensions: ( 270, 270, 250)

     Estimated max dynamical RAM per process >       1.57 GB

     Estimated total dynamical RAM >      43.92 GB
     Generating pointlists ...
     new r_m :   0.0276 (alat units)  1.4507 (a.u.) for type    1
     new r_m :   0.0145 (alat units)  0.7614 (a.u.) for type    2
     new r_m :   0.0145 (alat units)  0.7614 (a.u.) for type    3
     new r_m :   0.0161 (alat units)  0.8490 (a.u.) for type    4

     Initial potential from superposition of free atoms

     starting charge      75.9988, renormalised to      73.0000

     negative rho (up, down):  2.133E-02 1.941E-02

     STARTING HUBBARD OCCUPATIONS:

     =================== HUBBARD OCCUPATIONS ===================
     ------------------------ ATOM    1 ------------------------
     Tr[ns(  1)] (up, down, total) =   5.00000  2.00000  7.00000
     Atomic magnetic moment for atom   1 =   3.00000
     SPIN  1
     eigenvalues:
       1.000  1.000  1.000  1.000  1.000
     eigenvectors (columns):
       1.000  0.000  0.000  0.000  0.000
       0.000  1.000  0.000  0.000  0.000
       0.000  0.000  1.000  0.000  0.000
       0.000  0.000  0.000  1.000  0.000
       0.000  0.000  0.000  0.000  1.000
     occupation matrix ns (before diag.):
       1.000  0.000  0.000  0.000  0.000
       0.000  1.000  0.000  0.000  0.000
       0.000  0.000  1.000  0.000  0.000
       0.000  0.000  0.000  1.000  0.000
       0.000  0.000  0.000  0.000  1.000
     SPIN  2
     eigenvalues:
       0.400  0.400  0.400  0.400  0.400
     eigenvectors (columns):
       1.000  0.000  0.000  0.000  0.000
       0.000  1.000  0.000  0.000  0.000
       0.000  0.000  1.000  0.000  0.000
       0.000  0.000  0.000  1.000  0.000
       0.000  0.000  0.000  0.000  1.000
     occupation matrix ns (before diag.):
       0.400  0.000  0.000  0.000  0.000
       0.000  0.400  0.000  0.000  0.000
       0.000  0.000  0.400  0.000  0.000
       0.000  0.000  0.000  0.400  0.000
       0.000  0.000  0.000  0.000  0.400

     Number of occupied Hubbard levels =    7.0000

     Atomic wfc used for Hubbard projectors are orthogonalized

     Starting wfcs are  180 randomized atomic wfcs
     Checking if some PAW data can be deallocated... 

     total cpu time spent up to now is       27.6 secs

     per-process dynamical memory:   356.6 Mb

     Self-consistent Calculation

     iteration #  1     ecut=    58.80 Ry     beta= 0.30
     Davidson diagonalization with overlap
     ethr =  1.00E-02,  avg # of iterations =  2.0
