
     Program PWSCF v.7.3.1 starts on 30Mar2025 at 12:18:37 

     This program is part of the open-source Quantum ESPRESSO suite
     for quantum simulation of materials; please cite
         "P. Giannozzi et al., J. Phys.:Condens. Matter 21 395502 (2009);
         "P. Giannozzi et al., J. Phys.:Condens. Matter 29 465901 (2017);
         "P. Giannozzi et al., J. Chem. Phys. 152 154105 (2020);
          URL http://www.quantum-espresso.org", 
     in publications or presentations arising from this work. More details at
     http://www.quantum-espresso.org/quote

     Parallel version (MPI), running on    64 processors

     MPI processes distributed on     1 nodes
     244267 MiB available memory on the printing compute node when the environment starts

     Reading input from Fe_EtOH_3_HighSpin.in

     Current dimensions of program PWSCF are:
     Max number of different atomic species (ntypx) = 10
     Max number of k-points (npk) =  40000
     Max angular momentum in pseudopotentials (lmaxx) =  4
read_pp_mesh; mismatch in mesh size, discarding the one in header
read_pp_mesh; mismatch in mesh size, discarding the one in header
read_pp_mesh; mismatch in mesh size, discarding the one in header
     file Fe.GGA-PBE-paw.UPF: wavefunction(s)  4S 3P 4P 3D 4D renormalized
     file O.GGA-PBE-paw.UPF: wavefunction(s)  3S 2P 3P renormalized
     file H.GGA-PBE-paw.UPF: wavefunction(s)  2S 2P renormalized
     file C.GGA-PBE-paw.UPF: wavefunction(s)  3S 3P renormalized
     Message from routine setup:
     the system is metallic, specify occupations

     R & G space division:  proc/nbgrp/npool/nimage =      64
     Subspace diagonalization in iterative solution of the eigenvalue problem:
     a serial algorithm will be used


     Parallelization info
     --------------------
     sticks:   dense  smooth     PW     G-vecs:    dense   smooth      PW
     Min         812     812    203               132812   132812   16599
     Max         813     813    204               132817   132817   16603
     Sum       52017   52017  12997              8500173  8500173 1062547

     Using Slab Decomposition



     bravais-lattice index     =            0
     lattice parameter (alat)  =      52.6122  a.u.
     unit-cell volume          =  139542.7664 (a.u.)^3
     number of atoms/cell      =           28
     number of atomic types    =            4
     number of electrons       =        73.00 (up:  39.00, down:  34.00)
     number of Kohn-Sham states=           39
     kinetic-energy cutoff     =      58.8000  Ry
     charge density cutoff     =     235.2000  Ry
     scf convergence threshold =      1.0E-06
     mixing beta               =       0.3000
     number of iterations used =            8  plain     mixing
     Exchange-correlation= SLA PW PBX PBC
                           (   1   4   3   4   0   0   0)
     Hubbard projectors: ortho-atomic
     Hubbard parameters of DFT+U (Dudarev formulation) in eV:
     U(Fe-3d) =  4.0000

     Internal variables: lda_plus_u =T, lda_plus_u_kind = 0

     celldm(1)=  52.612241  celldm(2)=   0.000000  celldm(3)=   0.000000
     celldm(4)=   0.000000  celldm(5)=   0.000000  celldm(6)=   0.000000

     crystal axes: (cart. coord. in units of alat)
               a(1) = (   1.000000   0.000000   0.000000 )  
               a(2) = (   0.000000   1.004173   0.000000 )  
               a(3) = (   0.000000   0.000000   0.954198 )  

     reciprocal axes: (cart. coord. in units 2 pi/alat)
               b(1) = (  1.000000  0.000000  0.000000 )  
               b(2) = (  0.000000  0.995844  0.000000 )  
               b(3) = (  0.000000  0.000000  1.048001 )  


     PseudoPot. # 1 for Fe read from file:
     /work/e89/e89/phsmea/CASTEP_TO_QS_ARCHER/Fe.GGA-PBE-paw.UPF
     MD5 check sum: 89f6fde11583ee234fe819c830abe0a6
     Pseudo is Projector augmented-wave + core cor, Zval = 16.0
     Generated using ATOMPAW code
     Shape of augmentation charge: SINC**2
     Using radial grid of 2342 points,  6 beta functions with: 
                l(1) =   0
                l(2) =   0
                l(3) =   1
                l(4) =   1
                l(5) =   2
                l(6) =   2
     Q(r) pseudized with 0 coefficients 


     PseudoPot. # 2 for O  read from file:
     /work/e89/e89/phsmea/CASTEP_TO_QS_ARCHER/O.GGA-PBE-paw.UPF
     MD5 check sum: 75cebe6e27812ecd511c7c5e5b8738d8
     Pseudo is Projector augmented-wave + core cor, Zval =  6.0
     Generated using ATOMPAW code
     Shape of augmentation charge: SINC**2
     Using radial grid of 2342 points,  4 beta functions with: 
                l(1) =   0
                l(2) =   0
                l(3) =   1
                l(4) =   1
     Q(r) pseudized with 0 coefficients 


     PseudoPot. # 3 for H  read from file:
     /work/e89/e89/phsmea/CASTEP_TO_QS_ARCHER/H.GGA-PBE-paw.UPF
     MD5 check sum: b9d592600ff6b56d2e28875790887365
     Pseudo is Projector augmented-wave + core cor, Zval =  1.0
     Generated using ATOMPAW code
     Shape of augmentation charge: SINC**2
     Using radial grid of 2342 points,  3 beta functions with: 
                l(1) =   0
                l(2) =   0
                l(3) =   1
     Q(r) pseudized with 0 coefficients 


     PseudoPot. # 4 for C  read from file:
     /work/e89/e89/phsmea/CASTEP_TO_QS_ARCHER/C.GGA-PBE-paw.UPF
     MD5 check sum: 6449554384d65163c08b954f27925b11
     Pseudo is Projector augmented-wave + core cor, Zval =  4.0
     Generated using ATOMPAW code
     Shape of augmentation charge: SINC**2
     Using radial grid of 2342 points,  4 beta functions with: 
                l(1) =   0
                l(2) =   0
                l(3) =   1
                l(4) =   1
     Q(r) pseudized with 0 coefficients 


     atomic species   valence    mass     pseudopotential
     Fe               16.00    55.84500     Fe( 1.00)
     O                 6.00    16.00000     O ( 1.00)
     H                 1.00     1.00800     H ( 1.00)
     C                 4.00    12.01100     C ( 1.00)

     Starting magnetic structure 
     atomic species   magnetization
     Fe              0.312
     O               0.000
     H               0.000
     C               0.000

     No symmetry found



   Cartesian axes

     site n.     atom                  positions (alat units)
         1        Fe     tau(   1) = (   0.4731795   0.4936033   0.4536223  )
         2        O      tau(   2) = (   0.4485081   0.5465446   0.4207990  )
         3        O      tau(   3) = (   0.4317938   0.4611703   0.4948999  )
         4        O      tau(   4) = (   0.5369389   0.4735319   0.4474933  )
         5        H      tau(   5) = (   0.4138269   0.5503047   0.4169346  )
         6        C      tau(   6) = (   0.5795487   0.4840553   0.4095145  )
         7        H      tau(   7) = (   0.4024991   0.4765834   0.5065634  )
         8        C      tau(   8) = (   0.4709140   0.5933291   0.3934057  )
         9        H      tau(   9) = (   0.5513062   0.4519894   0.4711675  )
        10        C      tau(  10) = (   0.4307281   0.4075943   0.5206491  )
        11        H      tau(  11) = (   0.4816638   0.5776349   0.3591799  )
        12        H      tau(  12) = (   0.5012264   0.6021808   0.4165067  )
        13        C      tau(  13) = (   0.4328952   0.6302519   0.3904766  )
        14        H      tau(  14) = (   0.4022549   0.6193502   0.3684441  )
        15        H      tau(  15) = (   0.4497250   0.6604355   0.3710945  )
        16        H      tau(  16) = (   0.4217483   0.6441853   0.4253662  )
        17        H      tau(  17) = (   0.4494062   0.3860445   0.4938737  )
        18        C      tau(  18) = (   0.3801155   0.3946258   0.5292807  )
        19        H      tau(  19) = (   0.4522033   0.4146779   0.5526202  )
        20        H      tau(  20) = (   0.3591799   0.3895186   0.4965642  )
        21        H      tau(  21) = (   0.3619709   0.4181067   0.5550066  )
        22        H      tau(  22) = (   0.3822005   0.3591799   0.5470081  )
        23        H      tau(  23) = (   0.5962006   0.5159095   0.4251003  )
        24        H      tau(  24) = (   0.5595344   0.4919013   0.3768221  )
        25        C      tau(  25) = (   0.6107492   0.4410723   0.4071265  )
        26        H      tau(  26) = (   0.6290297   0.4332691   0.4410124  )
        27        H      tau(  27) = (   0.6393899   0.4507243   0.3815531  )
        28        H      tau(  28) = (   0.5927649   0.4094136   0.3926755  )

     number of k points=     1
                       cart. coord. in units 2pi/alat
        k(    1) = (   0.0000000   0.0000000   0.0000000), wk =   1.0000000

     Dense  grid:  8500173 G-vectors     FFT dimensions: ( 270, 270, 250)

     Estimated max dynamical RAM per process >     707.53 MB

     Estimated total dynamical RAM >      44.22 GB
     Generating pointlists ...
     new r_m :   0.0276 (alat units)  1.4507 (a.u.) for type    1
     new r_m :   0.0145 (alat units)  0.7614 (a.u.) for type    2
     new r_m :   0.0145 (alat units)  0.7614 (a.u.) for type    3
     new r_m :   0.0161 (alat units)  0.8490 (a.u.) for type    4

     Initial potential from superposition of free atoms

     starting charge      75.9988, renormalised to      73.0000

     negative rho (up, down):  2.535E-02 1.586E-02

     STARTING HUBBARD OCCUPATIONS:

     =================== HUBBARD OCCUPATIONS ===================
     ------------------------ ATOM    1 ------------------------
     Tr[ns(  1)] (up, down, total) =   5.00000  2.00000  7.00000
     Atomic magnetic moment for atom   1 =   3.00000
     SPIN  1
     eigenvalues:
       1.000  1.000  1.000  1.000  1.000
     eigenvectors (columns):
       1.000  0.000  0.000  0.000  0.000
       0.000  1.000  0.000  0.000  0.000
       0.000  0.000  1.000  0.000  0.000
       0.000  0.000  0.000  1.000  0.000
       0.000  0.000  0.000  0.000  1.000
     occupation matrix ns (before diag.):
       1.000  0.000  0.000  0.000  0.000
       0.000  1.000  0.000  0.000  0.000
       0.000  0.000  1.000  0.000  0.000
       0.000  0.000  0.000  1.000  0.000
       0.000  0.000  0.000  0.000  1.000
     SPIN  2
     eigenvalues:
       0.400  0.400  0.400  0.400  0.400
     eigenvectors (columns):
       1.000  0.000  0.000  0.000  0.000
       0.000  1.000  0.000  0.000  0.000
       0.000  0.000  1.000  0.000  0.000
       0.000  0.000  0.000  1.000  0.000
       0.000  0.000  0.000  0.000  1.000
     occupation matrix ns (before diag.):
       0.400  0.000  0.000  0.000  0.000
       0.000  0.400  0.000  0.000  0.000
       0.000  0.000  0.400  0.000  0.000
       0.000  0.000  0.000  0.400  0.000
       0.000  0.000  0.000  0.000  0.400

     Number of occupied Hubbard levels =    7.0000

     Atomic wfc used for Hubbard projectors are orthogonalized

     Starting wfcs are  180 randomized atomic wfcs
     Checking if some PAW data can be deallocated... 

     total cpu time spent up to now is       21.6 secs

     per-process dynamical memory:   176.8 Mb

     Self-consistent Calculation

     iteration #  1     ecut=    58.80 Ry     beta= 0.30
     Davidson diagonalization with overlap
     ethr =  1.00E-02,  avg # of iterations =  2.5

     =================== HUBBARD OCCUPATIONS ===================
     ------------------------ ATOM    1 ------------------------
     Tr[ns(  1)] (up, down, total) =   4.89158  0.52327  5.41485
     Atomic magnetic moment for atom   1 =   4.36831
     SPIN  1
     eigenvalues:
       0.976  0.977  0.977  0.981  0.982
     eigenvectors (columns):
       0.026 -0.537  0.834  0.120  0.018
       0.548 -0.199 -0.248  0.744 -0.212
      -0.364 -0.590 -0.401  0.142  0.582
      -0.594 -0.246 -0.140  0.113 -0.744
      -0.462  0.514  0.249  0.632  0.249
     occupation matrix ns (before diag.):
       0.977  0.000 -0.000 -0.000  0.000
       0.000  0.979  0.000  0.002  0.002
      -0.000  0.000  0.978 -0.002  0.001
      -0.000  0.002 -0.002  0.979 -0.001
       0.000  0.002  0.001 -0.001  0.978
     SPIN  2
     eigenvalues:
       0.061  0.076  0.087  0.127  0.171
     eigenvectors (columns):
      -0.677 -0.360 -0.098  0.619  0.141
       0.130 -0.304  0.777 -0.033  0.535
       0.689 -0.528 -0.276  0.411 -0.040
      -0.177 -0.534 -0.421 -0.641  0.310
       0.140  0.463 -0.366  0.189  0.772
     occupation matrix ns (before diag.):
       0.091  0.007  0.020 -0.018  0.018
       0.007  0.110 -0.006  0.014  0.036
       0.020 -0.006  0.079 -0.012  0.001
      -0.018  0.014 -0.012  0.108  0.019
       0.018  0.036  0.001  0.019  0.136

     Number of occupied Hubbard levels =    5.4149

     negative rho (up, down):  2.698E-02 1.724E-02

     total cpu time spent up to now is       31.2 secs

     total energy              =    -583.57648534 Ry
     estimated scf accuracy    <       6.76944650 Ry

     total magnetization       =     5.00 Bohr mag/cell
     absolute magnetization    =     5.06 Bohr mag/cell

     iteration #  2     ecut=    58.80 Ry     beta= 0.30
     Davidson diagonalization with overlap
     ethr =  9.27E-03,  avg # of iterations =  2.0

     negative rho (up, down):  2.759E-02 1.804E-02

     total cpu time spent up to now is       39.6 secs

     total energy              =    -583.26879185 Ry
     estimated scf accuracy    <       3.51946270 Ry

     total magnetization       =     5.00 Bohr mag/cell
     absolute magnetization    =     5.03 Bohr mag/cell

     iteration #  3     ecut=    58.80 Ry     beta= 0.30
     Davidson diagonalization with overlap
     ethr =  4.82E-03,  avg # of iterations =  1.5

     negative rho (up, down):  2.820E-02 1.853E-02

     total cpu time spent up to now is       47.6 secs

     total energy              =    -584.11307072 Ry
     estimated scf accuracy    <       1.41319173 Ry

     total magnetization       =     5.00 Bohr mag/cell
     absolute magnetization    =     5.12 Bohr mag/cell

     iteration #  4     ecut=    58.80 Ry     beta= 0.30
     Davidson diagonalization with overlap
     ethr =  1.94E-03,  avg # of iterations =  2.0

     negative rho (up, down):  2.911E-02 1.869E-02

     total cpu time spent up to now is       55.6 secs

     total energy              =    -583.92473557 Ry
     estimated scf accuracy    <       0.58139152 Ry

     total magnetization       =     5.00 Bohr mag/cell
     absolute magnetization    =     5.09 Bohr mag/cell

     iteration #  5     ecut=    58.80 Ry     beta= 0.30
     Davidson diagonalization with overlap
     ethr =  7.96E-04,  avg # of iterations =  3.0

     negative rho (up, down):  2.931E-02 1.899E-02

     total cpu time spent up to now is       64.4 secs

     total energy              =    -583.93027357 Ry
     estimated scf accuracy    <       3.23433882 Ry

     total magnetization       =     5.00 Bohr mag/cell
     absolute magnetization    =     5.05 Bohr mag/cell

     iteration #  6     ecut=    58.80 Ry     beta= 0.30
     Davidson diagonalization with overlap
     ethr =  7.96E-04,  avg # of iterations =  1.0

     negative rho (up, down):  3.039E-02 1.952E-02

     total cpu time spent up to now is       72.3 secs

     total energy              =    -584.06261814 Ry
     estimated scf accuracy    <       0.03333756 Ry

     total magnetization       =     5.00 Bohr mag/cell
     absolute magnetization    =     5.05 Bohr mag/cell

     iteration #  7     ecut=    58.80 Ry     beta= 0.30
     Davidson diagonalization with overlap
     ethr =  4.57E-05,  avg # of iterations =  3.0

     negative rho (up, down):  3.057E-02 1.960E-02

     total cpu time spent up to now is       81.6 secs

     total energy              =    -584.08103769 Ry
     estimated scf accuracy    <       0.12151372 Ry

     total magnetization       =     5.00 Bohr mag/cell
     absolute magnetization    =     5.05 Bohr mag/cell

     iteration #  8     ecut=    58.80 Ry     beta= 0.30
     Davidson diagonalization with overlap
     ethr =  4.57E-05,  avg # of iterations =  1.0

     negative rho (up, down):  3.075E-02 1.963E-02

     total cpu time spent up to now is       89.5 secs

     total energy              =    -584.06989413 Ry
     estimated scf accuracy    <       0.10627026 Ry

     total magnetization       =     5.00 Bohr mag/cell
     absolute magnetization    =     5.05 Bohr mag/cell

     iteration #  9     ecut=    58.80 Ry     beta= 0.30
     Davidson diagonalization with overlap
     ethr =  4.57E-05,  avg # of iterations =  1.0

     negative rho (up, down):  3.079E-02 1.960E-02

     total cpu time spent up to now is       97.5 secs

     total energy              =    -584.07025041 Ry
     estimated scf accuracy    <       0.04862229 Ry

     total magnetization       =     5.00 Bohr mag/cell
     absolute magnetization    =     5.05 Bohr mag/cell

     iteration # 10     ecut=    58.80 Ry     beta= 0.30
     Davidson diagonalization with overlap
     ethr =  4.57E-05,  avg # of iterations =  1.0

     negative rho (up, down):  3.089E-02 1.958E-02

     total cpu time spent up to now is      105.4 secs

     total energy              =    -584.06982017 Ry
     estimated scf accuracy    <       0.03716815 Ry

     total magnetization       =     5.00 Bohr mag/cell
     absolute magnetization    =     5.05 Bohr mag/cell

     iteration # 11     ecut=    58.80 Ry     beta= 0.30
     Davidson diagonalization with overlap
     ethr =  4.57E-05,  avg # of iterations =  1.0

     negative rho (up, down):  3.094E-02 1.958E-02

     total cpu time spent up to now is      113.4 secs

     total energy              =    -584.07012923 Ry
     estimated scf accuracy    <       0.02946942 Ry

     total magnetization       =     5.00 Bohr mag/cell
     absolute magnetization    =     5.05 Bohr mag/cell

     iteration # 12     ecut=    58.80 Ry     beta= 0.30
     Davidson diagonalization with overlap
     ethr =  4.04E-05,  avg # of iterations =  1.0

     negative rho (up, down):  3.105E-02 1.947E-02

     total cpu time spent up to now is      121.3 secs

     total energy              =    -584.06811441 Ry
     estimated scf accuracy    <       0.02778945 Ry

     total magnetization       =     5.00 Bohr mag/cell
     absolute magnetization    =     5.05 Bohr mag/cell

     iteration # 13     ecut=    58.80 Ry     beta= 0.30
     Davidson diagonalization with overlap
     ethr =  3.81E-05,  avg # of iterations =  1.0

     negative rho (up, down):  3.103E-02 1.948E-02

     total cpu time spent up to now is      129.3 secs

     total energy              =    -584.06896436 Ry
     estimated scf accuracy    <       0.00898074 Ry

     total magnetization       =     5.00 Bohr mag/cell
     absolute magnetization    =     5.04 Bohr mag/cell

     iteration # 14     ecut=    58.80 Ry     beta= 0.30
     Davidson diagonalization with overlap
     ethr =  1.23E-05,  avg # of iterations =  1.0

     negative rho (up, down):  3.125E-02 1.934E-02

     total cpu time spent up to now is      137.2 secs

     total energy              =    -584.06678512 Ry
     estimated scf accuracy    <       0.01073683 Ry

     total magnetization       =     5.00 Bohr mag/cell
     absolute magnetization    =     5.04 Bohr mag/cell

     iteration # 15     ecut=    58.80 Ry     beta= 0.30
     Davidson diagonalization with overlap
     ethr =  1.23E-05,  avg # of iterations =  2.0

     negative rho (up, down):  3.127E-02 1.935E-02

     total cpu time spent up to now is      145.5 secs

     total energy              =    -584.06956338 Ry
     estimated scf accuracy    <       0.00306347 Ry

     total magnetization       =     5.00 Bohr mag/cell
     absolute magnetization    =     5.04 Bohr mag/cell

     iteration # 16     ecut=    58.80 Ry     beta= 0.30
     Davidson diagonalization with overlap
     ethr =  4.20E-06,  avg # of iterations =  1.0

     negative rho (up, down):  3.126E-02 1.934E-02

     total cpu time spent up to now is      153.5 secs

     total energy              =    -584.06962712 Ry
     estimated scf accuracy    <       0.00358536 Ry

     total magnetization       =     5.00 Bohr mag/cell
     absolute magnetization    =     5.04 Bohr mag/cell

     iteration # 17     ecut=    58.80 Ry     beta= 0.30
     Davidson diagonalization with overlap
     ethr =  4.20E-06,  avg # of iterations =  1.0

     negative rho (up, down):  3.126E-02 1.936E-02

     total cpu time spent up to now is      161.4 secs

     total energy              =    -584.06969168 Ry
     estimated scf accuracy    <       0.00481089 Ry

     total magnetization       =     5.00 Bohr mag/cell
     absolute magnetization    =     5.04 Bohr mag/cell

     iteration # 18     ecut=    58.80 Ry     beta= 0.30
     Davidson diagonalization with overlap
     ethr =  4.20E-06,  avg # of iterations =  1.0

     negative rho (up, down):  3.118E-02 1.936E-02

     total cpu time spent up to now is      169.3 secs

     total energy              =    -584.06938343 Ry
     estimated scf accuracy    <       0.00450426 Ry

     total magnetization       =     5.00 Bohr mag/cell
     absolute magnetization    =     5.04 Bohr mag/cell

     iteration # 19     ecut=    58.80 Ry     beta= 0.30
     Davidson diagonalization with overlap
     ethr =  4.20E-06,  avg # of iterations =  1.0

     negative rho (up, down):  3.117E-02 1.935E-02

     total cpu time spent up to now is      177.3 secs

     total energy              =    -584.06950674 Ry
     estimated scf accuracy    <       0.00172653 Ry

     total magnetization       =     5.00 Bohr mag/cell
     absolute magnetization    =     5.04 Bohr mag/cell

     iteration # 20     ecut=    58.80 Ry     beta= 0.30
     Davidson diagonalization with overlap
     ethr =  2.37E-06,  avg # of iterations =  1.0

     negative rho (up, down):  3.110E-02 1.934E-02

     total cpu time spent up to now is      185.2 secs

     total energy              =    -584.06944662 Ry
     estimated scf accuracy    <       0.00192532 Ry

     total magnetization       =     5.00 Bohr mag/cell
     absolute magnetization    =     5.04 Bohr mag/cell

     iteration # 21     ecut=    58.80 Ry     beta= 0.30
     Davidson diagonalization with overlap
     ethr =  2.37E-06,  avg # of iterations =  1.0

     negative rho (up, down):  3.108E-02 1.934E-02

     total cpu time spent up to now is      193.2 secs

     total energy              =    -584.06942400 Ry
     estimated scf accuracy    <       0.00098073 Ry

     total magnetization       =     5.00 Bohr mag/cell
     absolute magnetization    =     5.04 Bohr mag/cell

     iteration # 22     ecut=    58.80 Ry     beta= 0.30
     Davidson diagonalization with overlap
     ethr =  1.34E-06,  avg # of iterations =  1.0

     negative rho (up, down):  3.105E-02 1.933E-02

     total cpu time spent up to now is      201.1 secs

     total energy              =    -584.06936069 Ry
     estimated scf accuracy    <       0.00047097 Ry

     total magnetization       =     5.00 Bohr mag/cell
     absolute magnetization    =     5.04 Bohr mag/cell

     iteration # 23     ecut=    58.80 Ry     beta= 0.30
     Davidson diagonalization with overlap
     ethr =  6.45E-07,  avg # of iterations =  2.5

     negative rho (up, down):  3.107E-02 1.933E-02

     total cpu time spent up to now is      209.4 secs

     total energy              =    -584.06940485 Ry
     estimated scf accuracy    <       0.00002810 Ry

     total magnetization       =     5.00 Bohr mag/cell
     absolute magnetization    =     5.04 Bohr mag/cell

     iteration # 24     ecut=    58.80 Ry     beta= 0.30
     Davidson diagonalization with overlap
     ethr =  3.85E-08,  avg # of iterations =  3.0

     negative rho (up, down):  3.107E-02 1.934E-02

     total cpu time spent up to now is      218.3 secs

     total energy              =    -584.06941651 Ry
     estimated scf accuracy    <       0.00000827 Ry

     total magnetization       =     5.00 Bohr mag/cell
     absolute magnetization    =     5.04 Bohr mag/cell

     iteration # 25     ecut=    58.80 Ry     beta= 0.30
     Davidson diagonalization with overlap
     ethr =  1.13E-08,  avg # of iterations =  2.0

     negative rho (up, down):  3.108E-02 1.935E-02

     total cpu time spent up to now is      226.9 secs

     total energy              =    -584.06942299 Ry
     estimated scf accuracy    <       0.00000844 Ry

     total magnetization       =     5.00 Bohr mag/cell
     absolute magnetization    =     5.04 Bohr mag/cell

     iteration # 26     ecut=    58.80 Ry     beta= 0.30
     Davidson diagonalization with overlap
     ethr =  1.13E-08,  avg # of iterations =  1.5

     negative rho (up, down):  3.108E-02 1.935E-02

     total cpu time spent up to now is      235.0 secs

     total energy              =    -584.06942718 Ry
     estimated scf accuracy    <       0.00000327 Ry

     total magnetization       =     5.00 Bohr mag/cell
     absolute magnetization    =     5.04 Bohr mag/cell

     iteration # 27     ecut=    58.80 Ry     beta= 0.30
     Davidson diagonalization with overlap
     ethr =  4.48E-09,  avg # of iterations =  3.0

     negative rho (up, down):  3.108E-02 1.935E-02

     total cpu time spent up to now is      244.1 secs

     total energy              =    -584.06943137 Ry
     estimated scf accuracy    <       0.00000191 Ry

     total magnetization       =     5.00 Bohr mag/cell
     absolute magnetization    =     5.04 Bohr mag/cell

     iteration # 28     ecut=    58.80 Ry     beta= 0.30
     Davidson diagonalization with overlap
     ethr =  2.61E-09,  avg # of iterations =  1.5

     negative rho (up, down):  3.108E-02 1.936E-02

     total cpu time spent up to now is      252.3 secs

     total energy              =    -584.06943427 Ry
     estimated scf accuracy    <       0.00000125 Ry

     total magnetization       =     5.00 Bohr mag/cell
     absolute magnetization    =     5.04 Bohr mag/cell

     iteration # 29     ecut=    58.80 Ry     beta= 0.30
     Davidson diagonalization with overlap
     ethr =  1.72E-09,  avg # of iterations =  2.5

     negative rho (up, down):  3.108E-02 1.936E-02

     Magnetic moment per site  (integrated on atomic sphere of radius R)
     atom   1 (R=0.028)  charge= 12.5912  magn=  3.5228
     atom   2 (R=0.014)  charge=  1.9609  magn=  0.0750
     atom   3 (R=0.014)  charge=  1.9581  magn=  0.0772
     atom   4 (R=0.014)  charge=  1.9611  magn=  0.0755
     atom   5 (R=0.014)  charge=  0.3836  magn=  0.0036
     atom   6 (R=0.016)  charge=  0.8133  magn=  0.0065
     atom   7 (R=0.014)  charge=  0.3839  magn=  0.0038
     atom   8 (R=0.016)  charge=  0.8132  magn=  0.0059
     atom   9 (R=0.014)  charge=  0.3844  magn=  0.0033
     atom  10 (R=0.016)  charge=  0.8113  magn=  0.0054
     atom  11 (R=0.014)  charge=  0.3928  magn=  0.0073
     atom  12 (R=0.014)  charge=  0.3945  magn=  0.0040
     atom  13 (R=0.016)  charge=  0.8589  magn=  0.0040
     atom  14 (R=0.014)  charge=  0.3866  magn=  0.0013
     atom  15 (R=0.014)  charge=  0.3686  magn=  0.0039
     atom  16 (R=0.014)  charge=  0.3873  magn=  0.0016
     atom  17 (R=0.014)  charge=  0.3962  magn=  0.0025
     atom  18 (R=0.016)  charge=  0.8593  magn=  0.0044
     atom  19 (R=0.014)  charge=  0.3919  magn=  0.0063
     atom  20 (R=0.014)  charge=  0.3882  magn=  0.0011
     atom  21 (R=0.014)  charge=  0.3860  magn=  0.0010
     atom  22 (R=0.014)  charge=  0.3663  magn=  0.0049
     atom  23 (R=0.014)  charge=  0.3914  magn=  0.0085
     atom  24 (R=0.014)  charge=  0.3961  magn=  0.0032
     atom  25 (R=0.016)  charge=  0.8588  magn=  0.0050
     atom  26 (R=0.014)  charge=  0.3863  magn=  0.0016
     atom  27 (R=0.014)  charge=  0.3692  magn=  0.0043
     atom  28 (R=0.014)  charge=  0.3883  magn=  0.0016

     total cpu time spent up to now is      260.8 secs

     End of self-consistent calculation

     =================== HUBBARD OCCUPATIONS ===================
     ------------------------ ATOM    1 ------------------------
     Tr[ns(  1)] (up, down, total) =   4.90475  1.03475  5.93949
     Atomic magnetic moment for atom   1 =   3.87000
     SPIN  1
     eigenvalues:
       0.975  0.981  0.982  0.983  0.984
     eigenvectors (columns):
       0.367 -0.208  0.650 -0.018  0.631
      -0.300 -0.558 -0.113 -0.761  0.084
      -0.744 -0.139  0.557  0.293 -0.179
      -0.317 -0.224 -0.502  0.434  0.639
       0.350 -0.758 -0.049  0.383 -0.392
     occupation matrix ns (before diag.):
       0.982  0.001  0.002  0.002 -0.002
       0.001  0.982 -0.002 -0.001 -0.000
       0.002 -0.002  0.978 -0.002  0.002
       0.002 -0.001 -0.002  0.982  0.000
      -0.002 -0.000  0.002  0.000  0.981
     SPIN  2
     eigenvalues:
       0.058  0.113  0.188  0.298  0.377
     eigenvectors (columns):
       0.379 -0.137 -0.055  0.912 -0.058
      -0.372 -0.210 -0.810  0.099  0.389
      -0.810  0.294  0.215  0.377 -0.263
      -0.142 -0.781 -0.032 -0.098 -0.600
       0.204  0.491 -0.542 -0.085 -0.645
     occupation matrix ns (before diag.):
       0.260  0.022  0.083 -0.004 -0.006
       0.022  0.197 -0.050 -0.064 -0.031
       0.083 -0.050  0.125  0.028  0.039
      -0.004 -0.064  0.028  0.209  0.107
      -0.006 -0.031  0.039  0.107  0.244

     Number of occupied Hubbard levels =    5.9395

 ------ SPIN UP ------------


          k = 0.0000 0.0000 0.0000 (****** PWs)   bands (ev):

  -106.4526 -72.5247 -72.4888 -72.3055 -35.0753 -34.9154 -34.7999 -26.2652
   -26.1679 -26.1647 -23.5305 -23.2821 -22.8244 -22.7219 -22.5000 -22.3694
   -21.7933 -21.6748 -20.5906 -20.3104 -19.8619 -19.4972 -19.0771 -18.9804
   -18.8559 -18.5228 -18.4024 -17.1564 -16.8812 -16.7870 -16.2949 -16.2593
   -16.1591 -15.6780 -15.5798 -15.4817 -15.1525 -15.0898 -15.0781

 ------ SPIN DOWN ----------


          k = 0.0000 0.0000 0.0000 (****** PWs)   bands (ev):

  -101.8157 -68.0532 -67.8664 -67.8055 -34.7355 -34.5746 -34.4399 -26.1555
   -26.0971 -26.0703 -22.9392 -22.8267 -22.6971 -21.5698 -21.2084 -21.1255
   -19.6579 -19.4282 -19.3525 -18.9054 -18.8881 -18.7578 -17.2437 -17.0327
   -16.8956 -16.3627 -16.3358 -16.2333 -15.6633 -15.6064 -15.5791 -15.1771
   -15.0994 -15.0662 -14.3179 -14.0393 -13.4788 -13.2172 -13.0581

     highest occupied, lowest unoccupied level (ev):   -15.0662  -14.3179

!    total energy              =    -584.06943660 Ry
     total all-electron energy =      -584.069437 Ry
     estimated scf accuracy    <       0.00000088 Ry

     The total energy is the sum of the following terms:
     one-electron contribution =   -1807.44694776 Ry
     hartree contribution      =     864.79635503 Ry
     xc contribution           =     -82.69182246 Ry
     ewald contribution        =     575.56768789 Ry
     Hubbard energy            =       0.12429443 Ry
     one-center paw contrib.   =    -134.41900373 Ry

     total magnetization       =     5.00 Bohr mag/cell
     absolute magnetization    =     5.04 Bohr mag/cell

     convergence has been achieved in  29 iterations

     negative rho (up, down):  3.108E-02 1.936E-02

     Forces acting on atoms (cartesian axes, Ry/au):

     atom    1 type  1   force =     0.00056634    0.00002523   -0.00096637
     atom    2 type  2   force =     0.00621881    0.01938198   -0.01368324
     atom    3 type  2   force =    -0.00413888   -0.02193972    0.01287759
     atom    4 type  2   force =     0.02048292    0.00311584   -0.01346776
     atom    5 type  3   force =    -0.01660887    0.00169907   -0.00178718
     atom    6 type  4   force =    -0.00392174   -0.01219822    0.00279357
     atom    7 type  3   force =    -0.01327015    0.00770673    0.00593347
     atom    8 type  4   force =    -0.01177749    0.00076380    0.00747867
     atom    9 type  3   force =     0.00724677   -0.01051415    0.01167603
     atom   10 type  4   force =    -0.00705858    0.00572076   -0.00482387
     atom   11 type  3   force =     0.00408591   -0.00417364   -0.00910670
     atom   12 type  3   force =     0.00878610    0.00138226    0.00442818
     atom   13 type  4   force =     0.00464978   -0.00362570    0.00007928
     atom   14 type  3   force =    -0.00745564   -0.00092075   -0.00500253
     atom   15 type  3   force =     0.00270839    0.00714691   -0.00473805
     atom   16 type  3   force =    -0.00283893    0.00342054    0.00763560
     atom   17 type  3   force =     0.00561613   -0.00499993   -0.00531596
     atom   18 type  4   force =     0.00397077    0.00203172   -0.00143161
     atom   19 type  3   force =     0.00585716    0.00113876    0.00798463
     atom   20 type  3   force =    -0.00477951   -0.00122837   -0.00680260
     atom   21 type  3   force =    -0.00502414    0.00414904    0.00602158
     atom   22 type  3   force =    -0.00050951   -0.00788277    0.00477160
     atom   23 type  3   force =     0.00491177    0.00953303    0.00381667
     atom   24 type  3   force =    -0.00466185    0.00420179   -0.00756493
     atom   25 type  4   force =    -0.00247782    0.00430870    0.00011495
     atom   26 type  3   force =     0.00581363   -0.00317799    0.00682244
     atom   27 type  3   force =     0.00780881    0.00218856   -0.00506866
     atom   28 type  3   force =    -0.00420018   -0.00725350   -0.00267478

     Total force =     0.068151     Total SCF correction =     0.000866


     Computing stress (Cartesian axis) and pressure


     negative rho (up, down):  3.108E-02 1.936E-02
          total   stress  (Ry/bohr**3)                   (kbar)     P=        0.08
   0.00000108  -0.00000039  -0.00000011            0.16       -0.06       -0.02
  -0.00000039   0.00000033  -0.00000050           -0.06        0.05       -0.07
  -0.00000011  -0.00000050   0.00000033           -0.02       -0.07        0.05


     Writing all to output data dir ./out/Fe_EtOH_3_HighSpin.save/ :
     XML data file, charge density, pseudopotentials, collected wavefunctions

     init_run     :     19.63s CPU     20.29s WALL (       1 calls)
     electrons    :    230.01s CPU    240.63s WALL (       1 calls)
     forces       :     54.08s CPU     54.48s WALL (       1 calls)
     stress       :    181.87s CPU    182.57s WALL (       1 calls)

     Called by init_run:
     wfcinit      :      9.56s CPU      9.77s WALL (       1 calls)
     potinit      :      0.99s CPU      1.12s WALL (       1 calls)
     hinit0       :      1.10s CPU      1.14s WALL (       1 calls)

     Called by electrons:
     c_bands      :     92.54s CPU     94.04s WALL (      29 calls)
     sum_band     :     78.17s CPU     83.89s WALL (      29 calls)
     v_of_rho     :     15.49s CPU     15.61s WALL (      30 calls)
     newd         :     28.58s CPU     31.16s WALL (      30 calls)
     PAW_pot      :      9.41s CPU      9.43s WALL (      30 calls)
     mix_rho      :      6.56s CPU      6.59s WALL (      29 calls)

     Called by c_bands:
     init_us_2    :      7.07s CPU      7.10s WALL (     128 calls)
     cegterg      :     85.92s CPU     87.32s WALL (      58 calls)

     Called by *egterg:
     cdiaghg      :      0.53s CPU      0.53s WALL (     152 calls)
     h_psi        :     76.56s CPU     77.18s WALL (     154 calls)
     s_psi        :      7.00s CPU      7.01s WALL (     164 calls)
     g_psi        :      0.19s CPU      0.20s WALL (      94 calls)

     Called by h_psi:
     h_psi:calbec :      6.10s CPU      6.10s WALL (     154 calls)
     vloc_psi     :     63.03s CPU     63.15s WALL (     154 calls)
     add_vuspsi   :      5.82s CPU      5.83s WALL (     154 calls)
     vhpsi        :      1.14s CPU      1.14s WALL (     154 calls)

     General routines
     calbec       :     54.55s CPU     54.66s WALL (    5842 calls)
     fft          :     12.84s CPU     13.03s WALL (     672 calls)
     ffts         :      0.65s CPU      0.67s WALL (      58 calls)
     fftw         :     68.87s CPU     68.96s WALL (   12868 calls)

     Parallel routines

     Hubbard U routines
     new_ns       :      0.81s CPU      0.81s WALL (      29 calls)
     vhpsi        :      1.14s CPU      1.14s WALL (     154 calls)
     force_hub    :     50.23s CPU     50.38s WALL (       1 calls)
                                        0.00s GPU  (       1 calls)
     stres_hub    :    163.74s CPU    163.99s WALL (       1 calls)
                                        0.00s GPU  (       1 calls)

     PWSCF        :   8m 8.14s CPU   8m28.50s WALL


   This run was terminated on:  12:27: 6  30Mar2025            

=------------------------------------------------------------------------------=
   JOB DONE.
=------------------------------------------------------------------------------=

     Program PWSCF v.7.3.1 starts on 14Oct2025 at 16:27:57 

     This program is part of the open-source Quantum ESPRESSO suite
     for quantum simulation of materials; please cite
         "P. Giannozzi et al., J. Phys.:Condens. Matter 21 395502 (2009);
         "P. Giannozzi et al., J. Phys.:Condens. Matter 29 465901 (2017);
         "P. Giannozzi et al., J. Chem. Phys. 152 154105 (2020);
          URL http://www.quantum-espresso.org", 
     in publications or presentations arising from this work. More details at
     http://www.quantum-espresso.org/quote

     Parallel version (MPI), running on    64 processors

     MPI processes distributed on     1 nodes
     243859 MiB available memory on the printing compute node when the environment starts

     Reading input from Fe_EtOH_3_HighSpin.in


     Program PWSCF v.7.3.1 starts on 14Oct2025 at 16:27:57 
     Current dimensions of program PWSCF are:

     Max number of different atomic species (ntypx) = 10
     This program is part of the open-source Quantum ESPRESSO suite
     Max number of k-points (npk) =  40000
     for quantum simulation of materials; please cite
     Max angular momentum in pseudopotentials (lmaxx) =  4
         "P. Giannozzi et al., J. Phys.:Condens. Matter 21 395502 (2009);
         "P. Giannozzi et al., J. Phys.:Condens. Matter 29 465901 (2017);
         "P. Giannozzi et al., J. Chem. Phys. 152 154105 (2020);
          URL http://www.quantum-espresso.org", 
     in publications or presentations arising from this work. More details at
     http://www.quantum-espresso.org/quote

     Parallel version (MPI), running on    64 processors

     MPI processes distributed on     1 nodes
     242721 MiB available memory on the printing compute node when the environment starts

     Reading input from Fe_EtOH_3_HighSpin.in

     Current dimensions of program PWSCF are:
     Max number of different atomic species (ntypx) = 10
     Max number of k-points (npk) =  40000
     Max angular momentum in pseudopotentials (lmaxx) =  4
read_pp_mesh; mismatch in mesh size, discarding the one in header
read_pp_mesh; mismatch in mesh size, discarding the one in header
read_pp_mesh; mismatch in mesh size, discarding the one in header
read_pp_mesh; mismatch in mesh size, discarding the one in header
read_pp_mesh; mismatch in mesh size, discarding the one in header
read_pp_mesh; mismatch in mesh size, discarding the one in header
read_pp_mesh; mismatch in mesh size, discarding the one in header
     file Fe.GGA-PBE-paw.UPF: wavefunction(s)  4S 3P 4P 3D 4D renormalized
     file O.GGA-PBE-paw.UPF: wavefunction(s)  3S 2P 3P renormalized
     file H.GGA-PBE-paw.UPF: wavefunction(s)  2S 2P renormalized
     file C.GGA-PBE-paw.UPF: wavefunction(s)  3S 3P renormalized
     Message from routine setup:
     the system is metallic, specify occupations
read_pp_mesh; mismatch in mesh size, discarding the one in header

     R & G space division:  proc/nbgrp/npool/nimage =      64
     Subspace diagonalization in iterative solution of the eigenvalue problem:
     a serial algorithm will be used


     Parallelization info
     --------------------
     sticks:   dense  smooth     PW     G-vecs:    dense   smooth      PW
     Min         812     812    203               132812   132812   16599
     Max         813     813    204               132817   132817   16603
     Sum       52017   52017  12997              8500173  8500173 1062547

     Using Slab Decomposition



     bravais-lattice index     =            0
     lattice parameter (alat)  =      52.6122  a.u.
     unit-cell volume          =  139542.7664 (a.u.)^3
     number of atoms/cell      =           28
     number of atomic types    =            4
     number of electrons       =        73.00 (up:  39.00, down:  34.00)
     number of Kohn-Sham states=           39
     kinetic-energy cutoff     =      58.8000  Ry
     charge density cutoff     =     235.2000  Ry
     scf convergence threshold =      1.0E-06
     mixing beta               =       0.3000
     number of iterations used =            8  plain     mixing
     Exchange-correlation= SLA PW PBX PBC
                           (   1   4   3   4   0   0   0)
     Hubbard projectors: ortho-atomic
     Hubbard parameters of DFT+U (Dudarev formulation) in eV:
     U(Fe-3d) =  4.0000

     Internal variables: lda_plus_u =T, lda_plus_u_kind = 0

     celldm(1)=  52.612241  celldm(2)=   0.000000  celldm(3)=   0.000000
     celldm(4)=   0.000000  celldm(5)=   0.000000  celldm(6)=   0.000000

     crystal axes: (cart. coord. in units of alat)
               a(1) = (   1.000000   0.000000   0.000000 )  
               a(2) = (   0.000000   1.004173   0.000000 )  
               a(3) = (   0.000000   0.000000   0.954198 )  

     reciprocal axes: (cart. coord. in units 2 pi/alat)
               b(1) = (  1.000000  0.000000  0.000000 )  
               b(2) = (  0.000000  0.995844  0.000000 )  
               b(3) = (  0.000000  0.000000  1.048001 )  


     PseudoPot. # 1 for Fe read from file:
     /work/e89/e89/phsmea/CASTEP_TO_QS_ARCHER/Fe.GGA-PBE-paw.UPF
     MD5 check sum: 2d46233e65fd0c9f60bb7b941dda812a
     Pseudo is Projector augmented-wave + core cor, Zval = 16.0
     Generated using ATOMPAW code
     Shape of augmentation charge: SINC**2
     Using radial grid of 2342 points,  6 beta functions with: 
                l(1) =   0
                l(2) =   0
                l(3) =   1
                l(4) =   1
                l(5) =   2
                l(6) =   2
     Q(r) pseudized with 0 coefficients 


     PseudoPot. # 2 for O  read from file:
     /work/e89/e89/phsmea/CASTEP_TO_QS_ARCHER/O.GGA-PBE-paw.UPF
     MD5 check sum: 75cebe6e27812ecd511c7c5e5b8738d8
     Pseudo is Projector augmented-wave + core cor, Zval =  6.0
     Generated using ATOMPAW code
     Shape of augmentation charge: SINC**2
     Using radial grid of 2342 points,  4 beta functions with: 
                l(1) =   0
                l(2) =   0
                l(3) =   1
                l(4) =   1
     Q(r) pseudized with 0 coefficients 


     PseudoPot. # 3 for H  read from file:
     /work/e89/e89/phsmea/CASTEP_TO_QS_ARCHER/H.GGA-PBE-paw.UPF
     MD5 check sum: b9d592600ff6b56d2e28875790887365
     Pseudo is Projector augmented-wave + core cor, Zval =  1.0
     Generated using ATOMPAW code
     Shape of augmentation charge: SINC**2
     Using radial grid of 2342 points,  3 beta functions with: 
                l(1) =   0
                l(2) =   0
                l(3) =   1
     Q(r) pseudized with 0 coefficients 


     PseudoPot. # 4 for C  read from file:
     /work/e89/e89/phsmea/CASTEP_TO_QS_ARCHER/C.GGA-PBE-paw.UPF
     MD5 check sum: 4aa9e32dab6042a76c944283fa01cc46
     Pseudo is Projector augmented-wave + core cor, Zval =  4.0
     Generated using ATOMPAW code
     Shape of augmentation charge: SINC**2
     Using radial grid of 2342 points,  4 beta functions with: 
                l(1) =   0
                l(2) =   0
                l(3) =   1
                l(4) =   1
     Q(r) pseudized with 0 coefficients 


     atomic species   valence    mass     pseudopotential
     Fe               16.00    55.84500     Fe( 1.00)
     O                 6.00    16.00000     O ( 1.00)
     H                 1.00     1.00800     H ( 1.00)
     C                 4.00    12.01100     C ( 1.00)

     Starting magnetic structure 
     atomic species   magnetization
     Fe              0.312
     O               0.000
     H               0.000
     C               0.000

     No symmetry found



   Cartesian axes

     site n.     atom                  positions (alat units)
         1        Fe     tau(   1) = (   0.4731795   0.4936033   0.4536223  )
         2        O      tau(   2) = (   0.4485081   0.5465446   0.4207990  )
         3        O      tau(   3) = (   0.4317938   0.4611703   0.4948999  )
         4        O      tau(   4) = (   0.5369389   0.4735319   0.4474933  )
         5        H      tau(   5) = (   0.4138269   0.5503047   0.4169346  )
         6        C      tau(   6) = (   0.5795487   0.4840553   0.4095145  )
         7        H      tau(   7) = (   0.4024991   0.4765834   0.5065634  )
         8        C      tau(   8) = (   0.4709140   0.5933291   0.3934057  )
         9        H      tau(   9) = (   0.5513062   0.4519894   0.4711675  )
        10        C      tau(  10) = (   0.4307281   0.4075943   0.5206491  )
        11        H      tau(  11) = (   0.4816638   0.5776349   0.3591799  )
        12        H      tau(  12) = (   0.5012264   0.6021808   0.4165067  )
        13        C      tau(  13) = (   0.4328952   0.6302519   0.3904766  )
        14        H      tau(  14) = (   0.4022549   0.6193502   0.3684441  )
        15        H      tau(  15) = (   0.4497250   0.6604355   0.3710945  )
        16        H      tau(  16) = (   0.4217483   0.6441853   0.4253662  )
        17        H      tau(  17) = (   0.4494062   0.3860445   0.4938737  )
        18        C      tau(  18) = (   0.3801155   0.3946258   0.5292807  )
        19        H      tau(  19) = (   0.4522033   0.4146779   0.5526202  )
        20        H      tau(  20) = (   0.3591799   0.3895186   0.4965642  )
        21        H      tau(  21) = (   0.3619709   0.4181067   0.5550066  )
        22        H      tau(  22) = (   0.3822005   0.3591799   0.5470081  )
        23        H      tau(  23) = (   0.5962006   0.5159095   0.4251003  )
        24        H      tau(  24) = (   0.5595344   0.4919013   0.3768221  )
        25        C      tau(  25) = (   0.6107492   0.4410723   0.4071265  )
        26        H      tau(  26) = (   0.6290297   0.4332691   0.4410124  )
        27        H      tau(  27) = (   0.6393899   0.4507243   0.3815531  )
        28        H      tau(  28) = (   0.5927649   0.4094136   0.3926755  )

     number of k points=     1
                       cart. coord. in units 2pi/alat
        k(    1) = (   0.0000000   0.0000000   0.0000000), wk =   1.0000000

     Dense  grid:  8500173 G-vectors     FFT dimensions: ( 270, 270, 250)

     Estimated max dynamical RAM per process >     707.53 MB

     Estimated total dynamical RAM >      44.22 GB
     file Fe.GGA-PBE-paw.UPF: wavefunction(s)  4S 3P 4P 3D 4D renormalized
     file O.GGA-PBE-paw.UPF: wavefunction(s)  3S 2P 3P renormalized
     file H.GGA-PBE-paw.UPF: wavefunction(s)  2S 2P renormalized
     file C.GGA-PBE-paw.UPF: wavefunction(s)  3S 3P renormalized
     Message from routine setup:
     the system is metallic, specify occupations

     R & G space division:  proc/nbgrp/npool/nimage =      64
     Subspace diagonalization in iterative solution of the eigenvalue problem:
     a serial algorithm will be used


     Parallelization info
     --------------------
     sticks:   dense  smooth     PW     G-vecs:    dense   smooth      PW
     Min         812     812    203               132812   132812   16599
     Max         813     813    204               132817   132817   16603
     Sum       52017   52017  12997              8500173  8500173 1062547

     Using Slab Decomposition



     bravais-lattice index     =            0
     lattice parameter (alat)  =      52.6122  a.u.
     unit-cell volume          =  139542.7664 (a.u.)^3
     number of atoms/cell      =           28
     number of atomic types    =            4
     number of electrons       =        73.00 (up:  39.00, down:  34.00)
     number of Kohn-Sham states=           39
     kinetic-energy cutoff     =      58.8000  Ry
     charge density cutoff     =     235.2000  Ry
     scf convergence threshold =      1.0E-06
     mixing beta               =       0.3000
     number of iterations used =            8  plain     mixing
     Exchange-correlation= SLA PW PBX PBC
                           (   1   4   3   4   0   0   0)
     Hubbard projectors: ortho-atomic
     Hubbard parameters of DFT+U (Dudarev formulation) in eV:
     U(Fe-3d) =  4.0000

     Internal variables: lda_plus_u =T, lda_plus_u_kind = 0

     celldm(1)=  52.612241  celldm(2)=   0.000000  celldm(3)=   0.000000
     celldm(4)=   0.000000  celldm(5)=   0.000000  celldm(6)=   0.000000

     crystal axes: (cart. coord. in units of alat)
               a(1) = (   1.000000   0.000000   0.000000 )  
               a(2) = (   0.000000   1.004173   0.000000 )  
               a(3) = (   0.000000   0.000000   0.954198 )  

     reciprocal axes: (cart. coord. in units 2 pi/alat)
               b(1) = (  1.000000  0.000000  0.000000 )  
               b(2) = (  0.000000  0.995844  0.000000 )  
               b(3) = (  0.000000  0.000000  1.048001 )  


     PseudoPot. # 1 for Fe read from file:
     /work/e89/e89/phsmea/CASTEP_TO_QS_ARCHER/Fe.GGA-PBE-paw.UPF
     MD5 check sum: 2d46233e65fd0c9f60bb7b941dda812a
     Pseudo is Projector augmented-wave + core cor, Zval = 16.0
     Generated using ATOMPAW code
     Shape of augmentation charge: SINC**2
     Using radial grid of 2342 points,  6 beta functions with: 
                l(1) =   0
                l(2) =   0
                l(3) =   1
                l(4) =   1
                l(5) =   2
                l(6) =   2
     Q(r) pseudized with 0 coefficients 


     PseudoPot. # 2 for O  read from file:
     /work/e89/e89/phsmea/CASTEP_TO_QS_ARCHER/O.GGA-PBE-paw.UPF
     MD5 check sum: 75cebe6e27812ecd511c7c5e5b8738d8
     Pseudo is Projector augmented-wave + core cor, Zval =  6.0
     Generated using ATOMPAW code
     Shape of augmentation charge: SINC**2
     Using radial grid of 2342 points,  4 beta functions with: 
                l(1) =   0
                l(2) =   0
                l(3) =   1
                l(4) =   1
     Q(r) pseudized with 0 coefficients 


     PseudoPot. # 3 for H  read from file:
     /work/e89/e89/phsmea/CASTEP_TO_QS_ARCHER/H.GGA-PBE-paw.UPF
     MD5 check sum: b9d592600ff6b56d2e28875790887365
     Pseudo is Projector augmented-wave + core cor, Zval =  1.0
     Generated using ATOMPAW code
     Shape of augmentation charge: SINC**2
     Using radial grid of 2342 points,  3 beta functions with: 
                l(1) =   0
                l(2) =   0
                l(3) =   1
     Q(r) pseudized with 0 coefficients 


     PseudoPot. # 4 for C  read from file:
     /work/e89/e89/phsmea/CASTEP_TO_QS_ARCHER/C.GGA-PBE-paw.UPF
     MD5 check sum: 4aa9e32dab6042a76c944283fa01cc46
     Pseudo is Projector augmented-wave + core cor, Zval =  4.0
     Generated using ATOMPAW code
     Shape of augmentation charge: SINC**2
     Using radial grid of 2342 points,  4 beta functions with: 
                l(1) =   0
                l(2) =   0
                l(3) =   1
                l(4) =   1
     Q(r) pseudized with 0 coefficients 


     atomic species   valence    mass     pseudopotential
     Fe               16.00    55.84500     Fe( 1.00)
     O                 6.00    16.00000     O ( 1.00)
     H                 1.00     1.00800     H ( 1.00)
     C                 4.00    12.01100     C ( 1.00)

     Starting magnetic structure 
     atomic species   magnetization
     Fe              0.312
     O               0.000
     H               0.000
     C               0.000

     No symmetry found



   Cartesian axes

     site n.     atom                  positions (alat units)
         1        Fe     tau(   1) = (   0.4731795   0.4936033   0.4536223  )
         2        O      tau(   2) = (   0.4485081   0.5465446   0.4207990  )
         3        O      tau(   3) = (   0.4317938   0.4611703   0.4948999  )
         4        O      tau(   4) = (   0.5369389   0.4735319   0.4474933  )
         5        H      tau(   5) = (   0.4138269   0.5503047   0.4169346  )
         6        C      tau(   6) = (   0.5795487   0.4840553   0.4095145  )
         7        H      tau(   7) = (   0.4024991   0.4765834   0.5065634  )
         8        C      tau(   8) = (   0.4709140   0.5933291   0.3934057  )
         9        H      tau(   9) = (   0.5513062   0.4519894   0.4711675  )
        10        C      tau(  10) = (   0.4307281   0.4075943   0.5206491  )
        11        H      tau(  11) = (   0.4816638   0.5776349   0.3591799  )
        12        H      tau(  12) = (   0.5012264   0.6021808   0.4165067  )
        13        C      tau(  13) = (   0.4328952   0.6302519   0.3904766  )
        14        H      tau(  14) = (   0.4022549   0.6193502   0.3684441  )
        15        H      tau(  15) = (   0.4497250   0.6604355   0.3710945  )
        16        H      tau(  16) = (   0.4217483   0.6441853   0.4253662  )
        17        H      tau(  17) = (   0.4494062   0.3860445   0.4938737  )
        18        C      tau(  18) = (   0.3801155   0.3946258   0.5292807  )
        19        H      tau(  19) = (   0.4522033   0.4146779   0.5526202  )
        20        H      tau(  20) = (   0.3591799   0.3895186   0.4965642  )
        21        H      tau(  21) = (   0.3619709   0.4181067   0.5550066  )
        22        H      tau(  22) = (   0.3822005   0.3591799   0.5470081  )
        23        H      tau(  23) = (   0.5962006   0.5159095   0.4251003  )
        24        H      tau(  24) = (   0.5595344   0.4919013   0.3768221  )
        25        C      tau(  25) = (   0.6107492   0.4410723   0.4071265  )
        26        H      tau(  26) = (   0.6290297   0.4332691   0.4410124  )
        27        H      tau(  27) = (   0.6393899   0.4507243   0.3815531  )
        28        H      tau(  28) = (   0.5927649   0.4094136   0.3926755  )

     number of k points=     1
                       cart. coord. in units 2pi/alat
        k(    1) = (   0.0000000   0.0000000   0.0000000), wk =   1.0000000

     Dense  grid:  8500173 G-vectors     FFT dimensions: ( 270, 270, 250)

     Estimated max dynamical RAM per process >     707.53 MB

     Estimated total dynamical RAM >      44.22 GB
     Generating pointlists ...
     new r_m :   0.0276 (alat units)  1.4507 (a.u.) for type    1
     new r_m :   0.0145 (alat units)  0.7614 (a.u.) for type    2
     new r_m :   0.0145 (alat units)  0.7614 (a.u.) for type    3
     new r_m :   0.0161 (alat units)  0.8490 (a.u.) for type    4
     Generating pointlists ...
     new r_m :   0.0276 (alat units)  1.4507 (a.u.) for type    1
     new r_m :   0.0145 (alat units)  0.7614 (a.u.) for type    2
     new r_m :   0.0145 (alat units)  0.7614 (a.u.) for type    3
     new r_m :   0.0161 (alat units)  0.8490 (a.u.) for type    4

     Initial potential from superposition of free atoms

     starting charge      75.9988, renormalised to      73.0000


     Initial potential from superposition of free atoms
     negative rho (up, down):  2.535E-02 1.586E-02

     starting charge      75.9988, renormalised to      73.0000

     negative rho (up, down):  2.535E-02 1.586E-02

     STARTING HUBBARD OCCUPATIONS:

     =================== HUBBARD OCCUPATIONS ===================
     ------------------------ ATOM    1 ------------------------
     Tr[ns(  1)] (up, down, total) =   5.00000  2.00000  7.00000
     Atomic magnetic moment for atom   1 =   3.00000
     SPIN  1
     eigenvalues:
       1.000  1.000  1.000  1.000  1.000
     eigenvectors (columns):
       1.000  0.000  0.000  0.000  0.000
       0.000  1.000  0.000  0.000  0.000
       0.000  0.000  1.000  0.000  0.000
       0.000  0.000  0.000  1.000  0.000
       0.000  0.000  0.000  0.000  1.000
     occupation matrix ns (before diag.):
       1.000  0.000  0.000  0.000  0.000
       0.000  1.000  0.000  0.000  0.000
       0.000  0.000  1.000  0.000  0.000
       0.000  0.000  0.000  1.000  0.000
       0.000  0.000  0.000  0.000  1.000
     SPIN  2
     eigenvalues:
       0.400  0.400  0.400  0.400  0.400
     eigenvectors (columns):
       1.000  0.000  0.000  0.000  0.000
       0.000  1.000  0.000  0.000  0.000
       0.000  0.000  1.000  0.000  0.000
       0.000  0.000  0.000  1.000  0.000
       0.000  0.000  0.000  0.000  1.000
     occupation matrix ns (before diag.):
       0.400  0.000  0.000  0.000  0.000
       0.000  0.400  0.000  0.000  0.000
       0.000  0.000  0.400  0.000  0.000
       0.000  0.000  0.000  0.400  0.000
       0.000  0.000  0.000  0.000  0.400

     Number of occupied Hubbard levels =    7.0000

     STARTING HUBBARD OCCUPATIONS:

     =================== HUBBARD OCCUPATIONS ===================
     ------------------------ ATOM    1 ------------------------
     Tr[ns(  1)] (up, down, total) =   5.00000  2.00000  7.00000
     Atomic magnetic moment for atom   1 =   3.00000
     SPIN  1
     eigenvalues:
       1.000  1.000  1.000  1.000  1.000
     eigenvectors (columns):
       1.000  0.000  0.000  0.000  0.000
       0.000  1.000  0.000  0.000  0.000
       0.000  0.000  1.000  0.000  0.000
       0.000  0.000  0.000  1.000  0.000
       0.000  0.000  0.000  0.000  1.000
     occupation matrix ns (before diag.):
       1.000  0.000  0.000  0.000  0.000
       0.000  1.000  0.000  0.000  0.000
       0.000  0.000  1.000  0.000  0.000
       0.000  0.000  0.000  1.000  0.000
       0.000  0.000  0.000  0.000  1.000
     SPIN  2
     eigenvalues:
       0.400  0.400  0.400  0.400  0.400
     eigenvectors (columns):
       1.000  0.000  0.000  0.000  0.000
       0.000  1.000  0.000  0.000  0.000
       0.000  0.000  1.000  0.000  0.000
       0.000  0.000  0.000  1.000  0.000
       0.000  0.000  0.000  0.000  1.000
     occupation matrix ns (before diag.):
       0.400  0.000  0.000  0.000  0.000
       0.000  0.400  0.000  0.000  0.000
       0.000  0.000  0.400  0.000  0.000
       0.000  0.000  0.000  0.400  0.000
       0.000  0.000  0.000  0.000  0.400

     Number of occupied Hubbard levels =    7.0000

     Atomic wfc used for Hubbard projectors are orthogonalized


     Atomic wfc used for Hubbard projectors are orthogonalized

     Starting wfcs are  180 randomized atomic wfcs
     Starting wfcs are  180 randomized atomic wfcs
     Checking if some PAW data can be deallocated... 

     total cpu time spent up to now is       19.4 secs

     per-process dynamical memory:   176.9 Mb

     Self-consistent Calculation

     iteration #  1     ecut=    58.80 Ry     beta= 0.30
     Davidson diagonalization with overlap
     Checking if some PAW data can be deallocated... 

     total cpu time spent up to now is       20.0 secs

     per-process dynamical memory:   176.8 Mb

     Self-consistent Calculation

     iteration #  1     ecut=    58.80 Ry     beta= 0.30
     Davidson diagonalization with overlap
     ethr =  1.00E-02,  avg # of iterations =  2.5
     ethr =  1.00E-02,  avg # of iterations =  2.5

     =================== HUBBARD OCCUPATIONS ===================
     ------------------------ ATOM    1 ------------------------
     Tr[ns(  1)] (up, down, total) =   4.89158  0.52327  5.41485
     Atomic magnetic moment for atom   1 =   4.36831
     SPIN  1
     eigenvalues:
       0.976  0.977  0.977  0.981  0.982
     eigenvectors (columns):
       0.026 -0.537  0.834  0.120  0.018
       0.548 -0.199 -0.248  0.744 -0.212
      -0.364 -0.590 -0.401  0.142  0.582
      -0.594 -0.246 -0.140  0.113 -0.744
      -0.462  0.514  0.249  0.632  0.249
     occupation matrix ns (before diag.):
       0.977  0.000 -0.000 -0.000  0.000
       0.000  0.979  0.000  0.002  0.002
      -0.000  0.000  0.978 -0.002  0.001
      -0.000  0.002 -0.002  0.979 -0.001
       0.000  0.002  0.001 -0.001  0.978
     SPIN  2
     eigenvalues:
       0.061  0.076  0.087  0.127  0.171
     eigenvectors (columns):
      -0.677 -0.360 -0.098  0.619  0.141
       0.130 -0.304  0.777 -0.033  0.535
       0.689 -0.528 -0.276  0.411 -0.040
      -0.177 -0.534 -0.421 -0.641  0.310
       0.140  0.463 -0.366  0.189  0.772
     occupation matrix ns (before diag.):
       0.091  0.007  0.020 -0.018  0.018
       0.007  0.110 -0.006  0.014  0.036
       0.020 -0.006  0.079 -0.012  0.001
      -0.018  0.014 -0.012  0.108  0.019
       0.018  0.036  0.001  0.019  0.136

     Number of occupied Hubbard levels =    5.4149

     negative rho (up, down):  2.698E-02 1.724E-02

     =================== HUBBARD OCCUPATIONS ===================
     ------------------------ ATOM    1 ------------------------
     Tr[ns(  1)] (up, down, total) =   4.89158  0.52327  5.41485
     Atomic magnetic moment for atom   1 =   4.36831
     SPIN  1
     eigenvalues:
       0.976  0.977  0.977  0.981  0.982
     eigenvectors (columns):
       0.026 -0.537  0.834  0.120  0.018
       0.548 -0.199 -0.248  0.744 -0.212
      -0.364 -0.590 -0.401  0.142  0.582
      -0.594 -0.246 -0.140  0.113 -0.744
      -0.462  0.514  0.249  0.632  0.249
     occupation matrix ns (before diag.):
       0.977  0.000 -0.000 -0.000  0.000
       0.000  0.979  0.000  0.002  0.002
      -0.000  0.000  0.978 -0.002  0.001
      -0.000  0.002 -0.002  0.979 -0.001
       0.000  0.002  0.001 -0.001  0.978
     SPIN  2
     eigenvalues:
       0.061  0.076  0.087  0.127  0.171
     eigenvectors (columns):
      -0.677 -0.360 -0.098  0.619  0.141
       0.130 -0.304  0.777 -0.033  0.535
       0.689 -0.528 -0.276  0.411 -0.040
      -0.177 -0.534 -0.421 -0.641  0.310
       0.140  0.463 -0.366  0.189  0.772
     occupation matrix ns (before diag.):
       0.091  0.007  0.020 -0.018  0.018
       0.007  0.110 -0.006  0.014  0.036
       0.020 -0.006  0.079 -0.012  0.001
      -0.018  0.014 -0.012  0.108  0.019
       0.018  0.036  0.001  0.019  0.136

     Number of occupied Hubbard levels =    5.4149

     negative rho (up, down):  2.698E-02 1.724E-02

     total cpu time spent up to now is       28.5 secs

     total energy              =    -583.57649543 Ry
     estimated scf accuracy    <       6.76944712 Ry

     total magnetization       =     5.00 Bohr mag/cell
     absolute magnetization    =     5.06 Bohr mag/cell

     iteration #  2     ecut=    58.80 Ry     beta= 0.30
     Davidson diagonalization with overlap

     total cpu time spent up to now is       29.2 secs

     total energy              =    -583.57649543 Ry
     estimated scf accuracy    <       6.76944712 Ry

     total magnetization       =     5.00 Bohr mag/cell
     absolute magnetization    =     5.06 Bohr mag/cell

     iteration #  2     ecut=    58.80 Ry     beta= 0.30
     Davidson diagonalization with overlap
     ethr =  9.27E-03,  avg # of iterations =  2.0
     ethr =  9.27E-03,  avg # of iterations =  2.0

     negative rho (up, down):  2.759E-02 1.804E-02

     negative rho (up, down):  2.759E-02 1.804E-02

     total cpu time spent up to now is       36.7 secs

     total energy              =    -583.26880021 Ry
     estimated scf accuracy    <       3.51947047 Ry

     total magnetization       =     5.00 Bohr mag/cell
     absolute magnetization    =     5.03 Bohr mag/cell

     iteration #  3     ecut=    58.80 Ry     beta= 0.30
     Davidson diagonalization with overlap

     total cpu time spent up to now is       37.4 secs

     total energy              =    -583.26880021 Ry
     estimated scf accuracy    <       3.51947047 Ry

     total magnetization       =     5.00 Bohr mag/cell
     absolute magnetization    =     5.03 Bohr mag/cell

     iteration #  3     ecut=    58.80 Ry     beta= 0.30
     Davidson diagonalization with overlap
