
     Program PWSCF v.7.3.1 starts on 30Mar2025 at 16:42:22 

     This program is part of the open-source Quantum ESPRESSO suite
     for quantum simulation of materials; please cite
         "P. Giannozzi et al., J. Phys.:Condens. Matter 21 395502 (2009);
         "P. Giannozzi et al., J. Phys.:Condens. Matter 29 465901 (2017);
         "P. Giannozzi et al., J. Chem. Phys. 152 154105 (2020);
          URL http://www.quantum-espresso.org", 
     in publications or presentations arising from this work. More details at
     http://www.quantum-espresso.org/quote

     Parallel version (MPI), running on    19 processors

     MPI processes distributed on     1 nodes
     244951 MiB available memory on the printing compute node when the environment starts

     Reading input from FeH2O6_HighSpin.in

     Current dimensions of program PWSCF are:
     Max number of different atomic species (ntypx) = 10
     Max number of k-points (npk) =  40000
     Max angular momentum in pseudopotentials (lmaxx) =  4
read_pp_mesh; mismatch in mesh size, discarding the one in header
read_pp_mesh; mismatch in mesh size, discarding the one in header
read_pp_mesh; mismatch in mesh size, discarding the one in header
     file Fe.GGA-PBE-paw.UPF: wavefunction(s)  4S 3P 4P 3D 4D renormalized
     file O.GGA-PBE-paw.UPF: wavefunction(s)  3S 2P 3P renormalized
     file H.GGA-PBE-paw.UPF: wavefunction(s)  2S 2P renormalized
     Message from routine setup:
     the system is metallic, specify occupations

     R & G space division:  proc/nbgrp/npool/nimage =      19
     Subspace diagonalization in iterative solution of the eigenvalue problem:
     a serial algorithm will be used


     Parallelization info
     --------------------
     sticks:   dense  smooth     PW     G-vecs:    dense   smooth      PW
     Min        2080    2080    520               313394   313394   39176
     Max        2081    2081    521               313399   313399   39179
     Sum       39535   39535   9887              5954535  5954535  744371

     Using Slab Decomposition



     bravais-lattice index     =            0
     lattice parameter (alat)  =      45.8499  a.u.
     unit-cell volume          =   97761.0916 (a.u.)^3
     number of atoms/cell      =           19
     number of atomic types    =            3
     number of electrons       =        61.00 (up:  33.00, down:  28.00)
     number of Kohn-Sham states=           33
     kinetic-energy cutoff     =      58.8000  Ry
     charge density cutoff     =     235.2000  Ry
     scf convergence threshold =      1.0E-06
     mixing beta               =       0.3000
     number of iterations used =            8  plain     mixing
     Exchange-correlation= SLA PW PBX PBC
                           (   1   4   3   4   0   0   0)
     Hubbard projectors: ortho-atomic
     Hubbard parameters of DFT+U (Dudarev formulation) in eV:
     U(Fe-3d) =  4.0000

     Internal variables: lda_plus_u =T, lda_plus_u_kind = 0

     celldm(1)=  45.849920  celldm(2)=   0.000000  celldm(3)=   0.000000
     celldm(4)=   0.000000  celldm(5)=   0.000000  celldm(6)=   0.000000

     crystal axes: (cart. coord. in units of alat)
               a(1) = (   1.000000   0.000000   0.000000 )  
               a(2) = (   0.000000   1.004765   0.000000 )  
               a(3) = (   0.000000   0.000000   1.009452 )  

     reciprocal axes: (cart. coord. in units 2 pi/alat)
               b(1) = (  1.000000  0.000000  0.000000 )  
               b(2) = (  0.000000  0.995258  0.000000 )  
               b(3) = (  0.000000  0.000000  0.990636 )  


     PseudoPot. # 1 for Fe read from file:
     ../../Fe.GGA-PBE-paw.UPF
     MD5 check sum: 89f6fde11583ee234fe819c830abe0a6
     Pseudo is Projector augmented-wave + core cor, Zval = 16.0
     Generated using ATOMPAW code
     Shape of augmentation charge: SINC**2
     Using radial grid of 2342 points,  6 beta functions with: 
                l(1) =   0
                l(2) =   0
                l(3) =   1
                l(4) =   1
                l(5) =   2
                l(6) =   2
     Q(r) pseudized with 0 coefficients 


     PseudoPot. # 2 for O  read from file:
     ../../O.GGA-PBE-paw.UPF
     MD5 check sum: 75cebe6e27812ecd511c7c5e5b8738d8
     Pseudo is Projector augmented-wave + core cor, Zval =  6.0
     Generated using ATOMPAW code
     Shape of augmentation charge: SINC**2
     Using radial grid of 2342 points,  4 beta functions with: 
                l(1) =   0
                l(2) =   0
                l(3) =   1
                l(4) =   1
     Q(r) pseudized with 0 coefficients 


     PseudoPot. # 3 for H  read from file:
     ../../H.GGA-PBE-paw.UPF
     MD5 check sum: b9d592600ff6b56d2e28875790887365
     Pseudo is Projector augmented-wave + core cor, Zval =  1.0
     Generated using ATOMPAW code
     Shape of augmentation charge: SINC**2
     Using radial grid of 2342 points,  3 beta functions with: 
                l(1) =   0
                l(2) =   0
                l(3) =   1
     Q(r) pseudized with 0 coefficients 


     atomic species   valence    mass     pseudopotential
     Fe               16.00    55.84500     Fe( 1.00)
     O                 6.00    16.00000     O ( 1.00)
     H                 1.00     1.00800     H ( 1.00)

     Starting magnetic structure 
     atomic species   magnetization
     Fe              0.312
     O               0.000
     H               0.000

     No symmetry found



   Cartesian axes

     site n.     atom                  positions (alat units)
         1        Fe     tau(   1) = (   0.5049239   0.5088950   0.5104014  )
         2        O      tau(   2) = (   0.4499871   0.5006430   0.4474425  )
         3        O      tau(   3) = (   0.5598423   0.5171132   0.5733963  )
         4        O      tau(   4) = (   0.5311494   0.5819925   0.4783373  )
         5        O      tau(   5) = (   0.4787569   0.4357641   0.5424351  )
         6        O      tau(   6) = (   0.4472225   0.5498139   0.5555382  )
         7        O      tau(   7) = (   0.5626660   0.4680209   0.4652840  )
         8        H      tau(   8) = (   0.4408596   0.5894241   0.5556625  )
         9        H      tau(   9) = (   0.5177021   0.5996392   0.4449114  )
        10        H      tau(  10) = (   0.4121547   0.5139773   0.4469247  )
        11        H      tau(  11) = (   0.4500299   0.4121547   0.5273786  )
        12        H      tau(  12) = (   0.5531977   0.5351463   0.6086113  )
        13        H      tau(  13) = (   0.5892919   0.4843814   0.4401259  )
        14        H      tau(  14) = (   0.4921918   0.4181672   0.5758893  )
        15        H      tau(  15) = (   0.4207033   0.5335098   0.5808461  )
        16        H      tau(  16) = (   0.4567101   0.4827820   0.4121547  )
        17        H      tau(  17) = (   0.5689050   0.4283924   0.4649736  )
        18        H      tau(  18) = (   0.5597747   0.6056645   0.4934900  )
        19        H      tau(  19) = (   0.5976345   0.5036679   0.5739440  )

     number of k points=     1
                       cart. coord. in units 2pi/alat
        k(    1) = (   0.0000000   0.0000000   0.0000000), wk =   1.0000000

     Dense  grid:  5954535 G-vectors     FFT dimensions: ( 225, 225, 225)

     Estimated max dynamical RAM per process >       1.48 GB

     Estimated total dynamical RAM >      28.09 GB
     Generating pointlists ...
     new r_m :   0.0346 (alat units)  1.5869 (a.u.) for type    1
     new r_m :   0.0165 (alat units)  0.7587 (a.u.) for type    2
     new r_m :   0.0165 (alat units)  0.7587 (a.u.) for type    3

     Initial potential from superposition of free atoms

     starting charge      63.9992, renormalised to      61.0000

     negative rho (up, down):  2.375E-02 1.653E-02

     STARTING HUBBARD OCCUPATIONS:

     =================== HUBBARD OCCUPATIONS ===================
     ------------------------ ATOM    1 ------------------------
     Tr[ns(  1)] (up, down, total) =   5.00000  2.00000  7.00000
     Atomic magnetic moment for atom   1 =   3.00000
     SPIN  1
     eigenvalues:
       1.000  1.000  1.000  1.000  1.000
     eigenvectors (columns):
       1.000  0.000  0.000  0.000  0.000
       0.000  1.000  0.000  0.000  0.000
       0.000  0.000  1.000  0.000  0.000
       0.000  0.000  0.000  1.000  0.000
       0.000  0.000  0.000  0.000  1.000
     occupation matrix ns (before diag.):
       1.000  0.000  0.000  0.000  0.000
       0.000  1.000  0.000  0.000  0.000
       0.000  0.000  1.000  0.000  0.000
       0.000  0.000  0.000  1.000  0.000
       0.000  0.000  0.000  0.000  1.000
     SPIN  2
     eigenvalues:
       0.400  0.400  0.400  0.400  0.400
     eigenvectors (columns):
       1.000  0.000  0.000  0.000  0.000
       0.000  1.000  0.000  0.000  0.000
       0.000  0.000  1.000  0.000  0.000
       0.000  0.000  0.000  1.000  0.000
       0.000  0.000  0.000  0.000  1.000
     occupation matrix ns (before diag.):
       0.400  0.000  0.000  0.000  0.000
       0.000  0.400  0.000  0.000  0.000
       0.000  0.000  0.400  0.000  0.000
       0.000  0.000  0.000  0.400  0.000
       0.000  0.000  0.000  0.000  0.400

     Number of occupied Hubbard levels =    7.0000

     Atomic wfc used for Hubbard projectors are orthogonalized

     Starting wfcs are  126 randomized atomic wfcs
     Checking if some PAW data can be deallocated... 

     total cpu time spent up to now is       19.2 secs

     per-process dynamical memory:   315.9 Mb

     Self-consistent Calculation

     iteration #  1     ecut=    58.80 Ry     beta= 0.30
     Davidson diagonalization with overlap
     ethr =  1.00E-02,  avg # of iterations =  2.5

     =================== HUBBARD OCCUPATIONS ===================
     ------------------------ ATOM    1 ------------------------
     Tr[ns(  1)] (up, down, total) =   4.88332  0.94628  5.82960
     Atomic magnetic moment for atom   1 =   3.93704
     SPIN  1
     eigenvalues:
       0.974  0.974  0.978  0.978  0.979
     eigenvectors (columns):
       0.322 -0.109 -0.381  0.523  0.683
      -0.853 -0.211 -0.244 -0.178  0.369
      -0.093  0.573  0.631 -0.033  0.513
       0.373 -0.479  0.159 -0.688  0.363
       0.141  0.621 -0.609 -0.469  0.051
     occupation matrix ns (before diag.):
       0.978  0.001  0.001 -0.001  0.000
       0.001  0.975  0.000  0.001  0.001
       0.001  0.000  0.977  0.001 -0.001
      -0.001  0.001  0.001  0.977  0.001
       0.000  0.001 -0.001  0.001  0.976
     SPIN  2
     eigenvalues:
       0.132  0.177  0.182  0.224  0.231
     eigenvectors (columns):
      -0.546  0.743 -0.125  0.160 -0.329
      -0.469  0.032  0.099  0.120  0.869
      -0.315 -0.260 -0.772 -0.487 -0.005
      -0.488 -0.605  0.067  0.536 -0.323
      -0.381 -0.114  0.611 -0.661 -0.179
     occupation matrix ns (before diag.):
       0.171 -0.026 -0.011 -0.002 -0.011
      -0.026  0.209 -0.010 -0.022 -0.020
      -0.011 -0.010  0.187 -0.019  0.008
      -0.002 -0.022 -0.019  0.186 -0.022
      -0.011 -0.020  0.008 -0.022  0.195

     Number of occupied Hubbard levels =    5.8296

     negative rho (up, down):  2.622E-02 1.888E-02

     total cpu time spent up to now is       33.4 secs

     total energy              =    -591.03094427 Ry
     estimated scf accuracy    <       7.36040854 Ry

     total magnetization       =     5.00 Bohr mag/cell
     absolute magnetization    =     5.04 Bohr mag/cell

     iteration #  2     ecut=    58.80 Ry     beta= 0.30
     Davidson diagonalization with overlap
     ethr =  1.00E-02,  avg # of iterations =  2.0

     negative rho (up, down):  2.772E-02 1.988E-02

     total cpu time spent up to now is       46.8 secs

     total energy              =    -591.53508285 Ry
     estimated scf accuracy    <       0.77837788 Ry

     total magnetization       =     5.00 Bohr mag/cell
     absolute magnetization    =     5.03 Bohr mag/cell

     iteration #  3     ecut=    58.80 Ry     beta= 0.30
     Davidson diagonalization with overlap
     ethr =  1.28E-03,  avg # of iterations =  2.0

     negative rho (up, down):  2.858E-02 2.024E-02

     total cpu time spent up to now is       60.3 secs

     total energy              =    -591.63334372 Ry
     estimated scf accuracy    <       0.12507520 Ry

     total magnetization       =     5.00 Bohr mag/cell
     absolute magnetization    =     5.03 Bohr mag/cell

     iteration #  4     ecut=    58.80 Ry     beta= 0.30
     Davidson diagonalization with overlap
     ethr =  2.05E-04,  avg # of iterations =  1.5

     negative rho (up, down):  3.029E-02 2.130E-02

     total cpu time spent up to now is       72.4 secs

     total energy              =    -591.63295717 Ry
     estimated scf accuracy    <       0.03144037 Ry

     total magnetization       =     5.00 Bohr mag/cell
     absolute magnetization    =     5.03 Bohr mag/cell

     iteration #  5     ecut=    58.80 Ry     beta= 0.30
     Davidson diagonalization with overlap
     ethr =  5.15E-05,  avg # of iterations =  1.0

     negative rho (up, down):  3.072E-02 2.165E-02

     total cpu time spent up to now is       84.4 secs

     total energy              =    -591.63510581 Ry
     estimated scf accuracy    <       0.00207288 Ry

     total magnetization       =     5.00 Bohr mag/cell
     absolute magnetization    =     5.04 Bohr mag/cell

     iteration #  6     ecut=    58.80 Ry     beta= 0.30
     Davidson diagonalization with overlap
     ethr =  3.40E-06,  avg # of iterations =  2.5

     negative rho (up, down):  3.075E-02 2.166E-02

     total cpu time spent up to now is       98.2 secs

     total energy              =    -591.63562900 Ry
     estimated scf accuracy    <       0.00021929 Ry

     total magnetization       =     5.00 Bohr mag/cell
     absolute magnetization    =     5.04 Bohr mag/cell

     iteration #  7     ecut=    58.80 Ry     beta= 0.30
     Davidson diagonalization with overlap
     ethr =  3.59E-07,  avg # of iterations =  2.0

     negative rho (up, down):  3.090E-02 2.177E-02

     total cpu time spent up to now is      111.3 secs

     total energy              =    -591.63570493 Ry
     estimated scf accuracy    <       0.00005267 Ry

     total magnetization       =     5.00 Bohr mag/cell
     absolute magnetization    =     5.04 Bohr mag/cell

     iteration #  8     ecut=    58.80 Ry     beta= 0.30
     Davidson diagonalization with overlap
     ethr =  8.64E-08,  avg # of iterations =  2.0

     negative rho (up, down):  3.095E-02 2.180E-02

     total cpu time spent up to now is      124.5 secs

     total energy              =    -591.63571408 Ry
     estimated scf accuracy    <       0.00001293 Ry

     total magnetization       =     5.00 Bohr mag/cell
     absolute magnetization    =     5.04 Bohr mag/cell

     iteration #  9     ecut=    58.80 Ry     beta= 0.30
     Davidson diagonalization with overlap
     ethr =  2.12E-08,  avg # of iterations =  2.0

     negative rho (up, down):  3.094E-02 2.180E-02

     total cpu time spent up to now is      138.2 secs

     total energy              =    -591.63571793 Ry
     estimated scf accuracy    <       0.00000122 Ry

     total magnetization       =     5.00 Bohr mag/cell
     absolute magnetization    =     5.04 Bohr mag/cell

     iteration # 10     ecut=    58.80 Ry     beta= 0.30
     Davidson diagonalization with overlap
     ethr =  2.00E-09,  avg # of iterations =  2.0

     negative rho (up, down):  3.094E-02 2.180E-02

     Magnetic moment per site  (integrated on atomic sphere of radius R)
     atom   1 (R=0.035)  charge= 12.9674  magn=  4.0778
     atom   2 (R=0.017)  charge=  1.9591  magn=  0.0368
     atom   3 (R=0.017)  charge=  1.9563  magn=  0.0367
     atom   4 (R=0.017)  charge=  1.9721  magn=  0.0369
     atom   5 (R=0.017)  charge=  1.9648  magn=  0.0368
     atom   6 (R=0.017)  charge=  1.9612  magn=  0.0368
     atom   7 (R=0.017)  charge=  1.9662  magn=  0.0369
     atom   8 (R=0.017)  charge=  0.3798  magn=  0.0020
     atom   9 (R=0.017)  charge=  0.3815  magn=  0.0020
     atom  10 (R=0.017)  charge=  0.3800  magn=  0.0020
     atom  11 (R=0.017)  charge=  0.3827  magn=  0.0020
     atom  12 (R=0.017)  charge=  0.3829  magn=  0.0020
     atom  13 (R=0.017)  charge=  0.3824  magn=  0.0020
     atom  14 (R=0.017)  charge=  0.3815  magn=  0.0020
     atom  15 (R=0.017)  charge=  0.3825  magn=  0.0020
     atom  16 (R=0.017)  charge=  0.3796  magn=  0.0020
     atom  17 (R=0.017)  charge=  0.3795  magn=  0.0020
     atom  18 (R=0.017)  charge=  0.3799  magn=  0.0020
     atom  19 (R=0.017)  charge=  0.3814  magn=  0.0020

     total cpu time spent up to now is      151.7 secs

     End of self-consistent calculation

     =================== HUBBARD OCCUPATIONS ===================
     ------------------------ ATOM    1 ------------------------
     Tr[ns(  1)] (up, down, total) =   4.89580  0.76860  5.66440
     Atomic magnetic moment for atom   1 =   4.12720
     SPIN  1
     eigenvalues:
       0.974  0.974  0.983  0.983  0.983
     eigenvectors (columns):
      -0.301  0.209 -0.929 -0.024 -0.047
       0.294 -0.836 -0.288  0.355 -0.082
       0.555  0.246 -0.082 -0.126 -0.780
      -0.574  0.033  0.205  0.600 -0.517
       0.430  0.443 -0.075  0.706  0.339
     occupation matrix ns (before diag.):
       0.981  0.002  0.001 -0.002  0.000
       0.002  0.976  0.000  0.002  0.002
       0.001  0.000  0.979  0.003 -0.003
      -0.002  0.002  0.003  0.980  0.002
       0.000  0.002 -0.003  0.002  0.979
     SPIN  2
     eigenvalues:
       0.109  0.110  0.110  0.220  0.220
     eigenvectors (columns):
      -0.649  0.588  0.315 -0.350  0.111
      -0.457 -0.073  0.034  0.533 -0.707
      -0.196  0.347 -0.687  0.456  0.402
      -0.400 -0.444 -0.562 -0.555 -0.141
      -0.414 -0.576  0.336  0.278  0.554
     occupation matrix ns (before diag.):
       0.124 -0.029 -0.013  0.019 -0.004
      -0.029  0.196 -0.005 -0.022 -0.027
      -0.013 -0.005  0.151 -0.034  0.038
       0.019 -0.022 -0.034  0.146 -0.026
      -0.004 -0.027  0.038 -0.026  0.152

     Number of occupied Hubbard levels =    5.6644

 ------ SPIN UP ------------


          k = 0.0000 0.0000 0.0000 (744371 PWs)   bands (ev):

  -107.5990 -73.5242 -73.5230 -73.5222 -35.2551 -34.9922 -34.9901 -34.9858
   -34.9833 -34.9796 -23.4926 -23.4859 -23.2775 -23.2731 -23.2673 -22.7049
   -22.6995 -22.6937 -22.0229 -21.8772 -21.8770 -21.8758 -20.3589 -20.3480
   -20.3394 -17.6974 -17.6931 -17.1462 -17.1410 -17.1329 -16.9763 -16.9707
   -16.9660

 ------ SPIN DOWN ----------


          k = 0.0000 0.0000 0.0000 (744371 PWs)   bands (ev):

  -102.4158 -68.4614 -68.4604 -68.4593 -35.1206 -34.8653 -34.8590 -34.8533
   -34.7763 -34.7703 -22.6434 -22.6382 -22.6334 -22.6324 -22.6279 -22.6226
   -21.6783 -20.4393 -20.4291 -20.1445 -20.1335 -20.1249 -17.1783 -17.1702
   -17.1645 -16.9742 -16.9694 -16.9619 -14.0017 -14.0004 -13.9985 -13.1456
   -13.1395

     highest occupied, lowest unoccupied level (ev):   -16.9619  -14.0017

!    total energy              =    -591.63571826 Ry
     total all-electron energy =      -591.635718 Ry
     estimated scf accuracy    <       0.00000028 Ry

     The total energy is the sum of the following terms:
     one-electron contribution =   -1739.74889849 Ry
     hartree contribution      =     831.66690591 Ry
     xc contribution           =     -72.80003347 Ry
     ewald contribution        =     515.72185356 Ry
     Hubbard energy            =       0.10845071 Ry
     one-center paw contrib.   =    -126.58399648 Ry

     total magnetization       =     5.00 Bohr mag/cell
     absolute magnetization    =     5.04 Bohr mag/cell

     convergence has been achieved in  10 iterations

     negative rho (up, down):  3.094E-02 2.180E-02

     Forces acting on atoms (cartesian axes, Ry/au):

     atom    1 type  1   force =     0.00030103    0.00014105    0.00047993
     atom    2 type  2   force =     0.00336237    0.00061762    0.00385256
     atom    3 type  2   force =    -0.00336533   -0.00061822   -0.00395650
     atom    4 type  2   force =    -0.00172954   -0.00481612    0.00182692
     atom    5 type  2   force =     0.00163553    0.00499796   -0.00190820
     atom    6 type  2   force =     0.00300499   -0.00257085   -0.00247024
     atom    7 type  2   force =    -0.00309747    0.00255729    0.00244292
     atom    8 type  3   force =    -0.00239866    0.01683571   -0.00012721
     atom    9 type  3   force =    -0.00601018    0.00713047   -0.01426658
     atom   10 type  3   force =    -0.01603298    0.00582374   -0.00000273
     atom   11 type  3   force =    -0.01218066   -0.00986531   -0.00667540
     atom   12 type  3   force =    -0.00317210    0.00767412    0.01481794
     atom   13 type  3   force =     0.01112528    0.00723115   -0.01067381
     atom   14 type  3   force =     0.00600334   -0.00724572    0.01426632
     atom   15 type  3   force =    -0.01110941   -0.00726767    0.01064489
     atom   16 type  3   force =     0.00313905   -0.00767504   -0.01489382
     atom   17 type  3   force =     0.00236506   -0.01687207    0.00002108
     atom   18 type  3   force =     0.01215634    0.00980613    0.00663764
     atom   19 type  3   force =     0.01600333   -0.00588424   -0.00001569

     Total force =     0.060329     Total SCF correction =     0.001247


     Computing stress (Cartesian axis) and pressure


     negative rho (up, down):  3.094E-02 2.180E-02
          total   stress  (Ry/bohr**3)                   (kbar)     P=        0.00
   0.00000006  -0.00000002  -0.00000002            0.01       -0.00       -0.00
  -0.00000002  -0.00000001   0.00000000           -0.00       -0.00        0.00
  -0.00000002   0.00000000   0.00000002           -0.00        0.00        0.00


     Writing all to output data dir ./out/FeH2O6.save/ :
     XML data file, charge density, pseudopotentials, collected wavefunctions

     init_run     :     17.57s CPU     17.96s WALL (       1 calls)
     electrons    :    129.94s CPU    133.28s WALL (       1 calls)
     forces       :     58.80s CPU     59.11s WALL (       1 calls)
     stress       :    207.47s CPU    208.10s WALL (       1 calls)

     Called by init_run:
     wfcinit      :     10.31s CPU     10.46s WALL (       1 calls)
     potinit      :      1.58s CPU      1.66s WALL (       1 calls)
     hinit0       :      1.42s CPU      1.45s WALL (       1 calls)

     Called by electrons:
     c_bands      :     54.60s CPU     54.89s WALL (      10 calls)
     sum_band     :     42.34s CPU     43.91s WALL (      10 calls)
     v_of_rho     :      8.43s CPU      8.48s WALL (      11 calls)
     newd         :     18.20s CPU     19.29s WALL (      11 calls)
     PAW_pot      :      7.34s CPU      7.34s WALL (      11 calls)
     mix_rho      :      1.61s CPU      1.69s WALL (      10 calls)

     Called by c_bands:
     init_us_2    :      2.07s CPU      2.08s WALL (      52 calls)
     cegterg      :     52.34s CPU     52.61s WALL (      20 calls)

     Called by *egterg:
     cdiaghg      :      0.16s CPU      0.21s WALL (      59 calls)
     h_psi        :     49.39s CPU     49.55s WALL (      61 calls)
     s_psi        :      4.71s CPU      4.71s WALL (      71 calls)
     g_psi        :      0.15s CPU      0.15s WALL (      39 calls)

     Called by h_psi:
     h_psi:calbec :      3.50s CPU      3.50s WALL (      61 calls)
     vloc_psi     :     41.67s CPU     41.70s WALL (      61 calls)
     add_vuspsi   :      3.36s CPU      3.36s WALL (      61 calls)
     vhpsi        :      0.65s CPU      0.65s WALL (      61 calls)

     General routines
     calbec       :     54.03s CPU     54.06s WALL (    3852 calls)
     fft          :      7.18s CPU      7.32s WALL (     273 calls)
     ffts         :      0.36s CPU      0.37s WALL (      20 calls)
     fftw         :     44.93s CPU     44.96s WALL (    4516 calls)

     Parallel routines

     Hubbard U routines
     new_ns       :      0.25s CPU      0.25s WALL (      10 calls)
     vhpsi        :      0.65s CPU      0.65s WALL (      61 calls)
     force_hub    :     53.52s CPU     53.61s WALL (       1 calls)
                                        0.00s GPU  (       1 calls)
     stres_hub    :    178.78s CPU    178.92s WALL (       1 calls)
                                        0.00s GPU  (       1 calls)

     PWSCF        :   6m55.62s CPU   7m 7.99s WALL


   This run was terminated on:  16:49:30  30Mar2025            

=------------------------------------------------------------------------------=
   JOB DONE.
=------------------------------------------------------------------------------=

     Program PWSCF v.7.3.1 starts on 14Oct2025 at 16:27:56 

     This program is part of the open-source Quantum ESPRESSO suite
     for quantum simulation of materials; please cite
         "P. Giannozzi et al., J. Phys.:Condens. Matter 21 395502 (2009);
         "P. Giannozzi et al., J. Phys.:Condens. Matter 29 465901 (2017);
         "P. Giannozzi et al., J. Chem. Phys. 152 154105 (2020);
          URL http://www.quantum-espresso.org", 
     in publications or presentations arising from this work. More details at
     http://www.quantum-espresso.org/quote

     Parallel version (MPI), running on    19 processors

     MPI processes distributed on     1 nodes
     242988 MiB available memory on the printing compute node when the environment starts

     Reading input from FeH2O6_HighSpin.in

     Current dimensions of program PWSCF are:
     Max number of different atomic species (ntypx) = 10
     Max number of k-points (npk) =  40000
     Max angular momentum in pseudopotentials (lmaxx) =  4
read_pp_mesh; mismatch in mesh size, discarding the one in header
read_pp_mesh; mismatch in mesh size, discarding the one in header
read_pp_mesh; mismatch in mesh size, discarding the one in header
     file Fe.GGA-PBE-paw.UPF: wavefunction(s)  4S 3P 4P 3D 4D renormalized
     file O.GGA-PBE-paw.UPF: wavefunction(s)  3S 2P 3P renormalized
     file H.GGA-PBE-paw.UPF: wavefunction(s)  2S 2P renormalized
     Message from routine setup:
     the system is metallic, specify occupations

     R & G space division:  proc/nbgrp/npool/nimage =      19
     Subspace diagonalization in iterative solution of the eigenvalue problem:
     a serial algorithm will be used


     Parallelization info
     --------------------
     sticks:   dense  smooth     PW     G-vecs:    dense   smooth      PW
     Min        2080    2080    520               313394   313394   39176
     Max        2081    2081    521               313399   313399   39179
     Sum       39535   39535   9887              5954535  5954535  744371

     Using Slab Decomposition



     bravais-lattice index     =            0
     lattice parameter (alat)  =      45.8499  a.u.
     unit-cell volume          =   97761.0916 (a.u.)^3
     number of atoms/cell      =           19
     number of atomic types    =            3
     number of electrons       =        61.00 (up:  33.00, down:  28.00)
     number of Kohn-Sham states=           33
     kinetic-energy cutoff     =      58.8000  Ry
     charge density cutoff     =     235.2000  Ry
     scf convergence threshold =      1.0E-06
     mixing beta               =       0.3000
     number of iterations used =            8  plain     mixing
     Exchange-correlation= SLA PW PBX PBC
                           (   1   4   3   4   0   0   0)
     Hubbard projectors: ortho-atomic
     Hubbard parameters of DFT+U (Dudarev formulation) in eV:
     U(Fe-3d) =  4.0000

     Internal variables: lda_plus_u =T, lda_plus_u_kind = 0

     celldm(1)=  45.849920  celldm(2)=   0.000000  celldm(3)=   0.000000
     celldm(4)=   0.000000  celldm(5)=   0.000000  celldm(6)=   0.000000

     crystal axes: (cart. coord. in units of alat)
               a(1) = (   1.000000   0.000000   0.000000 )  
               a(2) = (   0.000000   1.004765   0.000000 )  
               a(3) = (   0.000000   0.000000   1.009452 )  

     reciprocal axes: (cart. coord. in units 2 pi/alat)
               b(1) = (  1.000000  0.000000  0.000000 )  
               b(2) = (  0.000000  0.995258  0.000000 )  
               b(3) = (  0.000000  0.000000  0.990636 )  


     PseudoPot. # 1 for Fe read from file:
     ../../Fe.GGA-PBE-paw.UPF
     MD5 check sum: 2d46233e65fd0c9f60bb7b941dda812a
     Pseudo is Projector augmented-wave + core cor, Zval = 16.0
     Generated using ATOMPAW code
     Shape of augmentation charge: SINC**2
     Using radial grid of 2342 points,  6 beta functions with: 
                l(1) =   0
                l(2) =   0
                l(3) =   1
                l(4) =   1
                l(5) =   2
                l(6) =   2
     Q(r) pseudized with 0 coefficients 


     PseudoPot. # 2 for O  read from file:
     ../../O.GGA-PBE-paw.UPF
     MD5 check sum: 75cebe6e27812ecd511c7c5e5b8738d8
     Pseudo is Projector augmented-wave + core cor, Zval =  6.0
     Generated using ATOMPAW code
     Shape of augmentation charge: SINC**2
     Using radial grid of 2342 points,  4 beta functions with: 
                l(1) =   0
                l(2) =   0
                l(3) =   1
                l(4) =   1
     Q(r) pseudized with 0 coefficients 


     PseudoPot. # 3 for H  read from file:
     ../../H.GGA-PBE-paw.UPF
     MD5 check sum: b9d592600ff6b56d2e28875790887365
     Pseudo is Projector augmented-wave + core cor, Zval =  1.0
     Generated using ATOMPAW code
     Shape of augmentation charge: SINC**2
     Using radial grid of 2342 points,  3 beta functions with: 
                l(1) =   0
                l(2) =   0
                l(3) =   1
     Q(r) pseudized with 0 coefficients 


     atomic species   valence    mass     pseudopotential
     Fe               16.00    55.84500     Fe( 1.00)
     O                 6.00    16.00000     O ( 1.00)
     H                 1.00     1.00800     H ( 1.00)

     Starting magnetic structure 
     atomic species   magnetization
     Fe              0.312
     O               0.000
     H               0.000

     No symmetry found



   Cartesian axes

     site n.     atom                  positions (alat units)
         1        Fe     tau(   1) = (   0.5049239   0.5088950   0.5104014  )
         2        O      tau(   2) = (   0.4499871   0.5006430   0.4474425  )
         3        O      tau(   3) = (   0.5598423   0.5171132   0.5733963  )
         4        O      tau(   4) = (   0.5311494   0.5819925   0.4783373  )
         5        O      tau(   5) = (   0.4787569   0.4357641   0.5424351  )
         6        O      tau(   6) = (   0.4472225   0.5498139   0.5555382  )
         7        O      tau(   7) = (   0.5626660   0.4680209   0.4652840  )
         8        H      tau(   8) = (   0.4408596   0.5894241   0.5556625  )
         9        H      tau(   9) = (   0.5177021   0.5996392   0.4449114  )
        10        H      tau(  10) = (   0.4121547   0.5139773   0.4469247  )
        11        H      tau(  11) = (   0.4500299   0.4121547   0.5273786  )
        12        H      tau(  12) = (   0.5531977   0.5351463   0.6086113  )
        13        H      tau(  13) = (   0.5892919   0.4843814   0.4401259  )
        14        H      tau(  14) = (   0.4921918   0.4181672   0.5758893  )
        15        H      tau(  15) = (   0.4207033   0.5335098   0.5808461  )
        16        H      tau(  16) = (   0.4567101   0.4827820   0.4121547  )
        17        H      tau(  17) = (   0.5689050   0.4283924   0.4649736  )
        18        H      tau(  18) = (   0.5597747   0.6056645   0.4934900  )
        19        H      tau(  19) = (   0.5976345   0.5036679   0.5739440  )

     number of k points=     1
                       cart. coord. in units 2pi/alat
        k(    1) = (   0.0000000   0.0000000   0.0000000), wk =   1.0000000

     Dense  grid:  5954535 G-vectors     FFT dimensions: ( 225, 225, 225)

     Estimated max dynamical RAM per process >       1.48 GB

     Estimated total dynamical RAM >      28.09 GB
     Generating pointlists ...
     new r_m :   0.0346 (alat units)  1.5869 (a.u.) for type    1
     new r_m :   0.0165 (alat units)  0.7587 (a.u.) for type    2
     new r_m :   0.0165 (alat units)  0.7587 (a.u.) for type    3

     Initial potential from superposition of free atoms

     starting charge      63.9992, renormalised to      61.0000

     negative rho (up, down):  2.375E-02 1.653E-02

     STARTING HUBBARD OCCUPATIONS:

     =================== HUBBARD OCCUPATIONS ===================
     ------------------------ ATOM    1 ------------------------
     Tr[ns(  1)] (up, down, total) =   5.00000  2.00000  7.00000
     Atomic magnetic moment for atom   1 =   3.00000
     SPIN  1
     eigenvalues:
       1.000  1.000  1.000  1.000  1.000
     eigenvectors (columns):
       1.000  0.000  0.000  0.000  0.000
       0.000  1.000  0.000  0.000  0.000
       0.000  0.000  1.000  0.000  0.000
       0.000  0.000  0.000  1.000  0.000
       0.000  0.000  0.000  0.000  1.000
     occupation matrix ns (before diag.):
       1.000  0.000  0.000  0.000  0.000
       0.000  1.000  0.000  0.000  0.000
       0.000  0.000  1.000  0.000  0.000
       0.000  0.000  0.000  1.000  0.000
       0.000  0.000  0.000  0.000  1.000
     SPIN  2
     eigenvalues:
       0.400  0.400  0.400  0.400  0.400
     eigenvectors (columns):
       1.000  0.000  0.000  0.000  0.000
       0.000  1.000  0.000  0.000  0.000
       0.000  0.000  1.000  0.000  0.000
       0.000  0.000  0.000  1.000  0.000
       0.000  0.000  0.000  0.000  1.000
     occupation matrix ns (before diag.):
       0.400  0.000  0.000  0.000  0.000
       0.000  0.400  0.000  0.000  0.000
       0.000  0.000  0.400  0.000  0.000
       0.000  0.000  0.000  0.400  0.000
       0.000  0.000  0.000  0.000  0.400

     Number of occupied Hubbard levels =    7.0000

     Atomic wfc used for Hubbard projectors are orthogonalized

     Starting wfcs are  126 randomized atomic wfcs
     Checking if some PAW data can be deallocated... 

     total cpu time spent up to now is       19.1 secs

     per-process dynamical memory:   316.1 Mb

     Self-consistent Calculation

     iteration #  1     ecut=    58.80 Ry     beta= 0.30
     Davidson diagonalization with overlap
     ethr =  1.00E-02,  avg # of iterations =  2.5

     =================== HUBBARD OCCUPATIONS ===================
     ------------------------ ATOM    1 ------------------------
     Tr[ns(  1)] (up, down, total) =   4.88332  0.94628  5.82960
     Atomic magnetic moment for atom   1 =   3.93704
     SPIN  1
     eigenvalues:
       0.974  0.974  0.978  0.978  0.979
     eigenvectors (columns):
       0.322 -0.109 -0.381  0.523  0.683
      -0.853 -0.211 -0.244 -0.178  0.369
      -0.093  0.573  0.631 -0.033  0.513
       0.373 -0.479  0.159 -0.688  0.363
       0.141  0.621 -0.609 -0.469  0.051
     occupation matrix ns (before diag.):
       0.978  0.001  0.001 -0.001  0.000
       0.001  0.975  0.000  0.001  0.001
       0.001  0.000  0.977  0.001 -0.001
      -0.001  0.001  0.001  0.977  0.001
       0.000  0.001 -0.001  0.001  0.976
     SPIN  2
     eigenvalues:
       0.132  0.177  0.182  0.224  0.231
     eigenvectors (columns):
      -0.546  0.743 -0.125  0.160 -0.329
      -0.469  0.032  0.099  0.120  0.869
      -0.315 -0.260 -0.772 -0.487 -0.005
      -0.488 -0.605  0.067  0.536 -0.323
      -0.381 -0.114  0.611 -0.661 -0.179
     occupation matrix ns (before diag.):
       0.171 -0.026 -0.011 -0.002 -0.011
      -0.026  0.209 -0.010 -0.022 -0.020
      -0.011 -0.010  0.187 -0.019  0.008
      -0.002 -0.022 -0.019  0.186 -0.022
      -0.011 -0.020  0.008 -0.022  0.195

     Number of occupied Hubbard levels =    5.8296

     negative rho (up, down):  2.622E-02 1.888E-02

     total cpu time spent up to now is       33.3 secs

     total energy              =    -591.03094427 Ry
     estimated scf accuracy    <       7.36040854 Ry

     total magnetization       =     5.00 Bohr mag/cell
     absolute magnetization    =     5.04 Bohr mag/cell

     iteration #  2     ecut=    58.80 Ry     beta= 0.30
     Davidson diagonalization with overlap
