
                                 *****************
                                 * O   R   C   A *
                                 *****************

                                            #,                                       
                                            ###                                      
                                            ####                                     
                                            #####                                    
                                            ######                                   
                                           ########,                                 
                                     ,,################,,,,,                         
                               ,,#################################,,                 
                          ,,##########################################,,             
                       ,#########################################, ''#####,          
                    ,#############################################,,   '####,        
                  ,##################################################,,,,####,       
                ,###########''''           ''''###############################       
              ,#####''   ,,,,##########,,,,          '''####'''          '####       
            ,##' ,,,,###########################,,,                        '##       
           ' ,,###''''                  '''############,,,                           
         ,,##''                                '''############,,,,        ,,,,,,###''
      ,#''                                            '''#######################'''  
     '                                                          ''''####''''         
             ,#######,   #######,   ,#######,      ##                                
            ,#'     '#,  ##    ##  ,#'     '#,    #''#        ######   ,####,        
            ##       ##  ##   ,#'  ##            #'  '#       #        #'  '#        
            ##       ##  #######   ##           ,######,      #####,   #    #        
            '#,     ,#'  ##    ##  '#,     ,#' ,#      #,         ##   #,  ,#        
             '#######'   ##     ##  '#######'  #'      '#     #####' # '####'        



                  #######################################################
                  #                        -***-                        #
                  #          Department of theory and spectroscopy      #
                  #    Directorship and core code : Frank Neese         #
                  #        Max Planck Institute fuer Kohlenforschung    #
                  #                Kaiser Wilhelm Platz 1               #
                  #                 D-45470 Muelheim/Ruhr               #
                  #                      Germany                        #
                  #                                                     #
                  #                  All rights reserved                #
                  #                        -***-                        #
                  #######################################################


                         Program Version 5.0.3 -  RELEASE  -


 With contributions from (in alphabetic order):
   Daniel Aravena         : Magnetic Suceptibility
   Michael Atanasov       : Ab Initio Ligand Field Theory (pilot matlab implementation)
   Alexander A. Auer      : GIAO ZORA, VPT2 properties, NMR spectrum
   Ute Becker             : Parallelization
   Giovanni Bistoni       : ED, misc. LED, open-shell LED, HFLD
   Martin Brehm           : Molecular dynamics
   Dmytro Bykov           : SCF Hessian
   Vijay G. Chilkuri      : MRCI spin determinant printing, contributions to CSF-ICE
   Dipayan Datta          : RHF DLPNO-CCSD density
   Achintya Kumar Dutta   : EOM-CC, STEOM-CC
   Dmitry Ganyushin       : Spin-Orbit,Spin-Spin,Magnetic field MRCI
   Miquel Garcia          : C-PCM and meta-GGA Hessian, CC/C-PCM, Gaussian charge scheme
   Yang Guo               : DLPNO-NEVPT2, F12-NEVPT2, CIM, IAO-localization
   Andreas Hansen         : Spin unrestricted coupled pair/coupled cluster methods
   Benjamin Helmich-Paris : MC-RPA, TRAH-SCF, COSX integrals
   Lee Huntington         : MR-EOM, pCC
   Robert Izsak           : Overlap fitted RIJCOSX, COSX-SCS-MP3, EOM
   Marcus Kettner         : VPT2
   Christian Kollmar      : KDIIS, OOCD, Brueckner-CCSD(T), CCSD density, CASPT2, CASPT2-K
   Simone Kossmann        : Meta GGA functionals, TD-DFT gradient, OOMP2, MP2 Hessian
   Martin Krupicka        : Initial AUTO-CI
   Lucas Lang             : DCDCAS
   Marvin Lechner         : AUTO-CI (C++ implementation), FIC-MRCC
   Dagmar Lenk            : GEPOL surface, SMD
   Dimitrios Liakos       : Extrapolation schemes; Compound Job, initial MDCI parallelization
   Dimitrios Manganas     : Further ROCIS development; embedding schemes
   Dimitrios Pantazis     : SARC Basis sets
   Anastasios Papadopoulos: AUTO-CI, single reference methods and gradients
   Taras Petrenko         : DFT Hessian,TD-DFT gradient, ASA, ECA, R-Raman, ABS, FL, XAS/XES, NRVS
   Peter Pinski           : DLPNO-MP2, DLPNO-MP2 Gradient
   Christoph Reimann      : Effective Core Potentials
   Marius Retegan         : Local ZFS, SOC
   Christoph Riplinger    : Optimizer, TS searches, QM/MM, DLPNO-CCSD(T), (RO)-DLPNO pert. Triples
   Tobias Risthaus        : Range-separated hybrids, TD-DFT gradient, RPA, STAB
   Michael Roemelt        : Original ROCIS implementation
   Masaaki Saitow         : Open-shell DLPNO-CCSD energy and density
   Barbara Sandhoefer     : DKH picture change effects
   Avijit Sen             : IP-ROCIS
   Kantharuban Sivalingam : CASSCF convergence, NEVPT2, FIC-MRCI
   Bernardo de Souza      : ESD, SOC TD-DFT
   Georgi Stoychev        : AutoAux, RI-MP2 NMR, DLPNO-MP2 response
   Willem Van den Heuvel  : Paramagnetic NMR
   Boris Wezisla          : Elementary symmetry handling
   Frank Wennmohs         : Technical directorship


 We gratefully acknowledge several colleagues who have allowed us to
 interface, adapt or use parts of their codes:
   Stefan Grimme, W. Hujo, H. Kruse, P. Pracht,  : VdW corrections, initial TS optimization,
                  C. Bannwarth, S. Ehlert          DFT functionals, gCP, sTDA/sTD-DF
   Ed Valeev, F. Pavosevic, A. Kumar             : LibInt (2-el integral package), F12 methods
   Garnet Chan, S. Sharma, J. Yang, R. Olivares  : DMRG
   Ulf Ekstrom                                   : XCFun DFT Library
   Mihaly Kallay                                 : mrcc  (arbitrary order and MRCC methods)
   Jiri Pittner, Ondrej Demel                    : Mk-CCSD
   Frank Weinhold                                : gennbo (NPA and NBO analysis)
   Christopher J. Cramer and Donald G. Truhlar   : smd solvation model
   Lars Goerigk                                  : TD-DFT with DH, B97 family of functionals
   V. Asgeirsson, H. Jonsson                     : NEB implementation
   FAccTs GmbH                                   : IRC, NEB, NEB-TS, DLPNO-Multilevel, CI-OPT
                                                   MM, QMMM, 2- and 3-layer-ONIOM, Crystal-QMMM,
                                                   LR-CPCM, SF, NACMEs, symmetry and pop. for TD-DFT,
                                                   nearIR, NL-DFT gradient (VV10), updates on ESD,
                                                   ML-optimized integration grids
   S Lehtola, MJT Oliveira, MAL Marques          : LibXC Library
   Liviu Ungur et al                             : ANISO software


 Your calculation uses the libint2 library for the computation of 2-el integrals
 For citations please refer to: http://libint.valeyev.net

 Your ORCA version has been built with support for libXC version: 5.1.0
 For citations please refer to: https://tddft.org/programs/libxc/

 This ORCA versions uses:
   CBLAS   interface :  Fast vector & matrix operations
   LAPACKE interface :  Fast linear algebra routines
   SCALAPACK package :  Parallel linear algebra routines
   Shared memory     :  Shared parallel matrices
   BLAS/LAPACK       :  OpenBLAS 0.3.15  USE64BITINT DYNAMIC_ARCH NO_AFFINITY Zen SINGLE_THREADED
        Core in use  :  Zen
   Copyright (c) 2011-2014, The OpenBLAS Project


================================================================================

----- Orbital basis set information -----
Your calculation utilizes the basis: def2-TZVP
   F. Weigend and R. Ahlrichs, Phys. Chem. Chem. Phys. 7, 3297 (2005).

----- AuxJ basis set information -----
Your calculation utilizes the auxiliary basis: def2/J
   F. Weigend, Phys. Chem. Chem. Phys. 8, 1057 (2006).

================================================================================
                                        WARNINGS
                       Please study these warnings very carefully!
================================================================================


WARNING: your system is open-shell and RHF/RKS was chosen
  ===> : WILL SWITCH to UHF/UKS


INFO   : the flag for use of the SHARK integral package has been found!

================================================================================
                                       INPUT FILE
================================================================================
NAME = Fe2_tert-butoxide_6_HighSpin.inp
|  1> ! PBE0 def2-TZVP
|  2> %pal nprocs 32 end
|  3> %maxcore 3000
|  4> 
|  5> * xyz 0 11
|  6>   Fe  9.68933399600220      3.39849518094285      6.87001064205514
|  7>   O   9.73223524423931      1.41414891120639      6.68833216677878
|  8>   O   10.96570824632888      4.22717195490451      5.89655071814027
|  9>   O   8.04919101800948      4.11339538235480      6.70574605478698
| 10>   C   8.99040840350320      0.56783839638236      5.80063007543780
| 11>   C   11.04432257016929      5.26146545779687      4.94476656143090
| 12>   C   6.84418636957156      4.48922475841785      7.32437859257677
| 13>   C   9.70362291968385     -0.77446719624016      5.72505785014614
| 14>   H   10.72289770758931     -0.64810983002896      5.35491143059891
| 15>   H   9.17475311771253     -1.45201915264420      5.05112916064249
| 16>   H   9.74356683569655     -1.24791808107465      6.71001419932176
| 17>   C   7.57753988033599      0.39022045028855      6.33704166195394
| 18>   H   7.60475816617394     -0.01107029989348      7.35210339705502
| 19>   H   7.00882029652575     -0.29280834630610      5.70134341787658
| 20>   H   7.06051462612647      1.35081965453573      6.35611021892883
| 21>   C   8.96643777065167      1.23224810037707      4.43261631869003
| 22>   H   8.45036285760419      2.19497453865234      4.48209439332983
| 23>   H   8.43670099923648      0.60609382487029      3.71104885449213
| 24>   H   9.98283078639083      1.39776451752783      4.06938399419346
| 25>   C   12.47170858145499      5.27514062171004      4.40774640927456
| 26>   H   13.17950782458075      5.45736827059044      5.21926577951253
| 27>   H   12.60182547607366      6.05455042929835      3.65259803969019
| 28>   H   12.71118903714030      4.30991138596865      3.95647676286992
| 29>   C   10.71928113733957      6.59148804109747      5.61874123305251
| 30>   H   9.70574259224073      6.56744150564428      6.02629078079965
| 31>   H   10.78576957930441      7.41991566242545      4.90883235599808
| 32>   H   11.42028710115692      6.78313379845524      6.43464898816582
| 33>   C   10.05788194193539      4.99614478538076      3.81129778028802
| 34>   H   10.28119176480209      4.04066423853628      3.33119770259558
| 35>   H   10.11299459715671      5.78173262404334      3.05342999318343
| 36>   H   9.03704096965580      4.96208795820226      4.19962328024936
| 37>   C   6.62741244279308      3.66844996647830      8.59130950172930
| 38>   H   6.58350755052920      2.60290973827941      8.35791821219701
| 39>   H   5.69422639978378      3.95148135735270      9.08459741096791
| 40>   H   7.44882318863773      3.82445914809806      9.29396088887979
| 41>   C   5.71082904004920      4.24327892441330      6.33229103791011
| 42>   H   5.88488885200913      4.81033550626493      5.41543297273932
| 43>   H   4.75020515694372      4.55004183032144      6.75337588926498
| 44>   H   5.64921186745293      3.18416623742809      6.07399443662822
| 45>   C   6.91698393180644      5.97580963311066      7.66213861443412
| 46>   H   7.73867804579083      6.17077151305027      8.35435059327763
| 47>   H   5.98836491949040      6.31682832127821      8.12674439132750
| 48>   H   7.08353108959429      6.56112815405541      6.75515769879538
| 49>   Fe  10.43410461794353      0.99521983662377      8.48155996969057
| 50>   O   10.39123540493362      2.97956773637437      8.66322655920427
| 51>   O   9.15772245760705      0.16653752785107      9.45500273712099
| 52>   O   12.07424746740905      0.28032761982059      8.64586620082063
| 53>   C   11.13315605355410      3.82585730159574      9.55085858958105
| 54>   C   9.07909794362366     -0.86779791719320     10.40674192937403
| 55>   C   13.27939264741959     -0.09519710254949      8.02732708434303
| 56>   C   10.41998584308267      5.16818347246050      9.62648165076240
| 57>   H   9.40073500308337      5.04185530964774      9.99670734762209
| 58>   H   10.94892660961744      5.84572365748478     10.30036656554594
| 59>   H   10.37997902925302      5.64163160686800      8.64152654148306
| 60>   C   12.54597573701458      4.00341656676235      9.01429816404989
| 61>   H   12.51866474575079      4.40471830701199      7.99924317473171
| 62>   H   13.11479110498043      4.68641558502424      9.64994210166157
| 63>   H   13.06295854229641      3.04279417362123      8.99516263392767
| 64>   C   11.15723483501486      3.16145314593101     10.91887266115783
| 65>   H   11.67328418104538      2.19871515301360     10.86935125251993
| 66>   H   11.68705215490418      3.78759801558019     11.64038918846187
| 67>   H   10.14087166206660      2.99596027352376     11.28219861393613
| 68>   C   7.65171791710271     -0.88146485014045     10.94377745860676
| 69>   H   6.94390535679223     -1.06364212148308     10.13225839949405
| 70>   H   7.52159300995870     -1.66090462739365     11.69889342045124
| 71>   H   7.41226397063272      0.08375010607248     11.39509165192676
| 72>   C   9.40409894195056     -2.19780138486915      9.73270872202122
| 73>   H   10.41763167631180     -2.17376440985463      9.32514710029874
| 74>   H   9.33759647175383     -3.02625651903131     10.44258410379550
| 75>   H   8.70307652314507     -2.38939434802245      8.91680263782164
| 76>   C   10.06555470773849     -0.60254494609668     11.54021245419323
| 77>   H   9.84227224502622      0.35292400064544     12.02034731538584
| 78>   H   10.01042793264616     -1.38815896775571     12.29805200800553
| 79>   H   11.08639422118982     -0.56850203251495     11.15188126982835
| 80>   C   13.49653684003868      0.72634888805794      6.76096203479565
| 81>   H   13.54041211347261      1.79174517034355      6.99502623073019
| 82>   H   14.42984519350602      0.44359149945124      6.26774874761637
| 83>   H   12.67530965414263      0.57079830746473      6.05799795870624
| 84>   C   14.41250204884890      0.15009690967001      9.01985811429946
| 85>   H   14.23817312556527     -0.41750305423671      9.93632869725168
| 86>   H   15.37321983094510     -0.15646288474941      8.59883923613454
| 87>   H   14.47410883605980      1.20904998396926      9.27880854042406
| 88>   C   13.20661424374211     -1.58157467103917      7.68864893159296
| 89>   H   12.38510033066697     -1.77607577375762      6.99609264109876
| 90>   H   14.13534351281197     -1.92235647068589      7.22409035993507
| 91>   H   13.03979035607678     -2.16743594704946      8.59522853732405
| 92> *
| 93> 
| 94>                          ****END OF INPUT****
================================================================================

                       ****************************
                       * Single Point Calculation *
                       ****************************

---------------------------------
CARTESIAN COORDINATES (ANGSTROEM)
---------------------------------
  Fe     9.689334    3.398495    6.870011
  O      9.732235    1.414149    6.688332
  O     10.965708    4.227172    5.896551
  O      8.049191    4.113395    6.705746
  C      8.990408    0.567838    5.800630
  C     11.044323    5.261465    4.944767
  C      6.844186    4.489225    7.324379
  C      9.703623   -0.774467    5.725058
  H     10.722898   -0.648110    5.354911
  H      9.174753   -1.452019    5.051129
  H      9.743567   -1.247918    6.710014
  C      7.577540    0.390220    6.337042
  H      7.604758   -0.011070    7.352103
  H      7.008820   -0.292808    5.701343
  H      7.060515    1.350820    6.356110
  C      8.966438    1.232248    4.432616
  H      8.450363    2.194975    4.482094
  H      8.436701    0.606094    3.711049
  H      9.982831    1.397765    4.069384
  C     12.471709    5.275141    4.407746
  H     13.179508    5.457368    5.219266
  H     12.601825    6.054550    3.652598
  H     12.711189    4.309911    3.956477
  C     10.719281    6.591488    5.618741
  H      9.705743    6.567442    6.026291
  H     10.785770    7.419916    4.908832
  H     11.420287    6.783134    6.434649
  C     10.057882    4.996145    3.811298
  H     10.281192    4.040664    3.331198
  H     10.112995    5.781733    3.053430
  H      9.037041    4.962088    4.199623
  C      6.627412    3.668450    8.591310
  H      6.583508    2.602910    8.357918
  H      5.694226    3.951481    9.084597
  H      7.448823    3.824459    9.293961
  C      5.710829    4.243279    6.332291
  H      5.884889    4.810336    5.415433
  H      4.750205    4.550042    6.753376
  H      5.649212    3.184166    6.073994
  C      6.916984    5.975810    7.662139
  H      7.738678    6.170772    8.354351
  H      5.988365    6.316828    8.126744
  H      7.083531    6.561128    6.755158
  Fe    10.434105    0.995220    8.481560
  O     10.391235    2.979568    8.663227
  O      9.157722    0.166538    9.455003
  O     12.074247    0.280328    8.645866
  C     11.133156    3.825857    9.550859
  C      9.079098   -0.867798   10.406742
  C     13.279393   -0.095197    8.027327
  C     10.419986    5.168183    9.626482
  H      9.400735    5.041855    9.996707
  H     10.948927    5.845724   10.300367
  H     10.379979    5.641632    8.641527
  C     12.545976    4.003417    9.014298
  H     12.518665    4.404718    7.999243
  H     13.114791    4.686416    9.649942
  H     13.062959    3.042794    8.995163
  C     11.157235    3.161453   10.918873
  H     11.673284    2.198715   10.869351
  H     11.687052    3.787598   11.640389
  H     10.140872    2.995960   11.282199
  C      7.651718   -0.881465   10.943777
  H      6.943905   -1.063642   10.132258
  H      7.521593   -1.660905   11.698893
  H      7.412264    0.083750   11.395092
  C      9.404099   -2.197801    9.732709
  H     10.417632   -2.173764    9.325147
  H      9.337596   -3.026257   10.442584
  H      8.703077   -2.389394    8.916803
  C     10.065555   -0.602545   11.540212
  H      9.842272    0.352924   12.020347
  H     10.010428   -1.388159   12.298052
  H     11.086394   -0.568502   11.151881
  C     13.496537    0.726349    6.760962
  H     13.540412    1.791745    6.995026
  H     14.429845    0.443591    6.267749
  H     12.675310    0.570798    6.057998
  C     14.412502    0.150097    9.019858
  H     14.238173   -0.417503    9.936329
  H     15.373220   -0.156463    8.598839
  H     14.474109    1.209050    9.278809
  C     13.206614   -1.581575    7.688649
  H     12.385100   -1.776076    6.996093
  H     14.135344   -1.922356    7.224090
  H     13.039790   -2.167436    8.595229

----------------------------
CARTESIAN COORDINATES (A.U.)
----------------------------
  NO LB      ZA    FRAG     MASS         X           Y           Z
   0 Fe   26.0000    0    55.850   18.310188    6.422225   12.982439
   1 O     8.0000    0    15.999   18.391259    2.672354   12.639116
   2 O     8.0000    0    15.999   20.722185    7.988197   11.142866
   3 O     8.0000    0    15.999   15.210767    7.773191   12.672024
   4 C     6.0000    0    12.011   16.989410    1.073059   10.961602
   5 C     6.0000    0    12.011   20.870745    9.942729    9.344255
   6 C     6.0000    0    12.011   12.933638    8.483405   13.841070
   7 C     6.0000    0    12.011   18.337190   -1.463531   10.818791
   8 H     1.0000    0     1.008   20.263340   -1.224750   10.119316
   9 H     1.0000    0     1.008   17.337771   -2.743919    9.545251
  10 H     1.0000    0     1.008   18.412673   -2.358223   12.680089
  11 C     6.0000    0    12.011   14.319475    0.737410   11.975273
  12 H     1.0000    0     1.008   14.370910   -0.020920   13.893462
  13 H     1.0000    0     1.008   13.244751   -0.553328   10.773978
  14 H     1.0000    0     1.008   13.342439    2.552679   12.011308
  15 C     6.0000    0    12.011   16.944112    2.328611    8.376431
  16 H     1.0000    0     1.008   15.968872    4.147901    8.469931
  17 H     1.0000    0     1.008   15.943054    1.145351    7.012866
  18 H     1.0000    0     1.008   18.864816    2.641392    7.690021
  19 C     6.0000    0    12.011   23.568114    9.968571    8.329434
  20 H     1.0000    0     1.008   24.905660   10.312931    9.862983
  21 H     1.0000    0     1.008   23.813999   11.441442    6.902410
  22 H     1.0000    0     1.008   24.020666    8.144552    7.476658
  23 C     6.0000    0    12.011   20.256506   12.456107   10.617882
  24 H     1.0000    0     1.008   18.341195   12.410666   11.388039
  25 H     1.0000    0     1.008   20.382151   14.021609    9.276349
  26 H     1.0000    0     1.008   21.581215   12.818265   12.159724
  27 C     6.0000    0    12.011   19.006642    9.441345    7.202309
  28 H     1.0000    0     1.008   19.428637    7.635749    6.295051
  29 H     1.0000    0     1.008   19.110790   10.925891    5.770146
  30 H     1.0000    0     1.008   17.077532    9.376987    7.936138
  31 C     6.0000    0    12.011   12.523994    6.932366   16.235222
  32 H     1.0000    0     1.008   12.441026    4.918787   15.794176
  33 H     1.0000    0     1.008   10.760528    7.467218   17.167401
  34 H     1.0000    0     1.008   14.076236    7.227180   17.563041
  35 C     6.0000    0    12.011   10.791903    8.018635   11.966296
  36 H     1.0000    0     1.008   11.120828    9.090217   10.233685
  37 H     1.0000    0     1.008    8.976587    8.598333   12.762031
  38 H     1.0000    0     1.008   10.675463    6.017202   11.478186
  39 C     6.0000    0    12.011   13.071205   11.292644   14.479344
  40 H     1.0000    0     1.008   14.623982   11.661068   15.787435
  41 H     1.0000    0     1.008   11.316370   11.937076   15.357321
  42 H     1.0000    0     1.008   13.385934   12.398735   12.765398
  43 Fe   26.0000    0    55.850   19.717600    1.880693   16.027826
  44 O     8.0000    0    15.999   19.636589    5.630567   16.371126
  45 O     8.0000    0    15.999   17.305587    0.314710   17.867366
  46 O     8.0000    0    15.999   22.817021    0.529742   16.338319
  47 C     6.0000    0    12.011   21.038616    7.229823   18.048507
  48 C     6.0000    0    12.011   17.157009   -1.639900   19.665892
  49 C     6.0000    0    12.011   25.094415   -0.179896   15.169450
  50 C     6.0000    0    12.011   19.690920    9.766451   18.191414
  51 H     1.0000    0     1.008   17.764815    9.527726   18.891039
  52 H     1.0000    0     1.008   20.690473   11.046817   19.464872
  53 H     1.0000    0     1.008   19.615318   10.661139   16.330119
  54 C     6.0000    0    12.011   23.708458    7.565361   17.034555
  55 H     1.0000    0     1.008   23.656848    8.323711   15.116379
  56 H     1.0000    0     1.008   24.783363    8.856042   18.235748
  57 H     1.0000    0     1.008   24.685414    5.750048   16.998394
  58 C     6.0000    0    12.011   21.084118    5.974281   20.633679
  59 H     1.0000    0     1.008   22.059310    4.154969   20.540097
  60 H     1.0000    0     1.008   22.085328    7.157523   21.997148
  61 H     1.0000    0     1.008   19.163470    5.661544   21.320266
  62 C     6.0000    0    12.011   14.459651   -1.665727   20.680742
  63 H     1.0000    0     1.008   13.122079   -2.009992   19.147193
  64 H     1.0000    0     1.008   14.213751   -3.138655   22.107705
  65 H     1.0000    0     1.008   14.007149    0.158265   21.533602
  66 C     6.0000    0    12.011   17.771172   -4.153243   18.392154
  67 H     1.0000    0     1.008   19.686471   -4.107819   17.621974
  68 H     1.0000    0     1.008   17.645500   -5.718796   19.733624
  69 H     1.0000    0     1.008   16.446431   -4.515301   16.850315
  70 C     6.0000    0    12.011   19.021142   -1.138645   21.807841
  71 H     1.0000    0     1.008   18.599199    0.666930   22.715164
  72 H     1.0000    0     1.008   18.916967   -2.623240   23.239950
  73 H     1.0000    0     1.008   20.950249   -1.074313   21.074001
  74 C     6.0000    0    12.011   25.504758    1.372600   12.776367
  75 H     1.0000    0     1.008   25.587671    3.385908   13.218684
  76 H     1.0000    0     1.008   27.268456    0.838266   11.844329
  77 H     1.0000    0     1.008   23.952864    1.078652   11.447957
  78 C     6.0000    0    12.011   27.235682    0.283642   17.045062
  79 H     1.0000    0     1.008   26.906248   -0.788966   18.776940
  80 H     1.0000    0     1.008   29.051175   -0.295672   16.249451
  81 H     1.0000    0     1.008   27.352102    2.284773   17.534407
  82 C     6.0000    0    12.011   24.956884   -2.988743   14.529441
  83 H     1.0000    0     1.008   23.404448   -3.356297   13.220699
  84 H     1.0000    0     1.008   26.711928   -3.632727   13.651552
  85 H     1.0000    0     1.008   24.641633   -4.095860   16.242628

--------------------------------
INTERNAL COORDINATES (ANGSTROEM)
--------------------------------
 Fe     0   0   0     0.000000000000     0.00000000     0.00000000
 O      1   0   0     1.993107549455     0.00000000     0.00000000
 O      1   2   0     1.806505091625   113.10231808     0.00000000
 O      1   2   3     1.796700904677   114.04552864   133.01846151
 C      2   1   3     1.433374881917   129.28282384   265.62177211
 C      3   1   2     1.407777092796   137.79926283   127.71549221
 C      4   1   2     1.405699163933   148.06825896    87.50202535
 C      5   2   1     1.521896977890   107.99741801   161.25379371
 H      8   5   2     1.091739735083   110.62703697   300.39822293
 H      8   5   2     1.092226990877   110.53974062   180.39253076
 H      8   5   2     1.093567678088   110.74717911    61.04813928
 C      5   2   1     1.521671117121   109.33776788   281.49633108
 H     12   5   2     1.091844964879   110.33318893   303.37356660
 H     12   5   2     1.092740847370   110.55615385   182.83745074
 H     12   5   2     1.091068079707   110.08301358    63.23330203
 C      5   2   1     1.521011664864   107.89395438    41.95310685
 H     16   5   2     1.093445742002   110.56929101   297.51158001
 H     16   5   2     1.092405524114   110.56989899   178.20004219
 H     16   5   2     1.091965277996   110.53157831    57.94551400
 C      6   3   1     1.525125725684   107.27231764   188.01861451
 H     20   6   3     1.092131115232   110.26785718   299.89369125
 H     20   6   3     1.093004626942   111.16676388   179.52045401
 H     20   6   3     1.092090957728   110.04802679    59.18533840
 C      6   3   1     1.526058276454   109.25880069    68.44056158
 H     24   6   3     1.092673442588   110.06673815   299.25255474
 H     24   6   3     1.093015850944   111.14708163   179.16798011
 H     24   6   3     1.092631192340   110.24327017    59.14245701
 C      6   3   1     1.525847846303   109.77796255   307.74131947
 H     28   6   3     1.092385663119   110.26804375   300.74569760
 H     28   6   3     1.092954363069   110.94766441   180.78805233
 H     28   6   3     1.092736405581   110.20539659    60.69814756
 C      7   4   1     1.525049547713   110.09381823   335.47794786
 H     32   7   4     1.091684529296   110.69649156   300.20552021
 H     32   7   4     1.092829319010   110.91474983   179.88748610
 H     32   7   4     1.092141680371   110.52963898    59.68829182
 C      7   4   1     1.526180168188   107.90398428   214.99342770
 H     36   7   4     1.092006729297   110.10451756   301.95805268
 H     36   7   4     1.092801069397   110.92053369   181.80498735
 H     36   7   4     1.091894451825   110.60928649    61.62555019
 C      7   4   1     1.526209653717   108.47711868    96.27410139
 H     40   7   4     1.091947240136   110.49308090   298.89563322
 H     40   7   4     1.092925223260   110.94510396   178.75024097
 H     40   7   4     1.092222554272   110.21133548    58.70144267
 Fe     2   1   3     1.970732894233    97.83748226   108.07413413
 O      1   2   3     1.970733142054    82.16251432   251.92686976
 O     44   2   1     1.806503974410   109.64539267   111.80325886
 O     44   2   1     1.796701418123   119.53181892   246.75072762
 C     45   1   2     1.433367677326   128.48618692   157.80613428
 C     46  44   2     1.407778078088   137.79905678   142.57522289
 C     47  44   2     1.405697108422   148.06832977     7.17758526
 C     48  45   1     1.521896890553   107.99737703    47.65516255
 H     51  48  45     1.091740878677   110.62698516    59.60144374
 H     51  48  45     1.092227043795   110.53981124   179.60719630
 H     51  48  45     1.093567669796   110.74714961   298.95158761
 C     48  45   1     1.521671397137   109.33642839   287.41291335
 H     55  48  45     1.091845047757   110.33304431    56.62762102
 H     55  48  45     1.092740498565   110.55603544   177.16359468
 H     55  48  45     1.091069554004   110.08319457   296.76797289
 C     48  45   1     1.521011232639   107.89420551   166.95637344
 H     59  48  45     1.093445810481   110.56923085    62.48841958
 H     59  48  45     1.092405551714   110.56988606   181.79983966
 H     59  48  45     1.091965080992   110.53167797   302.05447299
 C     49  46  44     1.525125465273   107.27221384   171.98187412
 H     63  49  46     1.092131110275   110.26787089    60.10640920
 H     63  49  46     1.093004562505   111.16672698   180.47962442
 H     63  49  46     1.092090932693   110.04802097   300.81473416
 C     49  46  44     1.526058857829   109.25907492   291.55980523
 H     67  49  46     1.092672345807   110.06683529    60.74749211
 H     67  49  46     1.093015802956   111.14707075   180.83224314
 H     67  49  46     1.092631243115   110.24310550   300.85758849
 C     49  46  44     1.525847802626   109.77789971    52.25939805
 H     71  49  46     1.092385211945   110.26790232    59.25363323
 H     71  49  46     1.092954318204   110.94769325   179.21130722
 H     71  49  46     1.092736629266   110.20546305   299.30112096
 C     50  47  44     1.525047492305   110.09298838    24.53598060
 H     75  50  47     1.091686917456   110.69622438    59.79298279
 H     75  50  47     1.092829158704   110.91497715   180.11120091
 H     75  50  47     1.092139444508   110.52936443   300.31040136
 C     50  47  44     1.526179515478   107.90397890   145.01942197
 H     79  50  47     1.092006695006   110.10440158    58.04236615
 H     79  50  47     1.092801198829   110.92042088   178.19527150
 H     79  50  47     1.091893920209   110.60956114   298.37472153
 C     50  47  44     1.526210294586   108.47765850   263.73908870
 H     83  50  47     1.091947802708   110.49298707    61.10491282
 H     83  50  47     1.092924954742   110.94500992   181.25012263
 H     83  50  47     1.092222608149   110.21152834   301.29897963

---------------------------
INTERNAL COORDINATES (A.U.)
---------------------------
 Fe     0   0   0     0.000000000000     0.00000000     0.00000000
 O      1   0   0     3.766427423922     0.00000000     0.00000000
 O      1   2   0     3.413799882707   113.10231808     0.00000000
 O      1   2   3     3.395272654409   114.04552864   133.01846151
 C      2   1   3     2.708685974064   129.28282384   265.62177211
 C      3   1   2     2.660313162992   137.79926283   127.71549221
 C      4   1   2     2.656386446515   148.06825896    87.50202535
 C      5   2   1     2.875968492255   107.99741801   161.25379371
 H      8   5   2     2.063089108827   110.62703697   300.39822293
 H      8   5   2     2.064009888834   110.53974062   180.39253076
 H      8   5   2     2.066543420494   110.74717911    61.04813928
 C      5   2   1     2.875541677257   109.33776788   281.49633108
 H     12   5   2     2.063287964323   110.33318893   303.37356660
 H     12   5   2     2.064980936877   110.55615385   182.83745074
 H     12   5   2     2.061819864110   110.08301358    63.23330203
 C      5   2   1     2.874295493093   107.89395438    41.95310685
 H     16   5   2     2.066312994685   110.56929101   297.51158001
 H     16   5   2     2.064347267757   110.56989899   178.20004219
 H     16   5   2     2.063515323164   110.53157831    57.94551400
 C      6   3   1     2.882069941341   107.27231764   188.01861451
 H     20   6   3     2.063828710122   110.26785718   299.89369125
 H     20   6   3     2.065479408029   111.16676388   179.52045401
 H     20   6   3     2.063752823438   110.04802679    59.18533840
 C      6   3   1     2.883832206902   109.25880069    68.44056158
 H     24   6   3     2.064853560300   110.06673815   299.25255474
 H     24   6   3     2.065500618319   111.14708163   179.16798011
 H     24   6   3     2.064773718903   110.24327017    59.14245701
 C      6   3   1     2.883434551546   109.77796255   307.74131947
 H     28   6   3     2.064309735916   110.26804375   300.74569760
 H     28   6   3     2.065384423074   110.94766441   180.78805233
 H     28   6   3     2.064972543114   110.20539659    60.69814756
 C      7   4   1     2.881925985839   110.09381823   335.47794786
 H     32   7   4     2.062984785008   110.69649156   300.20552021
 H     32   7   4     2.065148124049   110.91474983   179.88748610
 H     32   7   4     2.063848675341   110.52963898    59.68829182
 C      7   4   1     2.884062548897   107.90398428   214.99342770
 H     36   7   4     2.063593654770   110.10451756   301.95805268
 H     36   7   4     2.065094740016   110.92053369   181.80498735
 H     36   7   4     2.063381481097   110.60928649    61.62555019
 C      7   4   1     2.884118268471   108.47711868    96.27410139
 H     40   7   4     2.063481236548   110.49308090   298.89563322
 H     40   7   4     2.065329356815   110.94510396   178.75024097
 H     40   7   4     2.064001504867   110.21133548    58.70144267
 Fe     2   1   3     3.724145453210    97.83748226   108.07413413
 O      1   2   3     3.724145921524    82.16251432   251.92686976
 O     44   2   1     3.413797771476   109.64539267   111.80325886
 O     44   2   1     3.395273624681   119.53181892   246.75072762
 C     45   1   2     2.708672359361   128.48618692   157.80613428
 C     46  44   2     2.660315024924   137.79905678   142.57522289
 C     47  44   2     2.656382562163   148.06832977     7.17758526
 C     48  45   1     2.875968327211   107.99737703    47.65516255
 H     51  48  45     2.063091269906   110.62698516    59.60144374
 H     51  48  45     2.064009988836   110.53981124   179.60719630
 H     51  48  45     2.066543404824   110.74714961   298.95158761
 C     48  45   1     2.875542206411   109.33642839   287.41291335
 H     55  48  45     2.063288120938   110.33304431    56.62762102
 H     55  48  45     2.064980277732   110.55603544   177.16359468
 H     55  48  45     2.061822650127   110.08319457   296.76797289
 C     48  45   1     2.874294676305   107.89420551   166.95637344
 H     59  48  45     2.066313124093   110.56923085    62.48841958
 H     59  48  45     2.064347319915   110.56988606   181.79983966
 H     59  48  45     2.063514950880   110.53167797   302.05447299
 C     49  46  44     2.882069449236   107.27221384   171.98187412
 H     63  49  46     2.063828700755   110.26787089    60.10640920
 H     63  49  46     2.065479286260   111.16672698   180.47962442
 H     63  49  46     2.063752776128   110.04802097   300.81473416
 C     49  46  44     2.883833305541   109.25907492   291.55980523
 H     67  49  46     2.064851487684   110.06683529    60.74749211
 H     67  49  46     2.065500527634   111.14707075   180.83224314
 H     67  49  46     2.064773814854   110.24310550   300.85758849
 C     49  46  44     2.883434469008   109.77789971    52.25939805
 H     71  49  46     2.064308883321   110.26790232    59.25363323
 H     71  49  46     2.065384338293   110.94769325   179.21130722
 H     71  49  46     2.064972965816   110.20546305   299.30112096
 C     50  47  44     2.881922101680   110.09298838    24.53598060
 H     75  50  47     2.062989297977   110.69622438    59.79298279
 H     75  50  47     2.065147821114   110.91497715   180.11120091
 H     75  50  47     2.063844450173   110.52936443   300.31040136
 C     50  47  44     2.884061315454   107.90397890   145.01942197
 H     79  50  47     2.063593589969   110.10440158    58.04236615
 H     79  50  47     2.065094984607   110.92042088   178.19527150
 H     79  50  47     2.063380476488   110.60956114   298.37472153
 C     50  47  44     2.884119479539   108.47765850   263.73908870
 H     83  50  47     2.063482299654   110.49298707    61.10491282
 H     83  50  47     2.065328849391   110.94500992   181.25012263
 H     83  50  47     2.064001606679   110.21152834   301.29897963

---------------------
BASIS SET INFORMATION
---------------------
There are 4 groups of distinct atoms

 Group   1 Type Fe  : 17s11p7d1f contracted to 6s4p4d1f pattern {842111/6311/4111/1}
 Group   2 Type O   : 11s6p2d1f contracted to 5s3p2d1f pattern {62111/411/11/1}
 Group   3 Type C   : 11s6p2d1f contracted to 5s3p2d1f pattern {62111/411/11/1}
 Group   4 Type H   : 5s1p contracted to 3s1p pattern {311/1}

Atom   0Fe   basis set group =>   1
Atom   1O    basis set group =>   2
Atom   2O    basis set group =>   2
Atom   3O    basis set group =>   2
Atom   4C    basis set group =>   3
Atom   5C    basis set group =>   3
Atom   6C    basis set group =>   3
Atom   7C    basis set group =>   3
Atom   8H    basis set group =>   4
Atom   9H    basis set group =>   4
Atom  10H    basis set group =>   4
Atom  11C    basis set group =>   3
Atom  12H    basis set group =>   4
Atom  13H    basis set group =>   4
Atom  14H    basis set group =>   4
Atom  15C    basis set group =>   3
Atom  16H    basis set group =>   4
Atom  17H    basis set group =>   4
Atom  18H    basis set group =>   4
Atom  19C    basis set group =>   3
Atom  20H    basis set group =>   4
Atom  21H    basis set group =>   4
Atom  22H    basis set group =>   4
Atom  23C    basis set group =>   3
Atom  24H    basis set group =>   4
Atom  25H    basis set group =>   4
Atom  26H    basis set group =>   4
Atom  27C    basis set group =>   3
Atom  28H    basis set group =>   4
Atom  29H    basis set group =>   4
Atom  30H    basis set group =>   4
Atom  31C    basis set group =>   3
Atom  32H    basis set group =>   4
Atom  33H    basis set group =>   4
Atom  34H    basis set group =>   4
Atom  35C    basis set group =>   3
Atom  36H    basis set group =>   4
Atom  37H    basis set group =>   4
Atom  38H    basis set group =>   4
Atom  39C    basis set group =>   3
Atom  40H    basis set group =>   4
Atom  41H    basis set group =>   4
Atom  42H    basis set group =>   4
Atom  43Fe   basis set group =>   1
Atom  44O    basis set group =>   2
Atom  45O    basis set group =>   2
Atom  46O    basis set group =>   2
Atom  47C    basis set group =>   3
Atom  48C    basis set group =>   3
Atom  49C    basis set group =>   3
Atom  50C    basis set group =>   3
Atom  51H    basis set group =>   4
Atom  52H    basis set group =>   4
Atom  53H    basis set group =>   4
Atom  54C    basis set group =>   3
Atom  55H    basis set group =>   4
Atom  56H    basis set group =>   4
Atom  57H    basis set group =>   4
Atom  58C    basis set group =>   3
Atom  59H    basis set group =>   4
Atom  60H    basis set group =>   4
Atom  61H    basis set group =>   4
Atom  62C    basis set group =>   3
Atom  63H    basis set group =>   4
Atom  64H    basis set group =>   4
Atom  65H    basis set group =>   4
Atom  66C    basis set group =>   3
Atom  67H    basis set group =>   4
Atom  68H    basis set group =>   4
Atom  69H    basis set group =>   4
Atom  70C    basis set group =>   3
Atom  71H    basis set group =>   4
Atom  72H    basis set group =>   4
Atom  73H    basis set group =>   4
Atom  74C    basis set group =>   3
Atom  75H    basis set group =>   4
Atom  76H    basis set group =>   4
Atom  77H    basis set group =>   4
Atom  78C    basis set group =>   3
Atom  79H    basis set group =>   4
Atom  80H    basis set group =>   4
Atom  81H    basis set group =>   4
Atom  82C    basis set group =>   3
Atom  83H    basis set group =>   4
Atom  84H    basis set group =>   4
Atom  85H    basis set group =>   4
---------------------------------
AUXILIARY/J BASIS SET INFORMATION
---------------------------------
There are 4 groups of distinct atoms

 Group   1 Type Fe  : 19s5p5d3f3g contracted to 8s5p5d2f3g pattern {121111111/11111/11111/21/111}
 Group   2 Type O   : 12s5p4d2f1g contracted to 6s4p3d1f1g pattern {711111/2111/211/2/1}
 Group   3 Type C   : 12s5p4d2f1g contracted to 6s4p3d1f1g pattern {711111/2111/211/2/1}
 Group   4 Type H   : 5s2p1d contracted to 3s1p1d pattern {311/2/1}

Atom   0Fe   basis set group =>   1
Atom   1O    basis set group =>   2
Atom   2O    basis set group =>   2
Atom   3O    basis set group =>   2
Atom   4C    basis set group =>   3
Atom   5C    basis set group =>   3
Atom   6C    basis set group =>   3
Atom   7C    basis set group =>   3
Atom   8H    basis set group =>   4
Atom   9H    basis set group =>   4
Atom  10H    basis set group =>   4
Atom  11C    basis set group =>   3
Atom  12H    basis set group =>   4
Atom  13H    basis set group =>   4
Atom  14H    basis set group =>   4
Atom  15C    basis set group =>   3
Atom  16H    basis set group =>   4
Atom  17H    basis set group =>   4
Atom  18H    basis set group =>   4
Atom  19C    basis set group =>   3
Atom  20H    basis set group =>   4
Atom  21H    basis set group =>   4
Atom  22H    basis set group =>   4
Atom  23C    basis set group =>   3
Atom  24H    basis set group =>   4
Atom  25H    basis set group =>   4
Atom  26H    basis set group =>   4
Atom  27C    basis set group =>   3
Atom  28H    basis set group =>   4
Atom  29H    basis set group =>   4
Atom  30H    basis set group =>   4
Atom  31C    basis set group =>   3
Atom  32H    basis set group =>   4
Atom  33H    basis set group =>   4
Atom  34H    basis set group =>   4
Atom  35C    basis set group =>   3
Atom  36H    basis set group =>   4
Atom  37H    basis set group =>   4
Atom  38H    basis set group =>   4
Atom  39C    basis set group =>   3
Atom  40H    basis set group =>   4
Atom  41H    basis set group =>   4
Atom  42H    basis set group =>   4
Atom  43Fe   basis set group =>   1
Atom  44O    basis set group =>   2
Atom  45O    basis set group =>   2
Atom  46O    basis set group =>   2
Atom  47C    basis set group =>   3
Atom  48C    basis set group =>   3
Atom  49C    basis set group =>   3
Atom  50C    basis set group =>   3
Atom  51H    basis set group =>   4
Atom  52H    basis set group =>   4
Atom  53H    basis set group =>   4
Atom  54C    basis set group =>   3
Atom  55H    basis set group =>   4
Atom  56H    basis set group =>   4
Atom  57H    basis set group =>   4
Atom  58C    basis set group =>   3
Atom  59H    basis set group =>   4
Atom  60H    basis set group =>   4
Atom  61H    basis set group =>   4
Atom  62C    basis set group =>   3
Atom  63H    basis set group =>   4
Atom  64H    basis set group =>   4
Atom  65H    basis set group =>   4
Atom  66C    basis set group =>   3
Atom  67H    basis set group =>   4
Atom  68H    basis set group =>   4
Atom  69H    basis set group =>   4
Atom  70C    basis set group =>   3
Atom  71H    basis set group =>   4
Atom  72H    basis set group =>   4
Atom  73H    basis set group =>   4
Atom  74C    basis set group =>   3
Atom  75H    basis set group =>   4
Atom  76H    basis set group =>   4
Atom  77H    basis set group =>   4
Atom  78C    basis set group =>   3
Atom  79H    basis set group =>   4
Atom  80H    basis set group =>   4
Atom  81H    basis set group =>   4
Atom  82C    basis set group =>   3
Atom  83H    basis set group =>   4
Atom  84H    basis set group =>   4
Atom  85H    basis set group =>   4


           ************************************************************
           *        Program running with 32 parallel MPI-processes    *
           *              working on a common directory               *
           ************************************************************
------------------------------------------------------------------------------
                           ORCA GTO INTEGRAL CALCULATION
                           -- RI-GTO INTEGRALS CHOSEN --
------------------------------------------------------------------------------
------------------------------------------------------------------------------
                   ___                                                        
                  /   \      - P O W E R E D   B Y -                         
                 /     \                                                     
                 |  |  |   _    _      __       _____    __    __             
                 |  |  |  | |  | |    /  \     |  _  \  |  |  /  |          
                  \  \/   | |  | |   /    \    | | | |  |  | /  /          
                 / \  \   | |__| |  /  /\  \   | |_| |  |  |/  /          
                |  |  |   |  __  | /  /__\  \  |    /   |      \           
                |  |  |   | |  | | |   __   |  |    \   |  |\   \          
                \     /   | |  | | |  |  |  |  | |\  \  |  | \   \       
                 \___/    |_|  |_| |__|  |__|  |_| \__\ |__|  \__/        
                                                                              
                      - O R C A' S   B I G   F R I E N D -                    
                                      &                                       
                       - I N T E G R A L  F E E D E R -                       
                                                                              
 v1 FN, 2020, v2 2021                                                         
------------------------------------------------------------------------------


Reading SHARK input file Fe2_tert-butoxide_6_HighSpin.SHARKINP.tmp ... ok
----------------------
SHARK INTEGRAL PACKAGE
----------------------

Number of atoms                             ...     86
Number of basis functions                   ...   1344
Number of shells                            ...    576
Maximum angular momentum                    ...      3
Integral batch strategy                     ... SHARK/LIBINT Hybrid
RI-J (if used) integral strategy            ... SPLIT-RIJ (Revised 2003 algorithm where possible)
Printlevel                                  ...      1
Contraction scheme used                     ... SEGMENTED contraction
Coulomb Range Separation                    ... NOT USED
Exchange Range Separation                   ... NOT USED
Finite Nucleus Model                        ... NOT USED
Auxiliary Coulomb fitting basis             ... AVAILABLE
   # of basis functions in Aux-J            ...   2242
   # of shells in Aux-J                     ...    766
   Maximum angular momentum in Aux-J        ...      4
Auxiliary J/K fitting basis                 ... NOT available
Auxiliary Correlation fitting basis         ... NOT available
Auxiliary 'external' fitting basis          ... NOT available
Integral threshold                          ...     1.000000e-10
Primitive cut-off                           ...     1.000000e-11
Primitive pair pre-selection threshold      ...     1.000000e-11

Calculating pre-screening integrals         ... done (  0.1 sec) Dimension = 576
Organizing shell pair data                  ... done (  0.8 sec)
Shell pair information
Total number of shell pairs                 ...    166176
Shell pairs after pre-screening             ...    100271
Total number of primitive shell pairs       ...    497446
Primitive shell pairs kept                  ...    187841
          la=0 lb=0:  32173 shell pairs
          la=1 lb=0:  30380 shell pairs
          la=1 lb=1:   7248 shell pairs
          la=2 lb=0:  13284 shell pairs
          la=2 lb=1:   6275 shell pairs
          la=2 lb=2:   1445 shell pairs
          la=3 lb=0:   5470 shell pairs
          la=3 lb=1:   2590 shell pairs
          la=3 lb=2:   1168 shell pairs
          la=3 lb=3:    238 shell pairs

Calculating one electron integrals          ... done (  0.1 sec)
Calculating RI/J V-Matrix + Cholesky decomp.... done (  1.3 sec)
Calculating Nuclear repulsion               ... done (  0.0 sec) ENN=   5533.143357131468 Eh

SHARK setup successfully completed in   3.3 seconds

Maximum memory used throughout the entire GTOINT-calculation: 141.0 MB


           ************************************************************
           *        Program running with 32 parallel MPI-processes    *
           *              working on a common directory               *
           ************************************************************
-------------------------------------------------------------------------------
                                 ORCA SCF
-------------------------------------------------------------------------------

------------
SCF SETTINGS
------------
Hamiltonian:
 Density Functional     Method          .... DFT(GTOs)
 Exchange Functional    Exchange        .... PBE
   PBE kappa parameter   XKappa         ....  0.804000
   PBE mue parameter    XMuePBE         ....  0.219520
 Correlation Functional Correlation     .... PBE
   PBE beta parameter  CBetaPBE         ....  0.066725
 LDA part of GGA corr.  LDAOpt          .... PW91-LDA
 Gradients option       PostSCFGGA      .... off
 Hybrid DFT is turned on
   Fraction HF Exchange ScalHFX         ....  0.250000
   Scaling of DF-GGA-X  ScalDFX         ....  0.750000
   Scaling of DF-GGA-C  ScalDFC         ....  1.000000
   Scaling of DF-LDA-C  ScalLDAC        ....  1.000000
   Perturbative correction              ....  0.000000
   Density functional embedding theory  .... OFF
   NL short-range parameter             ....  6.900000
 RI-approximation to the Coulomb term is turned on
   Number of AuxJ basis functions       .... 2242
   RIJ-COSX (HFX calculated with COS-X)).... on


General Settings:
 Integral files         IntName         .... Fe2_tert-butoxide_6_HighSpin
 Hartree-Fock type      HFTyp           .... UHF
 Total Charge           Charge          ....    0
 Multiplicity           Mult            ....   11
 Number of Electrons    NEL             ....  298
 Basis Dimension        Dim             .... 1344
 Nuclear Repulsion      ENuc            ....   5533.1433571315 Eh

Convergence Acceleration:
 DIIS                   CNVDIIS         .... on
   Start iteration      DIISMaxIt       ....    12
   Startup error        DIISStart       ....  0.200000
   # of expansion vecs  DIISMaxEq       ....     5
   Bias factor          DIISBfac        ....   1.050
   Max. coefficient     DIISMaxC        ....  10.000
 Trust-Rad. Augm. Hess. CNVTRAH         .... auto
   Auto Start mean grad. ratio tolernc. ....  1.125000
   Auto Start start iteration           ....    20
   Auto Start num. interpolation iter.  ....    10
   Max. Number of Micro iterations      ....    16
   Max. Number of Macro iterations      .... Maxiter - #DIIS iter
   Number of Davidson start vectors     ....     2
   Converg. threshold I  (grad. norm)   ....   5.000e-05
   Converg. threshold II (energy diff.) ....   1.000e-06
   Grad. Scal. Fac. for Micro threshold ....   0.100
   Minimum threshold for Micro iter.    ....   0.010
   NR start threshold (gradient norm)   ....   0.001
   Initial trust radius                 ....   0.400
   Minimum AH scaling param. (alpha)    ....   1.000
   Maximum AH scaling param. (alpha)    .... 1000.000
   Orbital update algorithm             .... Taylor
   White noise on init. David. guess    .... on
   Maximum white noise                  ....   0.010
   Quad. conv. algorithm                .... NR
 SOSCF                  CNVSOSCF        .... off
 Level Shifting         CNVShift        .... on
   Level shift para.    LevelShift      ....    0.2500
   Turn off err/grad.   ShiftErr        ....    0.0010
 Zerner damping         CNVZerner       .... off
 Static damping         CNVDamp         .... on
   Fraction old density DampFac         ....    0.7000
   Max. Damping (<1)    DampMax         ....    0.9800
   Min. Damping (>=0)   DampMin         ....    0.0000
   Turn off err/grad.   DampErr         ....    0.1000
 Fernandez-Rico         CNVRico         .... off

SCF Procedure:
 Maximum # iterations   MaxIter         ....   125
 SCF integral mode      SCFMode         .... Direct
   Integral package                     .... SHARK and LIBINT hybrid scheme
 Reset frequency        DirectResetFreq ....    20
 Integral Threshold     Thresh          ....  1.000e-10 Eh
 Primitive CutOff       TCut            ....  1.000e-11 Eh

Convergence Tolerance:
 Convergence Check Mode ConvCheckMode   .... Total+1el-Energy
 Convergence forced     ConvForced      .... 0
 Energy Change          TolE            ....  1.000e-06 Eh
 1-El. energy change                    ....  1.000e-03 Eh
 DIIS Error             TolErr          ....  1.000e-06


Diagonalization of the overlap matrix:
Smallest eigenvalue                        ... 1.088e-04
Time for diagonalization                   ...    1.996 sec
Threshold for overlap eigenvalues          ... 1.000e-08
Number of eigenvalues below threshold      ... 0
Time for construction of square roots      ...    0.298 sec
Total time needed                          ...    2.306 sec

Time for model grid setup =    0.617 sec

------------------------------
INITIAL GUESS: MODEL POTENTIAL
------------------------------
Loading Hartree-Fock densities                     ... done
Calculating cut-offs                               ... done
Initializing the effective Hamiltonian             ... done
Setting up the integral package (SHARK)            ... done
Starting the Coulomb interaction                   ... done (   0.6 sec)
Reading the grid                                   ... done
Mapping shells                                     ... done
Starting the XC term evaluation                    ... done (   0.2 sec)
  promolecular density results
     # of electrons  =    297.990627435
     EX              =   -296.014056357
     EC              =    -10.490644179
     EX+EC           =   -306.504700535
Transforming the Hamiltonian                       ... done (   0.1 sec)
Diagonalizing the Hamiltonian                      ... done (   0.3 sec)
Back transforming the eigenvectors                 ... done (   0.1 sec)
Now organizing SCF variables                       ... done
                      ------------------
                      INITIAL GUESS DONE (   2.0 sec)
                      ------------------
-------------------
DFT GRID GENERATION
-------------------

General Integration Accuracy     IntAcc      ... 4.388
Radial Grid Type                 RadialGrid  ... OptM3 with GC (2021)
Angular Grid (max. ang.)         AngularGrid ... 4 (Lebedev-302)
Angular grid pruning method      GridPruning ... 4 (adaptive)
Weight generation scheme         WeightScheme... Becke
Basis function cutoff            BFCut       ... 1.0000e-10
Integration weight cutoff        WCut        ... 1.0000e-14
Angular grids for H and He will be reduced by one unit
Partially contracted basis set               ... off
Rotationally invariant grid construction     ... off

Total number of grid points                  ...   367996
Total number of batches                      ...     5788
Average number of points per batch           ...       63
Average number of grid points per atom       ...     4279
Time for grid setup =    2.287 sec

--------------------
COSX GRID GENERATION
--------------------

GRIDX 1
-------
General Integration Accuracy     IntAcc      ... 3.816
Radial Grid Type                 RadialGrid  ... OptM3 with GC (2021)
Angular Grid (max. ang.)         AngularGrid ... 1 (Lebedev-50)
Angular grid pruning method      GridPruning ... 4 (adaptive)
Weight generation scheme         WeightScheme... Becke
Basis function cutoff            BFCut       ... 1.0000e-10
Integration weight cutoff        WCut        ... 1.0000e-14
Angular grids for H and He will be reduced by one unit
Partially contracted basis set               ... on
Rotationally invariant grid construction     ... off

Total number of grid points                  ...    46336
Total number of batches                      ...      768
Average number of points per batch           ...       60
Average number of grid points per atom       ...      539
UseSFitting                                  ... on

GRIDX 2
-------
General Integration Accuracy     IntAcc      ... 4.020
Radial Grid Type                 RadialGrid  ... OptM3 with GC (2021)
Angular Grid (max. ang.)         AngularGrid ... 2 (Lebedev-110)
Angular grid pruning method      GridPruning ... 4 (adaptive)
Weight generation scheme         WeightScheme... Becke
Basis function cutoff            BFCut       ... 1.0000e-10
Integration weight cutoff        WCut        ... 1.0000e-14
Angular grids for H and He will be reduced by one unit
Partially contracted basis set               ... on
Rotationally invariant grid construction     ... off

Total number of grid points                  ...    94734
Total number of batches                      ...     1514
Average number of points per batch           ...       62
Average number of grid points per atom       ...     1102
UseSFitting                                  ... on

GRIDX 3
-------
General Integration Accuracy     IntAcc      ... 4.338
Radial Grid Type                 RadialGrid  ... OptM3 with GC (2021)
Angular Grid (max. ang.)         AngularGrid ... 3 (Lebedev-194)
Angular grid pruning method      GridPruning ... 4 (adaptive)
Weight generation scheme         WeightScheme... Becke
Basis function cutoff            BFCut       ... 1.0000e-10
Integration weight cutoff        WCut        ... 1.0000e-14
Angular grids for H and He will be reduced by one unit
Partially contracted basis set               ... on
Rotationally invariant grid construction     ... off

Total number of grid points                  ...   203952
Total number of batches                      ...     3227
Average number of points per batch           ...       63
Average number of grid points per atom       ...     2372
UseSFitting                                  ... on

Time for X-Grid setup             =    3.178 sec

--------------
SCF ITERATIONS
--------------
ITER       Energy         Delta-E        Max-DP      RMS-DP      [F,P]     Damp
               ***  Starting incremental Fock matrix formation  ***
  0  -3922.7575646938   0.000000000000 0.14586597  0.00038337  0.2165409 0.7000
  1  -3923.3740825344  -0.616517840700 0.02701714  0.00020127  0.0824894 0.7000
                               ***Turning on DIIS***
  2  -3923.7460781921  -0.371995657659 0.10827309  0.00042414  0.0504039 0.0000
  3  -3924.2129147008  -0.466836508710 0.01623394  0.00007134  0.1609644 0.7000
  4  -3924.3135663324  -0.100651631562 0.01779830  0.00007561  0.1241458 0.7000
  5  -3924.3893699283  -0.075803595930 0.05378577  0.00021886  0.0910298 0.0000
  6  -3924.5118232028  -0.122453274441 0.00896789  0.00003791  0.0100469 0.0000
  7  -3924.5138189118  -0.001995709018 0.00362943  0.00001598  0.0058649 0.0000
  8  -3924.5143864941  -0.000567582311 0.00106767  0.00000784  0.0013503 0.0000
  9  -3924.5145574339  -0.000170939861 0.00143882  0.00000927  0.0008294 0.0000
               *** Restarting incremental Fock matrix formation ***
                                   *** Resetting DIIS ***
 10  -3924.5146163813  -0.000058947359 0.00052443  0.00000458  0.0003672 0.0000
 11  -3924.5146180482  -0.000001666854 0.00049083  0.00000205  0.0007579 0.0000
 12  -3924.5146286987  -0.000010650496 0.00029760  0.00000082  0.0002971 0.0000
 13  -3924.5146299181  -0.000001219470 0.00015049  0.00000075  0.0001869 0.0000
 14  -3924.5146313984  -0.000001480269 0.00003468  0.00000029  0.0000616 0.0000
 15  -3924.5146316176  -0.000000219188 0.00002495  0.00000019  0.0000416 0.0000
 16  -3924.5146307518   0.000000865735 0.00001128  0.00000009  0.0000128 0.0000
 17  -3924.5146300057   0.000000746149 0.00002437  0.00000013  0.0000050 0.0000
 18  -3924.5146306974  -0.000000691753 0.00000981  0.00000007  0.0000051 0.0000
 19  -3924.5146298728   0.000000824632 0.00000829  0.00000004  0.0000082 0.0000
                 **** Energy Check signals convergence ****

               *****************************************************
               *                     SUCCESS                       *
               *           SCF CONVERGED AFTER  20 CYCLES          *
               *****************************************************

Old exchange energy                            =    -75.504144422 Eh
New exchange energy                            =    -75.504175546 Eh
Exchange energy change after final integration =     -0.000031123 Eh
Total energy after final integration           =  -3924.514660438 Eh
Final COS-X integration done in                =    26.313 sec

----------------
TOTAL SCF ENERGY
----------------

Total Energy       :        -3924.51466044 Eh         -106791.47308 eV

Components:
Nuclear Repulsion  :         5533.14335713 Eh          150564.48530 eV
Electronic Energy  :        -9457.65801757 Eh         -257355.95838 eV
One Electron Energy:       -16423.70622931 Eh         -446911.76705 eV
Two Electron Energy:         6966.04821174 Eh          189555.80867 eV
Max COSX asymmetry :            0.00000142 Eh               0.00004 eV

Virial components:
Potential Energy   :        -7839.16478230 Eh         -213314.51843 eV
Kinetic Energy     :         3914.65012186 Eh          106523.04534 eV
Virial Ratio       :            2.00251990


DFT components:
N(Alpha)           :      154.000294658163 electrons
N(Beta)            :      144.000338965880 electrons
N(Total)           :      298.000633624043 electrons
E(X)               :     -225.820673658108 Eh       
E(C)               :      -10.419974107119 Eh       
E(XC)              :     -236.240647765227 Eh       
DFET-embed. en.    :        0.000000000000 Eh       

---------------
SCF CONVERGENCE
---------------

  Last Energy change         ...    5.5807e-07  Tolerance :   1.0000e-06
  Last MAX-Density change    ...    0.0000e+00  Tolerance :   1.0000e-05
  Last RMS-Density change    ...    0.0000e+00  Tolerance :   1.0000e-06
  Last DIIS Error            ...    2.7508e-06  Tolerance :   1.0000e-06

             **** THE GBW FILE WAS UPDATED (Fe2_tert-butoxide_6_HighSpin.gbw) ****
             **** DENSITY Fe2_tert-butoxide_6_HighSpin.scfp WAS UPDATED ****
             **** ENERGY FILE WAS UPDATED (Fe2_tert-butoxide_6_HighSpin.en.tmp) ****
----------------------
UHF SPIN CONTAMINATION
----------------------

Warning: in a DFT calculation there is little theoretical justification to 
         calculate <S**2> as in Hartree-Fock theory. We will do it anyways
         but you should keep in mind that the values have only limited relevance

Expectation value of <S**2>     :    30.025544
Ideal value S*(S+1) for S=5.0   :    30.000000
Deviation                       :     0.025544

             **** THE GBW FILE WAS UPDATED (Fe2_tert-butoxide_6_HighSpin.gbw) ****
             **** DENSITY Fe2_tert-butoxide_6_HighSpin.scfp WAS UPDATED ****
----------------
ORBITAL ENERGIES
----------------
                 SPIN UP ORBITALS
  NO   OCC          E(Eh)            E(eV) 
   0   1.0000    -256.451504     -6978.4002 
   1   1.0000    -256.451503     -6978.4002 
   2   1.0000     -30.274485      -823.8106 
   3   1.0000     -30.274480      -823.8105 
   4   1.0000     -26.094684      -710.0725 
   5   1.0000     -26.094681      -710.0724 
   6   1.0000     -26.092398      -710.0102 
   7   1.0000     -26.092376      -710.0097 
   8   1.0000     -26.089395      -709.9285 
   9   1.0000     -26.089392      -709.9284 
  10   1.0000     -19.210977      -522.7573 
  11   1.0000     -19.210974      -522.7572 
  12   1.0000     -19.185173      -522.0551 
  13   1.0000     -19.185172      -522.0551 
  14   1.0000     -19.180230      -521.9206 
  15   1.0000     -19.180229      -521.9206 
  16   1.0000     -10.286015      -279.8967 
  17   1.0000     -10.286015      -279.8967 
  18   1.0000     -10.274310      -279.5782 
  19   1.0000     -10.274309      -279.5781 
  20   1.0000     -10.269092      -279.4362 
  21   1.0000     -10.269091      -279.4362 
  22   1.0000     -10.212156      -277.8869 
  23   1.0000     -10.212155      -277.8869 
  24   1.0000     -10.209577      -277.8167 
  25   1.0000     -10.209576      -277.8167 
  26   1.0000     -10.202853      -277.6337 
  27   1.0000     -10.202850      -277.6337 
  28   1.0000     -10.201803      -277.6052 
  29   1.0000     -10.201802      -277.6052 
  30   1.0000     -10.201230      -277.5896 
  31   1.0000     -10.201229      -277.5896 
  32   1.0000     -10.200031      -277.5570 
  33   1.0000     -10.200028      -277.5569 
  34   1.0000     -10.199126      -277.5323 
  35   1.0000     -10.199126      -277.5323 
  36   1.0000     -10.197617      -277.4913 
  37   1.0000     -10.197616      -277.4912 
  38   1.0000     -10.196619      -277.4641 
  39   1.0000     -10.196618      -277.4641 
  40   1.0000      -3.701415      -100.7206 
  41   1.0000      -3.701362      -100.7192 
  42   1.0000      -2.467172       -67.1352 
  43   1.0000      -2.467124       -67.1338 
  44   1.0000      -2.464007       -67.0490 
  45   1.0000      -2.463499       -67.0352 
  46   1.0000      -2.457594       -66.8745 
  47   1.0000      -2.457593       -66.8745 
  48   1.0000      -1.038293       -28.2534 
  49   1.0000      -1.029619       -28.0174 
  50   1.0000      -1.015429       -27.6312 
  51   1.0000      -1.015004       -27.6197 
  52   1.0000      -1.009405       -27.4673 
  53   1.0000      -1.009286       -27.4641 
  54   1.0000      -0.817659       -22.2496 
  55   1.0000      -0.813069       -22.1247 
  56   1.0000      -0.801087       -21.7987 
  57   1.0000      -0.801002       -21.7964 
  58   1.0000      -0.796654       -21.6781 
  59   1.0000      -0.796649       -21.6779 
  60   1.0000      -0.717515       -19.5246 
  61   1.0000      -0.717494       -19.5240 
  62   1.0000      -0.712269       -19.3818 
  63   1.0000      -0.712182       -19.3794 
  64   1.0000      -0.705583       -19.1999 
  65   1.0000      -0.705535       -19.1986 
  66   1.0000      -0.705274       -19.1915 
  67   1.0000      -0.705039       -19.1851 
  68   1.0000      -0.702648       -19.1200 
  69   1.0000      -0.702466       -19.1151 
  70   1.0000      -0.701607       -19.0917 
  71   1.0000      -0.701565       -19.0906 
  72   1.0000      -0.601407       -16.3651 
  73   1.0000      -0.580593       -15.7987 
  74   1.0000      -0.579219       -15.7614 
  75   1.0000      -0.578832       -15.7508 
  76   1.0000      -0.571783       -15.5590 
  77   1.0000      -0.571731       -15.5576 
  78   1.0000      -0.512875       -13.9560 
  79   1.0000      -0.509370       -13.8607 
  80   1.0000      -0.505696       -13.7607 
  81   1.0000      -0.503561       -13.7026 
  82   1.0000      -0.502246       -13.6668 
  83   1.0000      -0.498551       -13.5663 
  84   1.0000      -0.495685       -13.4883 
  85   1.0000      -0.490250       -13.3404 
  86   1.0000      -0.486685       -13.2434 
  87   1.0000      -0.477610       -12.9964 
  88   1.0000      -0.473611       -12.8876 
  89   1.0000      -0.471600       -12.8329 
  90   1.0000      -0.468751       -12.7554 
  91   1.0000      -0.467095       -12.7103 
  92   1.0000      -0.464148       -12.6301 
  93   1.0000      -0.459663       -12.5081 
  94   1.0000      -0.459044       -12.4912 
  95   1.0000      -0.458445       -12.4749 
  96   1.0000      -0.452067       -12.3014 
  97   1.0000      -0.449685       -12.2365 
  98   1.0000      -0.447733       -12.1834 
  99   1.0000      -0.446354       -12.1459 
 100   1.0000      -0.445835       -12.1318 
 101   1.0000      -0.440643       -11.9905 
 102   1.0000      -0.437304       -11.8997 
 103   1.0000      -0.434413       -11.8210 
 104   1.0000      -0.433533       -11.7970 
 105   1.0000      -0.429660       -11.6916 
 106   1.0000      -0.416598       -11.3362 
 107   1.0000      -0.413842       -11.2612 
 108   1.0000      -0.413434       -11.2501 
 109   1.0000      -0.410950       -11.1825 
 110   1.0000      -0.408033       -11.1031 
 111   1.0000      -0.405059       -11.0222 
 112   1.0000      -0.404818       -11.0157 
 113   1.0000      -0.403313       -10.9747 
 114   1.0000      -0.400042       -10.8857 
 115   1.0000      -0.399498       -10.8709 
 116   1.0000      -0.399044       -10.8585 
 117   1.0000      -0.398691       -10.8489 
 118   1.0000      -0.398039       -10.8312 
 119   1.0000      -0.384377       -10.4594 
 120   1.0000      -0.379598       -10.3294 
 121   1.0000      -0.379157       -10.3174 
 122   1.0000      -0.372757       -10.1432 
 123   1.0000      -0.372605       -10.1391 
 124   1.0000      -0.372154       -10.1268 
 125   1.0000      -0.370034       -10.0691 
 126   1.0000      -0.368324       -10.0226 
 127   1.0000      -0.368051       -10.0152 
 128   1.0000      -0.367221        -9.9926 
 129   1.0000      -0.367013        -9.9869 
 130   1.0000      -0.366609        -9.9759 
 131   1.0000      -0.361768        -9.8442 
 132   1.0000      -0.360203        -9.8016 
 133   1.0000      -0.359072        -9.7708 
 134   1.0000      -0.353679        -9.6241 
 135   1.0000      -0.352782        -9.5997 
 136   1.0000      -0.351527        -9.5655 
 137   1.0000      -0.349824        -9.5192 
 138   1.0000      -0.349631        -9.5139 
 139   1.0000      -0.349624        -9.5138 
 140   1.0000      -0.348609        -9.4861 
 141   1.0000      -0.344467        -9.3734 
 142   1.0000      -0.316151        -8.6029 
 143   1.0000      -0.312498        -8.5035 
 144   1.0000      -0.296198        -8.0599 
 145   1.0000      -0.294373        -8.0103 
 146   1.0000      -0.279428        -7.6036 
 147   1.0000      -0.274917        -7.4809 
 148   1.0000      -0.272342        -7.4108 
 149   1.0000      -0.270398        -7.3579 
 150   1.0000      -0.264831        -7.2064 
 151   1.0000      -0.263453        -7.1689 
 152   1.0000      -0.260330        -7.0839 
 153   1.0000      -0.257055        -6.9948 
 154   0.0000       0.020745         0.5645 
 155   0.0000       0.040061         1.0901 
 156   0.0000       0.043058         1.1717 
 157   0.0000       0.046934         1.2771 
 158   0.0000       0.051353         1.3974 
 159   0.0000       0.055916         1.5215 
 160   0.0000       0.068103         1.8532 
 161   0.0000       0.073493         1.9998 
 162   0.0000       0.075786         2.0623 
 163   0.0000       0.076795         2.0897 
 164   0.0000       0.078849         2.1456 
 165   0.0000       0.080799         2.1986 
 166   0.0000       0.082168         2.2359 
 167   0.0000       0.084260         2.2928 
 168   0.0000       0.091335         2.4854 
 169   0.0000       0.093743         2.5509 
 170   0.0000       0.093875         2.5545 
 171   0.0000       0.095549         2.6000 
 172   0.0000       0.101920         2.7734 
 173   0.0000       0.103204         2.8083 
 174   0.0000       0.103759         2.8234 
 175   0.0000       0.107105         2.9145 
 176   0.0000       0.111341         3.0297 
 177   0.0000       0.112633         3.0649 
 178   0.0000       0.113210         3.0806 
 179   0.0000       0.115926         3.1545 
 180   0.0000       0.118098         3.2136 
 181   0.0000       0.121795         3.3142 
 182   0.0000       0.125550         3.4164 
 183   0.0000       0.130204         3.5430 
 184   0.0000       0.130732         3.5574 
 185   0.0000       0.131723         3.5844 
 186   0.0000       0.133889         3.6433 
 187   0.0000       0.138184         3.7602 
 188   0.0000       0.138191         3.7604 
 189   0.0000       0.139129         3.7859 
 190   0.0000       0.142379         3.8743 
 191   0.0000       0.145130         3.9492 
 192   0.0000       0.146063         3.9746 
 193   0.0000       0.150603         4.0981 
 194   0.0000       0.150862         4.1052 
 195   0.0000       0.154396         4.2013 
 196   0.0000       0.155404         4.2288 
 197   0.0000       0.157537         4.2868 
 198   0.0000       0.159445         4.3387 
 199   0.0000       0.161734         4.4010 
 200   0.0000       0.161982         4.4077 
 201   0.0000       0.164023         4.4633 
 202   0.0000       0.164447         4.4748 
 203   0.0000       0.166311         4.5255 
 204   0.0000       0.168611         4.5881 
 205   0.0000       0.169884         4.6228 
 206   0.0000       0.171771         4.6741 
 207   0.0000       0.172427         4.6920 
 208   0.0000       0.173865         4.7311 
 209   0.0000       0.175577         4.7777 
 210   0.0000       0.177759         4.8371 
 211   0.0000       0.179244         4.8775 
 212   0.0000       0.182163         4.9569 
 213   0.0000       0.184406         5.0179 
 214   0.0000       0.185217         5.0400 
 215   0.0000       0.185627         5.0512 
 216   0.0000       0.188311         5.1242 
 217   0.0000       0.191960         5.2235 
 218   0.0000       0.194487         5.2923 
 219   0.0000       0.194640         5.2964 
 220   0.0000       0.198932         5.4132 
 221   0.0000       0.201914         5.4943 
 222   0.0000       0.205462         5.5909 
 223   0.0000       0.207545         5.6476 
 224   0.0000       0.209338         5.6964 
 225   0.0000       0.212784         5.7901 
 226   0.0000       0.214849         5.8463 
 227   0.0000       0.215540         5.8651 
 228   0.0000       0.220903         6.0111 
 229   0.0000       0.223142         6.0720 
 230   0.0000       0.227059         6.1786 
 231   0.0000       0.229359         6.2412 
 232   0.0000       0.234164         6.3719 
 233   0.0000       0.237196         6.4544 
 234   0.0000       0.239448         6.5157 
 235   0.0000       0.247882         6.7452 
 236   0.0000       0.253665         6.9026 
 237   0.0000       0.257464         7.0060 
 238   0.0000       0.263676         7.1750 
 239   0.0000       0.264106         7.1867 
 240   0.0000       0.265449         7.2232 
 241   0.0000       0.266781         7.2595 
 242   0.0000       0.269649         7.3375 
 243   0.0000       0.272642         7.4190 
 244   0.0000       0.278366         7.5747 
 245   0.0000       0.286591         7.7985 
 246   0.0000       0.289788         7.8855 
 247   0.0000       0.292328         7.9546 
 248   0.0000       0.296437         8.0665 
 249   0.0000       0.299844         8.1592 
 250   0.0000       0.300292         8.1714 
 251   0.0000       0.301426         8.2022 
 252   0.0000       0.307524         8.3682 
 253   0.0000       0.313354         8.5268 
 254   0.0000       0.317763         8.6468 
 255   0.0000       0.319087         8.6828 
 256   0.0000       0.323371         8.7994 
 257   0.0000       0.325750         8.8641 
 258   0.0000       0.329265         8.9597 
 259   0.0000       0.333760         9.0821 
 260   0.0000       0.334524         9.1029 
 261   0.0000       0.339977         9.2512 
 262   0.0000       0.340538         9.2665 
 263   0.0000       0.344784         9.3821 
 264   0.0000       0.347850         9.4655 
 265   0.0000       0.349118         9.5000 
 266   0.0000       0.351089         9.5536 
 267   0.0000       0.351496         9.5647 
 268   0.0000       0.357689         9.7332 
 269   0.0000       0.359352         9.7785 
 270   0.0000       0.362118         9.8537 
 271   0.0000       0.362954         9.8765 
 272   0.0000       0.363872         9.9015 
 273   0.0000       0.366479         9.9724 
 274   0.0000       0.366601         9.9757 
 275   0.0000       0.371797        10.1171 
 276   0.0000       0.376816        10.2537 
 277   0.0000       0.377853        10.2819 
 278   0.0000       0.380492        10.3537 
 279   0.0000       0.383487        10.4352 
 280   0.0000       0.385848        10.4995 
 281   0.0000       0.386833        10.5263 
 282   0.0000       0.396855        10.7990 
 283   0.0000       0.397923        10.8280 
 284   0.0000       0.399889        10.8815 
 285   0.0000       0.402492        10.9524 
 286   0.0000       0.404441        11.0054 
 287   0.0000       0.405688        11.0393 
 288   0.0000       0.405800        11.0424 
 289   0.0000       0.414818        11.2878 
 290   0.0000       0.415590        11.3088 
 291   0.0000       0.416996        11.3470 
 292   0.0000       0.420672        11.4471 
 293   0.0000       0.421336        11.4651 
 294   0.0000       0.427328        11.6282 
 295   0.0000       0.429111        11.6767 
 296   0.0000       0.434801        11.8315 
 297   0.0000       0.435076        11.8390 
 298   0.0000       0.442781        12.0487 
 299   0.0000       0.443353        12.0643 
 300   0.0000       0.444196        12.0872 
 301   0.0000       0.446080        12.1385 
 302   0.0000       0.450991        12.2721 
 303   0.0000       0.454008        12.3542 
 304   0.0000       0.455091        12.3837 
 305   0.0000       0.455114        12.3843 
 306   0.0000       0.458118        12.4660 
 307   0.0000       0.461132        12.5480 
 308   0.0000       0.462751        12.5921 
 309   0.0000       0.464922        12.6512 
 310   0.0000       0.466707        12.6997 
 311   0.0000       0.468063        12.7366 
 312   0.0000       0.469823        12.7845 
 313   0.0000       0.469918        12.7871 
 314   0.0000       0.472401        12.8547 
 315   0.0000       0.473197        12.8763 
 316   0.0000       0.474841        12.9211 
 317   0.0000       0.477781        13.0011 
 318   0.0000       0.481227        13.0948 
 319   0.0000       0.484921        13.1954 
 320   0.0000       0.485051        13.1989 
 321   0.0000       0.486160        13.2291 
 322   0.0000       0.487647        13.2696 
 323   0.0000       0.488517        13.2932 
 324   0.0000       0.489164        13.3108 
 325   0.0000       0.494211        13.4482 
 326   0.0000       0.496325        13.5057 
 327   0.0000       0.499008        13.5787 
 328   0.0000       0.500639        13.6231 
 329   0.0000       0.502651        13.6778 
 330   0.0000       0.506793        13.7905 
 331   0.0000       0.507446        13.8083 
 332   0.0000       0.509825        13.8730 
 333   0.0000       0.510525        13.8921 
 334   0.0000       0.514745        14.0069 
 335   0.0000       0.515409        14.0250 
 336   0.0000       0.517095        14.0709 
 337   0.0000       0.518610        14.1121 
 338   0.0000       0.519202        14.1282 
 339   0.0000       0.523460        14.2441 
 340   0.0000       0.526487        14.3264 
 341   0.0000       0.531617        14.4660 
 342   0.0000       0.534887        14.5550 
 343   0.0000       0.538942        14.6654 
 344   0.0000       0.539647        14.6846 
 345   0.0000       0.541057        14.7229 
 346   0.0000       0.544172        14.8077 
 347   0.0000       0.544390        14.8136 
 348   0.0000       0.549072        14.9410 
[...]
 57 H s       :    -0.000188  s :    -0.000188
      pz      :    -0.000012  p :    -0.000007
      px      :     0.000046
      py      :    -0.000040
 58 C s       :     0.000541  s :     0.000541
      pz      :     0.002911  p :     0.003847
      px      :     0.000209
      py      :     0.000727
      dz2     :     0.000301  d :     0.000853
      dxz     :     0.000256
      dyz     :     0.000135
      dx2y2   :     0.000114
      dxy     :     0.000047
      f0      :     0.000028  f :     0.000067
      f+1     :     0.000006
      f-1     :     0.000003
      f+2     :     0.000020
      f-2     :     0.000009
      f+3     :     0.000000
      f-3     :     0.000001
 59 H s       :    -0.000122  s :    -0.000122
      pz      :     0.000058  p :     0.000057
      px      :    -0.000000
      py      :    -0.000000
 60 H s       :     0.000861  s :     0.000861
      pz      :     0.000055  p :     0.000086
      px      :     0.000002
      py      :     0.000029
 61 H s       :    -0.000147  s :    -0.000147
      pz      :     0.000054  p :     0.000074
      px      :     0.000006
      py      :     0.000014
 62 C s       :     0.001234  s :     0.001234
      pz      :     0.001207  p :     0.004945
      px      :     0.003485
      py      :     0.000254
      dz2     :     0.000055  d :     0.001251
      dxz     :     0.000302
      dyz     :     0.000612
      dx2y2   :     0.000089
      dxy     :     0.000194
      f0      :     0.000008  f :     0.000061
      f+1     :    -0.000001
      f-1     :     0.000005
      f+2     :     0.000010
      f-2     :     0.000008
      f+3     :     0.000008
      f-3     :     0.000023
 63 H s       :    -0.000038  s :    -0.000038
      pz      :     0.000007  p :     0.000115
      px      :     0.000108
      py      :    -0.000000
 64 H s       :     0.001493  s :     0.001493
      pz      :     0.000004  p :     0.000100
      px      :     0.000108
      py      :    -0.000012
 65 H s       :    -0.000041  s :    -0.000041
      pz      :     0.000023  p :     0.000111
      px      :     0.000069
      py      :     0.000019
 66 C s       :     0.000554  s :     0.000554
      pz      :     0.000422  p :     0.005084
      px      :     0.000516
      py      :     0.004145
      dz2     :     0.000120  d :     0.000249
      dxz     :     0.000117
      dyz     :    -0.000053
      dx2y2   :     0.000175
      dxy     :    -0.000111
      f0      :     0.000002  f :     0.000046
      f+1     :    -0.000002
      f-1     :     0.000037
      f+2     :     0.000001
      f-2     :     0.000018
      f+3     :    -0.000013
      f-3     :     0.000003
 67 H s       :    -0.000499  s :    -0.000499
      pz      :    -0.000008  p :     0.000088
      px      :    -0.000025
      py      :     0.000121
 68 H s       :     0.000399  s :     0.000399
      pz      :     0.000044  p :     0.000105
      px      :     0.000014
      py      :     0.000048
 69 H s       :    -0.000162  s :    -0.000162
      pz      :     0.000041  p :     0.000111
      px      :     0.000002
      py      :     0.000068
 70 C s       :     0.000527  s :     0.000527
      pz      :     0.002902  p :     0.005222
      px      :     0.002259
      py      :     0.000061
      dz2     :     0.000018  d :     0.000063
      dxz     :     0.000024
      dyz     :    -0.000062
      dx2y2   :    -0.000034
      dxy     :     0.000116
      f0      :    -0.000000  f :     0.000051
      f+1     :     0.000017
      f-1     :     0.000002
      f+2     :     0.000002
      f-2     :     0.000018
      f+3     :     0.000006
      f-3     :     0.000006
 71 H s       :    -0.000185  s :    -0.000185
      pz      :     0.000061  p :     0.000109
      px      :     0.000032
      py      :     0.000016
 72 H s       :     0.000334  s :     0.000334
      pz      :     0.000029  p :     0.000108
      px      :     0.000063
      py      :     0.000016
 73 H s       :    -0.000486  s :    -0.000486
      pz      :     0.000062  p :     0.000069
      px      :     0.000006
      py      :     0.000001
 74 C s       :     0.000422  s :     0.000422
      pz      :     0.003449  p :     0.004583
      px      :     0.000250
      py      :     0.000883
      dz2     :     0.000032  d :     0.000204
      dxz     :     0.000217
      dyz     :    -0.000038
      dx2y2   :    -0.000029
      dxy     :     0.000023
      f0      :    -0.000001  f :     0.000076
      f+1     :     0.000036
      f-1     :     0.000001
      f+2     :     0.000006
      f-2     :     0.000022
      f+3     :     0.000003
      f-3     :     0.000009
 75 H s       :    -0.000247  s :    -0.000247
      pz      :     0.000067  p :     0.000096
      px      :     0.000006
      py      :     0.000023
 76 H s       :     0.000204  s :     0.000204
      pz      :     0.000061  p :     0.000108
      px      :     0.000004
      py      :     0.000042
 77 H s       :    -0.000336  s :    -0.000336
      pz      :     0.000078  p :     0.000103
      px      :     0.000006
      py      :     0.000019
 78 C s       :     0.001301  s :     0.001301
      pz      :     0.001371  p :     0.005641
      px      :     0.003957
      py      :     0.000313
      dz2     :     0.000404  d :     0.001311
      dxz     :     0.000051
      dyz     :     0.000061
      dx2y2   :     0.000823
      dxy     :    -0.000028
      f0      :     0.000028  f :     0.000085
      f+1     :     0.000025
      f-1     :     0.000005
      f+2     :     0.000015
      f-2     :     0.000008
      f+3     :     0.000014
      f-3     :    -0.000009
 79 H s       :    -0.000022  s :    -0.000022
      pz      :     0.000082  p :     0.000127
      px      :     0.000040
      py      :     0.000004
 80 H s       :     0.001481  s :     0.001481
      pz      :     0.000060  p :     0.000105
      px      :     0.000037
      py      :     0.000008
 81 H s       :    -0.000105  s :    -0.000105
      pz      :     0.000038  p :     0.000134
      px      :     0.000064
      py      :     0.000032
 82 C s       :     0.001016  s :     0.001016
      pz      :     0.000843  p :     0.005797
      px      :     0.000033
      py      :     0.004922
      dz2     :     0.000003  d :     0.000940
      dxz     :     0.000277
      dyz     :     0.000211
      dx2y2   :    -0.000004
      dxy     :     0.000453
      f0      :     0.000004  f :     0.000077
      f+1     :     0.000002
      f-1     :    -0.000008
      f+2     :     0.000007
      f-2     :     0.000008
      f+3     :     0.000050
      f-3     :     0.000012
 83 H s       :    -0.000267  s :    -0.000267
      pz      :     0.000024  p :     0.000140
      px      :     0.000006
      py      :     0.000110
 84 H s       :     0.001066  s :     0.001066
      pz      :     0.000008  p :     0.000110
      px      :    -0.000003
      py      :     0.000106
 85 H s       :    -0.000092  s :    -0.000092
      pz      :     0.000014  p :     0.000126
      px      :    -0.000000
      py      :     0.000112


                      *****************************
                      * MAYER POPULATION ANALYSIS *
                      *****************************

  NA   - Mulliken gross atomic population
  ZA   - Total nuclear charge
  QA   - Mulliken gross atomic charge
  VA   - Mayer's total valence
  BVA  - Mayer's bonded valence
  FA   - Mayer's free valence

  ATOM       NA         ZA         QA         VA         BVA        FA
  0 Fe    24.8111    26.0000     1.1889     6.5654     2.9958     3.5696
  1 O      8.6748     8.0000    -0.6748     1.6766     1.6583     0.0183
  2 O      8.5662     8.0000    -0.5662     1.8966     1.8597     0.0369
  3 O      8.5649     8.0000    -0.5649     1.8878     1.8509     0.0370
  4 C      5.6921     6.0000     0.3079     3.7536     3.7535     0.0001
  5 C      5.7384     6.0000     0.2616     3.8276     3.8275     0.0001
  6 C      5.8021     6.0000     0.1979     3.9308     3.9306     0.0002
  7 C      6.3926     6.0000    -0.3926     3.8887     3.8887     0.0000
  8 H      0.8790     1.0000     0.1210     0.9841     0.9841     0.0000
  9 H      0.8767     1.0000     0.1233     0.9792     0.9792     0.0000
 10 H      0.8639     1.0000     0.1361     0.9934     0.9934    -0.0000
 11 C      6.3965     6.0000    -0.3965     3.9219     3.9219     0.0000
 12 H      0.8535     1.0000     0.1465     1.0030     1.0030     0.0000
 13 H      0.8849     1.0000     0.1151     0.9770     0.9770     0.0000
 14 H      0.9024     1.0000     0.0976     1.0147     1.0147     0.0000
 15 C      6.3914     6.0000    -0.3914     3.8690     3.8689     0.0000
 16 H      0.8554     1.0000     0.1446     0.9935     0.9935    -0.0000
 17 H      0.8772     1.0000     0.1228     0.9744     0.9744     0.0000
 18 H      0.8757     1.0000     0.1243     0.9876     0.9876     0.0000
 19 C      6.3389     6.0000    -0.3389     3.8620     3.8619     0.0001
 20 H      0.8846     1.0000     0.1154     0.9802     0.9802     0.0000
 21 H      0.8912     1.0000     0.1088     0.9767     0.9767     0.0000
 22 H      0.8845     1.0000     0.1155     0.9853     0.9853     0.0000
 23 C      6.4102     6.0000    -0.4102     3.9336     3.9335     0.0001
 24 H      0.8701     1.0000     0.1299     0.9879     0.9879     0.0000
 25 H      0.8832     1.0000     0.1168     0.9766     0.9766     0.0000
 26 H      0.8830     1.0000     0.1170     0.9779     0.9779     0.0000
 27 C      6.4102     6.0000    -0.4102     3.9034     3.9033     0.0001
 28 H      0.8809     1.0000     0.1191     0.9784     0.9784     0.0000
 29 H      0.8833     1.0000     0.1167     0.9753     0.9753     0.0000
 30 H      0.8641     1.0000     0.1359     0.9957     0.9957     0.0000
 31 C      6.3689     6.0000    -0.3689     3.9297     3.9296     0.0001
 32 H      0.8659     1.0000     0.1341     0.9785     0.9785     0.0000
 33 H      0.8845     1.0000     0.1155     0.9743     0.9743     0.0000
 34 H      0.8894     1.0000     0.1106     0.9983     0.9983     0.0000
 35 C      6.3499     6.0000    -0.3499     3.8585     3.8584     0.0001
 36 H      0.8812     1.0000     0.1188     0.9827     0.9827     0.0000
 37 H      0.8883     1.0000     0.1117     0.9775     0.9775     0.0000
 38 H      0.8782     1.0000     0.1218     0.9796     0.9796     0.0000
 39 C      6.3716     6.0000    -0.3716     3.8802     3.8801     0.0001
 40 H      0.8775     1.0000     0.1225     0.9800     0.9800     0.0000
 41 H      0.8821     1.0000     0.1179     0.9756     0.9756     0.0000
 42 H      0.8795     1.0000     0.1205     0.9801     0.9801     0.0000
 43 Fe    24.8111    26.0000     1.1889     6.5653     2.9957     3.5696
 44 O      8.6748     8.0000    -0.6748     1.6765     1.6583     0.0183
 45 O      8.5662     8.0000    -0.5662     1.8966     1.8597     0.0369
 46 O      8.5649     8.0000    -0.5649     1.8878     1.8509     0.0370
 47 C      5.6921     6.0000     0.3079     3.7536     3.7535     0.0001
 48 C      5.7385     6.0000     0.2615     3.8278     3.8277     0.0001
 49 C      5.8022     6.0000     0.1978     3.9309     3.9307     0.0002
 50 C      6.3925     6.0000    -0.3925     3.8888     3.8887     0.0000
 51 H      0.8790     1.0000     0.1210     0.9841     0.9841     0.0000
 52 H      0.8767     1.0000     0.1233     0.9792     0.9792     0.0000
 53 H      0.8639     1.0000     0.1361     0.9933     0.9933    -0.0000
 54 C      6.3965     6.0000    -0.3965     3.9219     3.9218     0.0000
 55 H      0.8535     1.0000     0.1465     1.0030     1.0030     0.0000
 56 H      0.8850     1.0000     0.1150     0.9770     0.9770     0.0000
 57 H      0.9024     1.0000     0.0976     1.0147     1.0147     0.0000
 58 C      6.3914     6.0000    -0.3914     3.8690     3.8689     0.0000
 59 H      0.8554     1.0000     0.1446     0.9935     0.9935    -0.0000
 60 H      0.8772     1.0000     0.1228     0.9744     0.9744     0.0000
 61 H      0.8757     1.0000     0.1243     0.9876     0.9876     0.0000
 62 C      6.3389     6.0000    -0.3389     3.8620     3.8619     0.0001
 63 H      0.8846     1.0000     0.1154     0.9802     0.9802     0.0000
 64 H      0.8912     1.0000     0.1088     0.9767     0.9767     0.0000
 65 H      0.8845     1.0000     0.1155     0.9853     0.9853     0.0000
 66 C      6.4101     6.0000    -0.4101     3.9336     3.9336     0.0001
 67 H      0.8701     1.0000     0.1299     0.9880     0.9880     0.0000
 68 H      0.8832     1.0000     0.1168     0.9766     0.9766     0.0000
 69 H      0.8830     1.0000     0.1170     0.9779     0.9779     0.0000
 70 C      6.4102     6.0000    -0.4102     3.9034     3.9033     0.0001
 71 H      0.8809     1.0000     0.1191     0.9784     0.9784     0.0000
 72 H      0.8833     1.0000     0.1167     0.9753     0.9753     0.0000
 73 H      0.8641     1.0000     0.1359     0.9957     0.9957     0.0000
 74 C      6.3689     6.0000    -0.3689     3.9296     3.9296     0.0001
 75 H      0.8659     1.0000     0.1341     0.9784     0.9784     0.0000
 76 H      0.8845     1.0000     0.1155     0.9743     0.9743     0.0000
 77 H      0.8894     1.0000     0.1106     0.9983     0.9983     0.0000
 78 C      6.3499     6.0000    -0.3499     3.8585     3.8584     0.0001
 79 H      0.8812     1.0000     0.1188     0.9827     0.9827     0.0000
 80 H      0.8883     1.0000     0.1117     0.9775     0.9775     0.0000
 81 H      0.8782     1.0000     0.1218     0.9796     0.9796     0.0000
 82 C      6.3716     6.0000    -0.3716     3.8803     3.8802     0.0001
 83 H      0.8775     1.0000     0.1225     0.9800     0.9800     0.0000
 84 H      0.8821     1.0000     0.1179     0.9756     0.9756     0.0000
 85 H      0.8795     1.0000     0.1205     0.9801     0.9801     0.0000

  Mayer bond orders larger than 0.100000
B(  0-Fe,  1-O ) :   0.4427 B(  0-Fe,  2-O ) :   0.8831 B(  0-Fe,  3-O ) :   0.8471 
B(  0-Fe, 44-O ) :   0.4496 B(  1-O ,  4-C ) :   0.7571 B(  1-O , 43-Fe) :   0.4496 
B(  2-O ,  5-C ) :   0.8803 B(  3-O ,  6-C ) :   0.9194 B(  4-C ,  7-C ) :   0.9768 
B(  4-C , 11-C ) :   0.9882 B(  4-C , 15-C ) :   0.9831 B(  5-C , 19-C ) :   0.9627 
B(  5-C , 23-C ) :   0.9697 B(  5-C , 27-C ) :   0.9691 B(  6-C , 31-C ) :   1.0078 
B(  6-C , 35-C ) :   0.9641 B(  6-C , 39-C ) :   0.9604 B(  7-C ,  8-H ) :   0.9715 
B(  7-C ,  9-H ) :   0.9579 B(  7-C , 10-H ) :   0.9617 B( 11-C , 12-H ) :   0.9571 
B( 11-C , 13-H ) :   0.9603 B( 11-C , 14-H ) :   0.9725 B( 15-C , 16-H ) :   0.9562 
B( 15-C , 17-H ) :   0.9571 B( 15-C , 18-H ) :   0.9674 B( 19-C , 20-H ) :   0.9708 
B( 19-C , 21-H ) :   0.9710 B( 19-C , 22-H ) :   0.9731 B( 23-C , 24-H ) :   0.9723 
B( 23-C , 25-H ) :   0.9587 B( 23-C , 26-H ) :   0.9717 B( 27-C , 28-H ) :   0.9737 
B( 27-C , 29-H ) :   0.9579 B( 27-C , 30-H ) :   0.9656 B( 31-C , 32-H ) :   0.9654 
B( 31-C , 33-H ) :   0.9574 B( 31-C , 34-H ) :   0.9651 B( 35-C , 36-H ) :   0.9710 
B( 35-C , 37-H ) :   0.9647 B( 35-C , 38-H ) :   0.9698 B( 39-C , 40-H ) :   0.9741 
B( 39-C , 41-H ) :   0.9615 B( 39-C , 42-H ) :   0.9714 B( 43-Fe, 44-O ) :   0.4427 
B( 43-Fe, 45-O ) :   0.8831 B( 43-Fe, 46-O ) :   0.8471 B( 44-O , 47-C ) :   0.7570 
B( 45-O , 48-C ) :   0.8804 B( 46-O , 49-C ) :   0.9194 B( 47-C , 50-C ) :   0.9769 
B( 47-C , 54-C ) :   0.9882 B( 47-C , 58-C ) :   0.9831 B( 48-C , 62-C ) :   0.9627 
B( 48-C , 66-C ) :   0.9698 B( 48-C , 70-C ) :   0.9691 B( 49-C , 74-C ) :   1.0078 
B( 49-C , 78-C ) :   0.9641 B( 49-C , 82-C ) :   0.9604 B( 50-C , 51-H ) :   0.9715 
B( 50-C , 52-H ) :   0.9578 B( 50-C , 53-H ) :   0.9618 B( 54-C , 55-H ) :   0.9571 
B( 54-C , 56-H ) :   0.9602 B( 54-C , 57-H ) :   0.9725 B( 58-C , 59-H ) :   0.9562 
B( 58-C , 60-H ) :   0.9571 B( 58-C , 61-H ) :   0.9674 B( 62-C , 63-H ) :   0.9708 
B( 62-C , 64-H ) :   0.9710 B( 62-C , 65-H ) :   0.9731 B( 66-C , 67-H ) :   0.9723 
B( 66-C , 68-H ) :   0.9587 B( 66-C , 69-H ) :   0.9717 B( 70-C , 71-H ) :   0.9737 
B( 70-C , 72-H ) :   0.9579 B( 70-C , 73-H ) :   0.9656 B( 74-C , 75-H ) :   0.9654 
B( 74-C , 76-H ) :   0.9574 B( 74-C , 77-H ) :   0.9651 B( 78-C , 79-H ) :   0.9710 
B( 78-C , 80-H ) :   0.9647 B( 78-C , 81-H ) :   0.9698 B( 82-C , 83-H ) :   0.9741 
B( 82-C , 84-H ) :   0.9615 B( 82-C , 85-H ) :   0.9714 

-------
TIMINGS
-------

Total SCF time: 0 days 0 hours 4 min 48 sec 

Total time                  ....     288.339 sec
Sum of individual times     ....     277.637 sec  ( 96.3%)

Fock matrix formation       ....     232.074 sec  ( 80.5%)
  Split-RI-J                ....      24.072 sec  ( 10.4% of F)
  Chain of spheres X        ....     179.032 sec  ( 77.1% of F)
  XC integration            ....      20.209 sec  (  8.7% of F)
    Basis function eval.    ....       1.930 sec  (  9.6% of XC)
    Density eval.           ....       6.891 sec  ( 34.1% of XC)
    XC-Functional eval.     ....       0.224 sec  (  1.1% of XC)
    XC-Potential eval.      ....       3.692 sec  ( 18.3% of XC)
Diagonalization             ....      18.655 sec  (  6.5%)
Density matrix formation    ....       1.137 sec  (  0.4%)
Population analysis         ....       1.732 sec  (  0.6%)
Initial guess               ....       1.413 sec  (  0.5%)
Orbital Transformation      ....       0.000 sec  (  0.0%)
Orbital Orthonormalization  ....       0.000 sec  (  0.0%)
DIIS solution               ....      16.543 sec  (  5.7%)
Grid generation             ....       6.082 sec  (  2.1%)

Maximum memory used throughout the entire SCF-calculation: 503.8 MB

-------------------------   --------------------
FINAL SINGLE POINT ENERGY     -3924.514660438202
-------------------------   --------------------


                            ***************************************
                            *     ORCA property calculations      *
                            ***************************************

                                    ---------------------
                                    Active property flags
                                    ---------------------
   (+) Dipole Moment


------------------------------------------------------------------------------
                       ORCA ELECTRIC PROPERTIES CALCULATION
------------------------------------------------------------------------------

Dipole Moment Calculation                       ... on
Quadrupole Moment Calculation                   ... off
Polarizability Calculation                      ... off
GBWName                                         ... Fe2_tert-butoxide_6_HighSpin.gbw
Electron density                                ... Fe2_tert-butoxide_6_HighSpin.scfp
The origin for moment calculation is the CENTER OF MASS  = (19.013956,  4.151521 14.505128)

-------------
DIPOLE MOMENT
-------------
                                X             Y             Z
Electronic contribution:     -0.00142      -0.00146       0.00012
Nuclear contribution   :      0.00145       0.00153      -0.00016
                        -----------------------------------------
Total Dipole Moment    :      0.00004       0.00008      -0.00004
                        -----------------------------------------
Magnitude (a.u.)       :      0.00009
Magnitude (Debye)      :      0.00024



--------------------
Rotational spectrum 
--------------------
 
Rotational constants in cm-1:     0.004895     0.003291     0.002885 
Rotational constants in MHz :   146.756375    98.666265    86.500147 

 Dipole components along the rotational axes: 
x,y,z [a.u.] :    -0.000073     0.000054    -0.000017 
x,y,z [Debye]:    -0.000186     0.000137    -0.000043 

 

Timings for individual modules:

Sum of individual times         ...      316.829 sec (=   5.280 min)
GTO integral calculation        ...       18.312 sec (=   0.305 min)   5.8 %
SCF iterations                  ...      298.517 sec (=   4.975 min)  94.2 %
                             ****ORCA TERMINATED NORMALLY****
TOTAL RUN TIME: 0 days 0 hours 5 minutes 31 seconds 678 msec
