
                                 *****************
                                 * O   R   C   A *
                                 *****************

                                            #,                                       
                                            ###                                      
                                            ####                                     
                                            #####                                    
                                            ######                                   
                                           ########,                                 
                                     ,,################,,,,,                         
                               ,,#################################,,                 
                          ,,##########################################,,             
                       ,#########################################, ''#####,          
                    ,#############################################,,   '####,        
                  ,##################################################,,,,####,       
                ,###########''''           ''''###############################       
              ,#####''   ,,,,##########,,,,          '''####'''          '####       
            ,##' ,,,,###########################,,,                        '##       
           ' ,,###''''                  '''############,,,                           
         ,,##''                                '''############,,,,        ,,,,,,###''
      ,#''                                            '''#######################'''  
     '                                                          ''''####''''         
             ,#######,   #######,   ,#######,      ##                                
            ,#'     '#,  ##    ##  ,#'     '#,    #''#        ######   ,####,        
            ##       ##  ##   ,#'  ##            #'  '#       #        #'  '#        
            ##       ##  #######   ##           ,######,      #####,   #    #        
            '#,     ,#'  ##    ##  '#,     ,#' ,#      #,         ##   #,  ,#        
             '#######'   ##     ##  '#######'  #'      '#     #####' # '####'        



                  #######################################################
                  #                        -***-                        #
                  #          Department of theory and spectroscopy      #
                  #    Directorship and core code : Frank Neese         #
                  #        Max Planck Institute fuer Kohlenforschung    #
                  #                Kaiser Wilhelm Platz 1               #
                  #                 D-45470 Muelheim/Ruhr               #
                  #                      Germany                        #
                  #                                                     #
                  #                  All rights reserved                #
                  #                        -***-                        #
                  #######################################################


                         Program Version 5.0.3 -  RELEASE  -


 With contributions from (in alphabetic order):
   Daniel Aravena         : Magnetic Suceptibility
   Michael Atanasov       : Ab Initio Ligand Field Theory (pilot matlab implementation)
   Alexander A. Auer      : GIAO ZORA, VPT2 properties, NMR spectrum
   Ute Becker             : Parallelization
   Giovanni Bistoni       : ED, misc. LED, open-shell LED, HFLD
   Martin Brehm           : Molecular dynamics
   Dmytro Bykov           : SCF Hessian
   Vijay G. Chilkuri      : MRCI spin determinant printing, contributions to CSF-ICE
   Dipayan Datta          : RHF DLPNO-CCSD density
   Achintya Kumar Dutta   : EOM-CC, STEOM-CC
   Dmitry Ganyushin       : Spin-Orbit,Spin-Spin,Magnetic field MRCI
   Miquel Garcia          : C-PCM and meta-GGA Hessian, CC/C-PCM, Gaussian charge scheme
   Yang Guo               : DLPNO-NEVPT2, F12-NEVPT2, CIM, IAO-localization
   Andreas Hansen         : Spin unrestricted coupled pair/coupled cluster methods
   Benjamin Helmich-Paris : MC-RPA, TRAH-SCF, COSX integrals
   Lee Huntington         : MR-EOM, pCC
   Robert Izsak           : Overlap fitted RIJCOSX, COSX-SCS-MP3, EOM
   Marcus Kettner         : VPT2
   Christian Kollmar      : KDIIS, OOCD, Brueckner-CCSD(T), CCSD density, CASPT2, CASPT2-K
   Simone Kossmann        : Meta GGA functionals, TD-DFT gradient, OOMP2, MP2 Hessian
   Martin Krupicka        : Initial AUTO-CI
   Lucas Lang             : DCDCAS
   Marvin Lechner         : AUTO-CI (C++ implementation), FIC-MRCC
   Dagmar Lenk            : GEPOL surface, SMD
   Dimitrios Liakos       : Extrapolation schemes; Compound Job, initial MDCI parallelization
   Dimitrios Manganas     : Further ROCIS development; embedding schemes
   Dimitrios Pantazis     : SARC Basis sets
   Anastasios Papadopoulos: AUTO-CI, single reference methods and gradients
   Taras Petrenko         : DFT Hessian,TD-DFT gradient, ASA, ECA, R-Raman, ABS, FL, XAS/XES, NRVS
   Peter Pinski           : DLPNO-MP2, DLPNO-MP2 Gradient
   Christoph Reimann      : Effective Core Potentials
   Marius Retegan         : Local ZFS, SOC
   Christoph Riplinger    : Optimizer, TS searches, QM/MM, DLPNO-CCSD(T), (RO)-DLPNO pert. Triples
   Tobias Risthaus        : Range-separated hybrids, TD-DFT gradient, RPA, STAB
   Michael Roemelt        : Original ROCIS implementation
   Masaaki Saitow         : Open-shell DLPNO-CCSD energy and density
   Barbara Sandhoefer     : DKH picture change effects
   Avijit Sen             : IP-ROCIS
   Kantharuban Sivalingam : CASSCF convergence, NEVPT2, FIC-MRCI
   Bernardo de Souza      : ESD, SOC TD-DFT
   Georgi Stoychev        : AutoAux, RI-MP2 NMR, DLPNO-MP2 response
   Willem Van den Heuvel  : Paramagnetic NMR
   Boris Wezisla          : Elementary symmetry handling
   Frank Wennmohs         : Technical directorship


 We gratefully acknowledge several colleagues who have allowed us to
 interface, adapt or use parts of their codes:
   Stefan Grimme, W. Hujo, H. Kruse, P. Pracht,  : VdW corrections, initial TS optimization,
                  C. Bannwarth, S. Ehlert          DFT functionals, gCP, sTDA/sTD-DF
   Ed Valeev, F. Pavosevic, A. Kumar             : LibInt (2-el integral package), F12 methods
   Garnet Chan, S. Sharma, J. Yang, R. Olivares  : DMRG
   Ulf Ekstrom                                   : XCFun DFT Library
   Mihaly Kallay                                 : mrcc  (arbitrary order and MRCC methods)
   Jiri Pittner, Ondrej Demel                    : Mk-CCSD
   Frank Weinhold                                : gennbo (NPA and NBO analysis)
   Christopher J. Cramer and Donald G. Truhlar   : smd solvation model
   Lars Goerigk                                  : TD-DFT with DH, B97 family of functionals
   V. Asgeirsson, H. Jonsson                     : NEB implementation
   FAccTs GmbH                                   : IRC, NEB, NEB-TS, DLPNO-Multilevel, CI-OPT
                                                   MM, QMMM, 2- and 3-layer-ONIOM, Crystal-QMMM,
                                                   LR-CPCM, SF, NACMEs, symmetry and pop. for TD-DFT,
                                                   nearIR, NL-DFT gradient (VV10), updates on ESD,
                                                   ML-optimized integration grids
   S Lehtola, MJT Oliveira, MAL Marques          : LibXC Library
   Liviu Ungur et al                             : ANISO software


 Your calculation uses the libint2 library for the computation of 2-el integrals
 For citations please refer to: http://libint.valeyev.net

 Your ORCA version has been built with support for libXC version: 5.1.0
 For citations please refer to: https://tddft.org/programs/libxc/

 This ORCA versions uses:
   CBLAS   interface :  Fast vector & matrix operations
   LAPACKE interface :  Fast linear algebra routines
   SCALAPACK package :  Parallel linear algebra routines
   Shared memory     :  Shared parallel matrices
   BLAS/LAPACK       :  OpenBLAS 0.3.15  USE64BITINT DYNAMIC_ARCH NO_AFFINITY Zen SINGLE_THREADED
        Core in use  :  Zen
   Copyright (c) 2011-2014, The OpenBLAS Project


================================================================================

----- Orbital basis set information -----
Your calculation utilizes the basis: def2-TZVP
   F. Weigend and R. Ahlrichs, Phys. Chem. Chem. Phys. 7, 3297 (2005).

----- AuxJ basis set information -----
Your calculation utilizes the auxiliary basis: def2/J
   F. Weigend, Phys. Chem. Chem. Phys. 8, 1057 (2006).

================================================================================
                                        WARNINGS
                       Please study these warnings very carefully!
================================================================================


WARNING: your system is open-shell and RHF/RKS was chosen
  ===> : WILL SWITCH to UHF/UKS


INFO   : the flag for use of the SHARK integral package has been found!

================================================================================
                                       INPUT FILE
================================================================================
NAME = Fe2_tert-butoxide_6_LowSpin.inp
|  1> ! PBE0 def2-TZVP
|  2> %pal nprocs 32 end
|  3> %maxcore 3000
|  4> 
|  5> * xyz 0 3
|  6>   Fe  9.76415305920921      3.35895604330310      6.82993191004458
|  7>   O   9.42463739535867      1.48325135532178      6.89575066696449
|  8>   O   11.05609483685766      4.31693716144181      6.06868424439532
|  9>   O   8.33755387516358      4.37428040485539      6.57797982985061
| 10>   C   8.78659630465014      0.60387378074865      5.95413013120630
| 11>   C   11.04455046624725      5.28506627624781      5.04073399646924
| 12>   C   7.08984718049437      4.47726628573373      7.23876604419907
| 13>   C   9.61702432899846     -0.66630786360017      5.84154788384393
| 14>   H   10.61930583355190     -0.44136539246948      5.47299725570021
| 15>   H   9.14644257090398     -1.35946055485893      5.14076460706546
| 16>   H   9.69866748438949     -1.16184965043568      6.81067852388536
| 17>   C   7.38650235001995      0.26174906273363      6.44258139145277
| 18>   H   7.43531875440584     -0.14005486954374      7.45508046187438
| 19>   H   6.93203607809408     -0.48174848237707      5.78346125323777
| 20>   H   6.74444471639177      1.14334141013755      6.44479707552595
| 21>   C   8.73509199941363      1.31446584602606      4.61038761952505
| 22>   H   8.17296494578990      2.24837060649245      4.68181517194385
| 23>   H   8.24555044867451      0.68215350632224      3.86631955594433
| 24>   H   9.74344126571825      1.54051481531418      4.25503895950101
| 25>   C   12.49216183339244      5.38733959292063      4.56459530774453
| 26>   H   13.14376358432474      5.68234281266057      5.38982231978883
| 27>   H   12.58567035137138      6.12864980022168      3.76695146209734
| 28>   H   12.83392668155810      4.42184997684855      4.18549295324403
| 29>   C   10.58603959427914      6.62589439623938      5.60655933534859
| 30>   H   9.56507368002015      6.54532249327897      5.98149712457755
| 31>   H   10.61742781103744      7.40359302308660      4.83884405201260
| 32>   H   11.23957182319143      6.93052126981601      6.42760651844465
| 33>   C   10.14965593101293      4.86242128836304      3.88024367955229
| 34>   H   10.48105485608234      3.90174094008852      3.47827687967829
| 35>   H   10.19068406351105      5.59914944727505      3.07388973171923
| 36>   H   9.11353371556823      4.77192451695365      4.21009202860955
| 37>   C   6.98477778639991      3.52572781565133      8.42481962581497
| 38>   H   7.12840442136328      2.48804407348333      8.12296001028700
| 39>   H   6.00189783615351      3.61062378483756      8.89449697611866
| 40>   H   7.73625179582352      3.76607829131636      9.17963008834518
| 41>   C   5.99945059089324      4.18001459097904      6.21322796030677
| 42>   H   6.09978672862760      4.85067603397733      5.35744397948547
| 43>   H   5.00773790058057      4.32052009545223      6.65014530662486
| 44>   H   6.07140447680541      3.15242062989775      5.85299271728046
| 45>   C   6.95809857119518      5.92027351658292      7.72053483069669
| 46>   H   7.75610874359445      6.16029621059798      8.42589982240923
| 47>   H   5.99773067739273      6.07842307988394      8.21780701012691
| 48>   H   7.02769905599623      6.60897033834718      6.87609165960195
| 49>   Fe  10.35917655299274      1.03470736595198      8.52161005584055
| 50>   O   10.69871106557219      2.91039415722384      8.45578389035947
| 51>   O   9.06724336095191      0.07676360706954      9.28291096663669
| 52>   O   11.78583077568297      0.01947952086791      8.77356852896706
| 53>   C   11.33706986226610      3.78967216735533      9.39728036801001
| 54>   C   9.07876727174766     -0.89136033125767     10.31085775412042
| 55>   C   13.03363898664456     -0.08314895426917      8.11294476317126
| 56>   C   10.50703770287382      5.06010366211230      9.50970982823310
| 57>   H   9.50471629577036      4.83553495923379      9.87836690891943
| 58>   H   10.97789073244365      5.75321129312944     10.21034872409304
| 59>   H   10.42547659625545      5.55551137653973      8.54049629603061
| 60>   C   12.73723920332485      4.13129848830931      8.90867074812922
| 61>   H   12.68845931780080      4.53288980914078      7.89608366689539
| 62>   H   13.19197306153412      4.87482731583929      9.56758016790520
| 63>   H   13.37904047586616      3.24952023148474      8.90662199632122
| 64>   C   11.38848908020065      3.07924400998671     10.74111033100261
| 65>   H   11.95033024210742      2.14515463309798     10.66977383693463
| 66>   H   11.87827296390168      3.71152013082610     11.48505015926635
| 67>   H   10.38009221753489      2.85355998137887     11.09656417176630
| 68>   C   7.63113103896756     -0.99375998080943     10.78690310155894
| 69>   H   6.97960991943810     -1.28876783862241      9.96161219348871
| 70>   H   7.53761947578983     -1.73511527352271     11.58450440812895
| 71>   H   7.28926820489078     -0.02831421881547     11.16602442799195
| 72>   C   9.53744747464570     -2.23212673119353      9.74501589835675
| 73>   H   10.55843399927221     -2.15143436451122      9.37013418325313
| 74>   H   9.50608398333594     -3.00985467897641     10.51269946709923
| 75>   H   8.88398693528362     -2.53678269382410      8.92391995519839
| 76>   C   9.97356456699740     -0.46869057744337     11.47141074584114
| 77>   H   9.64202615016041      0.49190363664407     11.87346108532134
| 78>   H   9.93262612095681     -1.20550026596860     12.27769452583801
| 79>   H   11.00968426256348     -0.37801124121117     11.14160026072450
| 80>   C   13.13881230455734      0.86878827536460      6.92721469398430
| 81>   H   12.99498676942282      1.90634198629926      7.22939704086302
| 82>   H   14.12177613525118      0.78418832366606      6.45765492649673
| 83>   H   12.38750037054237      0.62854217172780      6.17219123890334
| 84>   C   14.12378339102888      0.21397649423482      9.13879588957824
| 85>   H   14.02342061694602     -0.45700807905305      9.99432721166741
| 86>   H   15.11559086106682      0.07380593983909      8.70197974981706
| 87>   H   14.05160120277829      1.24143477858937      9.49939635896293
| 88>   C   13.16566596386030     -1.52596803929197      7.63075159238174
| 89>   H   12.36783734361808     -1.76589076136004      6.92515349682090
| 90>   H   14.12616522548503     -1.68385042051668      7.13365760633596
| 91>   H   13.09596551315994     -2.21489762541892      8.47499881623841
| 92> *
| 93> 
| 94>                          ****END OF INPUT****
================================================================================

                       ****************************
                       * Single Point Calculation *
                       ****************************

---------------------------------
CARTESIAN COORDINATES (ANGSTROEM)
---------------------------------
  Fe     9.764153    3.358956    6.829932
  O      9.424637    1.483251    6.895751
  O     11.056095    4.316937    6.068684
  O      8.337554    4.374280    6.577980
  C      8.786596    0.603874    5.954130
  C     11.044550    5.285066    5.040734
  C      7.089847    4.477266    7.238766
  C      9.617024   -0.666308    5.841548
  H     10.619306   -0.441365    5.472997
  H      9.146443   -1.359461    5.140765
  H      9.698667   -1.161850    6.810679
  C      7.386502    0.261749    6.442581
  H      7.435319   -0.140055    7.455080
  H      6.932036   -0.481748    5.783461
  H      6.744445    1.143341    6.444797
  C      8.735092    1.314466    4.610388
  H      8.172965    2.248371    4.681815
  H      8.245550    0.682154    3.866320
  H      9.743441    1.540515    4.255039
  C     12.492162    5.387340    4.564595
  H     13.143764    5.682343    5.389822
  H     12.585670    6.128650    3.766951
  H     12.833927    4.421850    4.185493
  C     10.586040    6.625894    5.606559
  H      9.565074    6.545322    5.981497
  H     10.617428    7.403593    4.838844
  H     11.239572    6.930521    6.427607
  C     10.149656    4.862421    3.880244
  H     10.481055    3.901741    3.478277
  H     10.190684    5.599149    3.073890
  H      9.113534    4.771925    4.210092
  C      6.984778    3.525728    8.424820
  H      7.128404    2.488044    8.122960
  H      6.001898    3.610624    8.894497
  H      7.736252    3.766078    9.179630
  C      5.999451    4.180015    6.213228
  H      6.099787    4.850676    5.357444
  H      5.007738    4.320520    6.650145
  H      6.071404    3.152421    5.852993
  C      6.958099    5.920274    7.720535
  H      7.756109    6.160296    8.425900
  H      5.997731    6.078423    8.217807
  H      7.027699    6.608970    6.876092
  Fe    10.359177    1.034707    8.521610
  O     10.698711    2.910394    8.455784
  O      9.067243    0.076764    9.282911
  O     11.785831    0.019480    8.773569
  C     11.337070    3.789672    9.397280
  C      9.078767   -0.891360   10.310858
  C     13.033639   -0.083149    8.112945
  C     10.507038    5.060104    9.509710
  H      9.504716    4.835535    9.878367
  H     10.977891    5.753211   10.210349
  H     10.425477    5.555511    8.540496
  C     12.737239    4.131298    8.908671
  H     12.688459    4.532890    7.896084
  H     13.191973    4.874827    9.567580
  H     13.379040    3.249520    8.906622
  C     11.388489    3.079244   10.741110
  H     11.950330    2.145155   10.669774
  H     11.878273    3.711520   11.485050
  H     10.380092    2.853560   11.096564
  C      7.631131   -0.993760   10.786903
  H      6.979610   -1.288768    9.961612
  H      7.537619   -1.735115   11.584504
  H      7.289268   -0.028314   11.166024
  C      9.537447   -2.232127    9.745016
  H     10.558434   -2.151434    9.370134
  H      9.506084   -3.009855   10.512699
  H      8.883987   -2.536783    8.923920
  C      9.973565   -0.468691   11.471411
  H      9.642026    0.491904   11.873461
  H      9.932626   -1.205500   12.277695
  H     11.009684   -0.378011   11.141600
  C     13.138812    0.868788    6.927215
  H     12.994987    1.906342    7.229397
  H     14.121776    0.784188    6.457655
  H     12.387500    0.628542    6.172191
  C     14.123783    0.213976    9.138796
  H     14.023421   -0.457008    9.994327
  H     15.115591    0.073806    8.701980
  H     14.051601    1.241435    9.499396
  C     13.165666   -1.525968    7.630752
  H     12.367837   -1.765891    6.925153
  H     14.126165   -1.683850    7.133658
  H     13.095966   -2.214898    8.474999

----------------------------
CARTESIAN COORDINATES (A.U.)
----------------------------
  NO LB      ZA    FRAG     MASS         X           Y           Z
   0 Fe   26.0000    0    55.850   18.451575    6.347507   12.906701
   1 O     8.0000    0    15.999   17.809984    2.802939   13.031080
   2 O     8.0000    0    15.999   20.892991    8.157829   11.468151
   3 O     8.0000    0    15.999   15.755693    8.266192   12.430580
   4 C     6.0000    0    12.011   16.604261    1.141156   11.251675
   5 C     6.0000    0    12.011   20.871176    9.987328    9.525607
   6 C     6.0000    0    12.011   13.397870    8.460807   13.679285
   7 C     6.0000    0    12.011   18.173542   -1.259139   11.038926
   8 H     1.0000    0     1.008   20.067580   -0.834060   10.342466
   9 H     1.0000    0     1.008   17.284272   -2.569008    9.714637
  10 H     1.0000    0     1.008   18.327825   -2.195578   12.870317
  11 C     6.0000    0    12.011   13.958467    0.494634   12.174714
  12 H     1.0000    0     1.008   14.050716   -0.264665   14.088060
  13 H     1.0000    0     1.008   13.099650   -0.910373   10.929158
  14 H     1.0000    0     1.008   12.745153    2.160602   12.178901
  15 C     6.0000    0    12.011   16.506932    2.483980    8.712370
  16 H     1.0000    0     1.008   15.444665    4.248805    8.847348
  17 H     1.0000    0     1.008   15.581832    1.289083    7.306285
  18 H     1.0000    0     1.008   18.412436    2.911151    8.040858
  19 C     6.0000    0    12.011   23.606765   10.180596    8.625835
  20 H     1.0000    0     1.008   24.838114   10.738072   10.185288
  21 H     1.0000    0     1.008   23.783470   11.581470    7.118507
  22 H     1.0000    0     1.008   24.252607    8.356085    7.909435
  23 C     6.0000    0    12.011   20.004716   12.521126   10.594862
  24 H     1.0000    0     1.008   18.075370   12.368867   11.303391
  25 H     1.0000    0     1.008   20.064031   13.990763    9.144090
  26 H     1.0000    0     1.008   21.239713   13.096787   12.146416
  27 C     6.0000    0    12.011   19.180070    9.188645    7.332598
  28 H     1.0000    0     1.008   19.806323    7.373222    6.572991
  29 H     1.0000    0     1.008   19.257602   10.580859    5.808810
  30 H     1.0000    0     1.008   17.222083    9.017630    7.955921
  31 C     6.0000    0    12.011   13.199317    6.662660   15.920602
  32 H     1.0000    0     1.008   13.470732    4.701722   15.350170
  33 H     1.0000    0     1.008   11.341943    6.823090   16.808163
  34 H     1.0000    0     1.008   14.619397    7.116857   17.346987
  35 C     6.0000    0    12.011   11.337319    7.899083   11.741299
  36 H     1.0000    0     1.008   11.526926    9.166449   10.124102
  37 H     1.0000    0     1.008    9.463253    8.164600   12.566953
  38 H     1.0000    0     1.008   11.473292    5.957212   11.060553
  39 C     6.0000    0    12.011   13.148901   11.187696   14.589696
  40 H     1.0000    0     1.008   14.656921   11.641273   15.922643
  41 H     1.0000    0     1.008   11.334068   11.486555   15.529405
  42 H     1.0000    0     1.008   13.280427   12.489144   12.993930
  43 Fe   26.0000    0    55.850   19.576007    1.955314   16.103509
  44 O     8.0000    0    15.999   20.217634    5.499848   15.979116
  45 O     8.0000    0    15.999   17.134607    0.145062   17.542159
  46 O     8.0000    0    15.999   22.271992    0.036811   16.579642
  47 C     6.0000    0    12.011   21.423957    7.161443   17.758286
  48 C     6.0000    0    12.011   17.156384   -1.684427   19.484697
  49 C     6.0000    0    12.011   24.630008   -0.157129   15.331244
  50 C     6.0000    0    12.011   19.855424    9.562210   17.970747
  51 H     1.0000    0     1.008   17.961311    9.137837   18.667408
  52 H     1.0000    0     1.008   20.745207   10.871994   19.294763
  53 H     1.0000    0     1.008   19.701296   10.498395   16.139199
  54 C     6.0000    0    12.011   24.069894    7.807023   16.834948
  55 H     1.0000    0     1.008   23.977713    8.565920   14.921436
  56 H     1.0000    0     1.008   24.929216    9.212089   18.080106
  57 H     1.0000    0     1.008   25.282722    6.140703   16.831076
  58 C     6.0000    0    12.011   21.521125    5.818928   20.297757
  59 H     1.0000    0     1.008   22.582851    4.053755   20.162950
  60 H     1.0000    0     1.008   22.446683    7.013757   21.703599
  61 H     1.0000    0     1.008   19.615532    5.392447   20.969467
  62 C     6.0000    0    12.011   14.420748   -1.877934   20.384293
  63 H     1.0000    0     1.008   13.189551   -2.435418   18.824719
  64 H     1.0000    0     1.008   14.244037   -3.278893   21.891541
  65 H     1.0000    0     1.008   13.774721   -0.053506   21.100728
  66 C     6.0000    0    12.011   18.023164   -4.218108   18.415411
  67 H     1.0000    0     1.008   19.952549   -4.065622   17.706987
  68 H     1.0000    0     1.008   17.963895   -5.687801   19.866123
  69 H     1.0000    0     1.008   16.788302   -4.793825   16.863765
  70 C     6.0000    0    12.011   18.847306   -0.885697   21.677825
  71 H     1.0000    0     1.008   18.220789    0.929563   22.437590
  72 H     1.0000    0     1.008   18.769943   -2.278065   23.201480
  73 H     1.0000    0     1.008   20.805288   -0.714338   21.054573
  74 C     6.0000    0    12.011   24.828757    1.641772   13.090539
  75 H     1.0000    0     1.008   24.556966    3.602464   13.661581
  76 H     1.0000    0     1.008   26.686289    1.481901   12.203199
  77 H     1.0000    0     1.008   23.408983    1.187773   11.663751
  78 C     6.0000    0    12.011   26.690083    0.404357   17.269821
  79 H     1.0000    0     1.008   26.500424   -0.863620   18.886541
  80 H     1.0000    0     1.008   28.564327    0.139473   16.444359
  81 H     1.0000    0     1.008   26.553678    2.345972   17.951258
  82 C     6.0000    0    12.011   24.879503   -2.883662   14.420031
  83 H     1.0000    0     1.008   23.371825   -3.337050   13.086644
  84 H     1.0000    0     1.008   26.694584   -3.182016   13.480659
  85 H     1.0000    0     1.008   24.747788   -4.185550   16.015427

--------------------------------
INTERNAL COORDINATES (ANGSTROEM)
--------------------------------
 Fe     0   0   0     0.000000000000     0.00000000     0.00000000
 O      1   0   0     1.907320390306     0.00000000     0.00000000
 O      1   2   0     1.779421082262   132.33364748     0.00000000
 O      1   2   3     1.769053035326   115.20066581   138.67716695
 C      2   1   3     1.437724099212   131.14012135   277.40495307
 C      3   1   2     1.412122150396   132.42160177   116.51161622
 C      4   1   2     1.415632900386   133.31696898    53.28559545
 C      5   2   1     1.521724967162   108.47034688   135.87373083
 H      8   5   2     1.091328041972   110.73987598   298.60360428
 H      8   5   2     1.092247703345   110.00254650   179.23724653
 H      8   5   2     1.091531705810   110.73666998    59.57665361
 C      5   2   1     1.521807161931   109.60809008   255.70637902
 H     12   5   2     1.090405341575   109.85794785   305.66867030
 H     12   5   2     1.092596699841   110.00117587   185.49558396
 H     12   5   2     1.090618164693   111.13398090    66.13525366
 C      5   2   1     1.520933172231   107.93269840    16.64525958
 H     16   5   2     1.092367530313   111.04426279   300.29514620
 H     16   5   2     1.092294423717   110.27671344   180.63219965
 H     16   5   2     1.092766694933   110.65236852    60.99761235
 C      6   3   1     1.527333150459   105.37251636   197.52885115
 H     20   6   3     1.092067471763   110.36751387   300.73834764
 H     20   6   3     1.092941156185   110.73372376   180.58361420
 H     20   6   3     1.092104393074   110.21992158    60.35117375
 C      6   3   1     1.525847496046   109.57052974    79.25382304
 H     24   6   3     1.090615227941   110.11289871   297.49256364
 H     24   6   3     1.093246143656   110.85924402   177.14837663
 H     24   6   3     1.092712397295   110.11397363    57.45866152
 C      6   3   1     1.525189427787   111.63527545   316.57851058
 H     28   6   3     1.092844585153   110.21453864   302.19795491
 H     28   6   3     1.093004289551   110.64193825   182.76009178
 H     28   6   3     1.091118162414   110.49560850    62.78116986
 C      7   4   1     1.524200818818   112.24469675     1.31364765
 H     32   7   4     1.090199700292   111.69560455   301.90689392
 H     32   7   4     1.092637696388   110.36475514   181.55777690
 H     32   7   4     1.091888443174   110.67471599    62.37330931
 C      7   4   1     1.526123079624   107.57139956   239.40937802
 H     36   7   4     1.091888425385   109.96159447   304.32004705
 H     36   7   4     1.092763755085   110.77465169   184.35964196
 H     36   7   4     1.091281879657   110.98503335    64.09888044
 C      7   4   1     1.526999910930   106.98136549   121.79671752
 H     40   7   4     1.091774198463   110.39715823   298.55156114
 H     40   7   4     1.092976393274   110.86037503   178.34969666
 H     40   7   4     1.091893680264   110.27600563    58.21869576
 Fe     2   1   3     1.928204838690    99.88027989    91.45671053
 O     44   2   1     1.907306401249    80.11986194     0.00000000
 O     44   2   1     1.779417515553    97.70620921   131.77655517
 O     44   2   1     1.769042939200   130.12486737   245.26890633
 C     45  44   2     1.437722987869   131.13826877   174.06966222
 C     46  44   2     1.412115915348   132.42309635   159.85888970
 C     47  44   2     1.415620604253   133.31389198    45.27558285
 C     48  45  44     1.521706263384   108.46850619   224.10095791
 H     51  48  45     1.091323668116   110.74062272    61.39986708
 H     51  48  45     1.092243391384   110.00118879   180.76601899
 H     51  48  45     1.091538312947   110.73650322   300.42664860
 C     48  45  44     1.521815392040   109.60610932   104.27043886
 H     55  48  45     1.090407108965   109.85699119    54.32445432
 H     55  48  45     1.092602225258   110.00270452   174.49689194
 H     55  48  45     1.090617240386   111.13329184   293.85768626
 C     48  45  44     1.520930988636   107.93528822   343.33252438
 H     59  48  45     1.092372349803   111.04536750    59.70365461
 H     59  48  45     1.092294746758   110.27647733   179.36766813
 H     59  48  45     1.092769393018   110.65085253   299.00082127
 C     49  46  44     1.527336087279   105.37402990   162.47982207
 H     63  49  46     1.092068902729   110.36685266    59.25884322
 H     63  49  46     1.092940952991   110.73406405   179.41363465
 H     63  49  46     1.092102878318   110.22014855   299.64659591
 C     49  46  44     1.525850278848   109.56806676   280.75584395
 H     67  49  46     1.090624152414   110.11269820    62.50541455
 H     67  49  46     1.093244021738   110.85934229   182.85043013
 H     67  49  46     1.092714271867   110.11329813   302.53966555
 C     49  46  44     1.525186928533   111.63596229    43.42838531
 H     71  49  46     1.092841910549   110.21524536    57.80985352
 H     71  49  46     1.093004120466   110.64200045   177.24825152
 H     71  49  46     1.091119480924   110.49560553   297.22688254
 C     50  47  44     1.524205272572   112.24578178   358.69021005
 H     75  50  47     1.090191569586   111.69456285    58.09051026
 H     75  50  47     1.092639656759   110.36713323   178.44103195
 H     75  50  47     1.091901199847   110.67259075   297.62363296
 C     50  47  44     1.526128725930   107.56801284   120.59117915
 H     79  50  47     1.091891398944   109.96122780    55.68502363
 H     79  50  47     1.092766297933   110.77222554   175.64467695
 H     79  50  47     1.091289829931   110.98798498   295.90511396
 C     50  47  44     1.526980120622   106.98251392   238.20529426
 H     83  50  47     1.091770164596   110.39839953    61.45097006
 H     83  50  47     1.092972144588   110.86054228   181.65522147
 H     83  50  47     1.091895371571   110.27294295   301.78466821

---------------------------
INTERNAL COORDINATES (A.U.)
---------------------------
 Fe     0   0   0     0.000000000000     0.00000000     0.00000000
 O      1   0   0     3.604313187322     0.00000000     0.00000000
 O      1   2   0     3.362618522402   132.33364748     0.00000000
 O      1   2   3     3.343025753148   115.20066581   138.67716695
 C      2   1   3     2.716904803650   131.14012135   277.40495307
 C      3   1   2     2.668524131892   132.42160177   116.51161622
 C      4   1   2     2.675158487898   133.31696898    53.28559545
 C      5   2   1     2.875643439087   108.47034688   135.87373083
 H      8   5   2     2.062311121595   110.73987598   298.60360428
 H      8   5   2     2.064049029727   110.00254650   179.23724653
 H      8   5   2     2.062695990474   110.73666998    59.57665361
 C      5   2   1     2.875798764690   109.60809008   255.70637902
 H     12   5   2     2.060567470542   109.85794785   305.66867030
 H     12   5   2     2.064708537526   110.00117587   185.49558396
 H     12   5   2     2.060969647949   111.13398090    66.13525366
 C      5   2   1     2.874147163513   107.93269840    16.64525958
 H     16   5   2     2.064275469879   111.04426279   300.29514620
 H     16   5   2     2.064137318434   110.27671344   180.63219965
 H     16   5   2     2.065029781693   110.65236852    60.99761235
 C      6   3   1     2.886241369627   105.37251636   197.52885115
 H     20   6   3     2.063708441396   110.36751387   300.73834764
 H     20   6   3     2.065359465680   110.73372376   180.58361420
 H     20   6   3     2.063778212563   110.21992158    60.35117375
 C      6   3   1     2.883433889657   109.57052974    79.25382304
 H     24   6   3     2.060964098293   110.11289871   297.49256364
 H     24   6   3     2.065935808476   110.85924402   177.14837663
 H     24   6   3     2.064927174028   110.11397363    57.45866152
 C      6   3   1     2.882190320870   111.63527545   316.57851058
 H     28   6   3     2.065176972879   110.21453864   302.19795491
 H     28   6   3     2.065478770452   110.64193825   182.76009178
 H     28   6   3     2.061914506710   110.49560850    62.78116986
 C      7   4   1     2.880322120665   112.24469675     1.31364765
 H     32   7   4     2.060178864835   111.69560455   301.90689392
 H     32   7   4     2.064786009772   110.36475514   181.55777690
 H     32   7   4     2.063370126392   110.67471599    62.37330931
 C      7   4   1     2.883954667146   107.57139956   239.40937802
 H     36   7   4     2.063370092777   109.96159447   304.32004705
 H     36   7   4     2.065024226187   110.77465169   184.35964196
 H     36   7   4     2.062223887462   110.98503335    64.09888044
 C      7   4   1     2.885611638179   106.98136549   121.79671752
 H     40   7   4     2.063154235176   110.39715823   298.55156114
 H     40   7   4     2.065426054129   110.86037503   178.34969666
 H     40   7   4     2.063380023059   110.27600563    58.21869576
 Fe     2   1   3     3.643779075226    99.88027989    91.45671053
 O     44   2   1     3.604286751836    80.11986194     0.00000000
 O     44   2   1     3.362611782298    97.70620921   131.77655517
 O     44   2   1     3.343006674236   130.12486737   245.26890633
 C     45  44   2     2.716902703515   131.13826877   174.06966222
 C     46  44   2     2.668512349360   132.42309635   159.85888970
 C     47  44   2     2.675135251575   133.31389198    45.27558285
 C     48  45  44     2.875608094068   108.46850619   224.10095791
 H     51  48  45     2.062302856206   110.74062272    61.39986708
 H     51  48  45     2.064040881300   110.00118879   180.76601899
 H     51  48  45     2.062708476152   110.73650322   300.42664860
 C     48  45  44     2.875814317341   109.60610932   104.27043886
 H     55  48  45     2.060570810424   109.85699119    54.32445432
 H     55  48  45     2.064718979051   110.00270452   174.49689194
 H     55  48  45     2.060967901263   111.13329184   293.85768626
 C     48  45  44     2.874143037115   107.93528822   343.33252438
 H     59  48  45     2.064284577396   111.04536750    59.70365461
 H     59  48  45     2.064137928893   110.27647733   179.36766813
 H     59  48  45     2.065034880335   110.65085253   299.00082127
 C     49  46  44     2.886246919412   105.37402990   162.47982207
 H     63  49  46     2.063711145530   110.36685266    59.25884322
 H     63  49  46     2.065359081699   110.73406405   179.41363465
 H     63  49  46     2.063775350089   110.22014855   299.64659591
 C     49  46  44     2.883439148391   109.56806676   280.75584395
 H     67  49  46     2.060980963102   110.11269820    62.50541455
 H     67  49  46     2.065931798632   110.85934229   182.85043013
 H     67  49  46     2.064930716455   110.11329813   302.53966555
 C     49  46  44     2.882185597964   111.63596229    43.42838531
 H     71  49  46     2.065171918610   110.21524536    57.80985352
 H     71  49  46     2.065478450928   110.64200045   177.24825152
 H     71  49  46     2.061916998333   110.49560553   297.22688254
 C     50  47  44     2.880330537041   112.24578178   358.69021005
 H     75  50  47     2.060163500027   111.69456285    58.09051026
 H     75  50  47     2.064789714336   110.36713323   178.44103195
 H     75  50  47     2.063394233012   110.67259075   297.62363296
 C     50  47  44     2.883965337118   107.56801284   120.59117915
 H     79  50  47     2.063375711988   109.96122780    55.68502363
 H     79  50  47     2.065029031473   110.77222554   175.64467695
 H     79  50  47     2.062238911302   110.98798498   295.90511396
 C     50  47  44     2.885574239918   106.98251392   238.20529426
 H     83  50  47     2.063146612272   110.39839953    61.45097006
 H     83  50  47     2.065418025276   110.86054228   181.65522147
 H     83  50  47     2.063383219166   110.27294295   301.78466821

---------------------
BASIS SET INFORMATION
---------------------
There are 4 groups of distinct atoms

 Group   1 Type Fe  : 17s11p7d1f contracted to 6s4p4d1f pattern {842111/6311/4111/1}
 Group   2 Type O   : 11s6p2d1f contracted to 5s3p2d1f pattern {62111/411/11/1}
 Group   3 Type C   : 11s6p2d1f contracted to 5s3p2d1f pattern {62111/411/11/1}
 Group   4 Type H   : 5s1p contracted to 3s1p pattern {311/1}

Atom   0Fe   basis set group =>   1
Atom   1O    basis set group =>   2
Atom   2O    basis set group =>   2
Atom   3O    basis set group =>   2
Atom   4C    basis set group =>   3
Atom   5C    basis set group =>   3
Atom   6C    basis set group =>   3
Atom   7C    basis set group =>   3
Atom   8H    basis set group =>   4
Atom   9H    basis set group =>   4
Atom  10H    basis set group =>   4
Atom  11C    basis set group =>   3
Atom  12H    basis set group =>   4
Atom  13H    basis set group =>   4
Atom  14H    basis set group =>   4
Atom  15C    basis set group =>   3
Atom  16H    basis set group =>   4
Atom  17H    basis set group =>   4
Atom  18H    basis set group =>   4
Atom  19C    basis set group =>   3
Atom  20H    basis set group =>   4
Atom  21H    basis set group =>   4
Atom  22H    basis set group =>   4
Atom  23C    basis set group =>   3
Atom  24H    basis set group =>   4
Atom  25H    basis set group =>   4
Atom  26H    basis set group =>   4
Atom  27C    basis set group =>   3
Atom  28H    basis set group =>   4
Atom  29H    basis set group =>   4
Atom  30H    basis set group =>   4
Atom  31C    basis set group =>   3
Atom  32H    basis set group =>   4
Atom  33H    basis set group =>   4
Atom  34H    basis set group =>   4
Atom  35C    basis set group =>   3
Atom  36H    basis set group =>   4
Atom  37H    basis set group =>   4
Atom  38H    basis set group =>   4
Atom  39C    basis set group =>   3
Atom  40H    basis set group =>   4
Atom  41H    basis set group =>   4
Atom  42H    basis set group =>   4
Atom  43Fe   basis set group =>   1
Atom  44O    basis set group =>   2
Atom  45O    basis set group =>   2
Atom  46O    basis set group =>   2
Atom  47C    basis set group =>   3
Atom  48C    basis set group =>   3
Atom  49C    basis set group =>   3
Atom  50C    basis set group =>   3
Atom  51H    basis set group =>   4
Atom  52H    basis set group =>   4
Atom  53H    basis set group =>   4
Atom  54C    basis set group =>   3
Atom  55H    basis set group =>   4
Atom  56H    basis set group =>   4
Atom  57H    basis set group =>   4
Atom  58C    basis set group =>   3
Atom  59H    basis set group =>   4
Atom  60H    basis set group =>   4
Atom  61H    basis set group =>   4
Atom  62C    basis set group =>   3
Atom  63H    basis set group =>   4
Atom  64H    basis set group =>   4
Atom  65H    basis set group =>   4
Atom  66C    basis set group =>   3
Atom  67H    basis set group =>   4
Atom  68H    basis set group =>   4
Atom  69H    basis set group =>   4
Atom  70C    basis set group =>   3
Atom  71H    basis set group =>   4
Atom  72H    basis set group =>   4
Atom  73H    basis set group =>   4
Atom  74C    basis set group =>   3
Atom  75H    basis set group =>   4
Atom  76H    basis set group =>   4
Atom  77H    basis set group =>   4
Atom  78C    basis set group =>   3
Atom  79H    basis set group =>   4
Atom  80H    basis set group =>   4
Atom  81H    basis set group =>   4
Atom  82C    basis set group =>   3
Atom  83H    basis set group =>   4
Atom  84H    basis set group =>   4
Atom  85H    basis set group =>   4
---------------------------------
AUXILIARY/J BASIS SET INFORMATION
---------------------------------
There are 4 groups of distinct atoms

 Group   1 Type Fe  : 19s5p5d3f3g contracted to 8s5p5d2f3g pattern {121111111/11111/11111/21/111}
 Group   2 Type O   : 12s5p4d2f1g contracted to 6s4p3d1f1g pattern {711111/2111/211/2/1}
 Group   3 Type C   : 12s5p4d2f1g contracted to 6s4p3d1f1g pattern {711111/2111/211/2/1}
 Group   4 Type H   : 5s2p1d contracted to 3s1p1d pattern {311/2/1}

Atom   0Fe   basis set group =>   1
Atom   1O    basis set group =>   2
Atom   2O    basis set group =>   2
Atom   3O    basis set group =>   2
Atom   4C    basis set group =>   3
Atom   5C    basis set group =>   3
Atom   6C    basis set group =>   3
Atom   7C    basis set group =>   3
Atom   8H    basis set group =>   4
Atom   9H    basis set group =>   4
Atom  10H    basis set group =>   4
Atom  11C    basis set group =>   3
Atom  12H    basis set group =>   4
Atom  13H    basis set group =>   4
Atom  14H    basis set group =>   4
Atom  15C    basis set group =>   3
Atom  16H    basis set group =>   4
Atom  17H    basis set group =>   4
Atom  18H    basis set group =>   4
Atom  19C    basis set group =>   3
Atom  20H    basis set group =>   4
Atom  21H    basis set group =>   4
Atom  22H    basis set group =>   4
Atom  23C    basis set group =>   3
Atom  24H    basis set group =>   4
Atom  25H    basis set group =>   4
Atom  26H    basis set group =>   4
Atom  27C    basis set group =>   3
Atom  28H    basis set group =>   4
Atom  29H    basis set group =>   4
Atom  30H    basis set group =>   4
Atom  31C    basis set group =>   3
Atom  32H    basis set group =>   4
Atom  33H    basis set group =>   4
Atom  34H    basis set group =>   4
Atom  35C    basis set group =>   3
Atom  36H    basis set group =>   4
Atom  37H    basis set group =>   4
Atom  38H    basis set group =>   4
Atom  39C    basis set group =>   3
Atom  40H    basis set group =>   4
Atom  41H    basis set group =>   4
Atom  42H    basis set group =>   4
Atom  43Fe   basis set group =>   1
Atom  44O    basis set group =>   2
Atom  45O    basis set group =>   2
Atom  46O    basis set group =>   2
Atom  47C    basis set group =>   3
Atom  48C    basis set group =>   3
Atom  49C    basis set group =>   3
Atom  50C    basis set group =>   3
Atom  51H    basis set group =>   4
Atom  52H    basis set group =>   4
Atom  53H    basis set group =>   4
Atom  54C    basis set group =>   3
Atom  55H    basis set group =>   4
Atom  56H    basis set group =>   4
Atom  57H    basis set group =>   4
Atom  58C    basis set group =>   3
Atom  59H    basis set group =>   4
Atom  60H    basis set group =>   4
Atom  61H    basis set group =>   4
Atom  62C    basis set group =>   3
Atom  63H    basis set group =>   4
Atom  64H    basis set group =>   4
Atom  65H    basis set group =>   4
Atom  66C    basis set group =>   3
Atom  67H    basis set group =>   4
Atom  68H    basis set group =>   4
Atom  69H    basis set group =>   4
Atom  70C    basis set group =>   3
Atom  71H    basis set group =>   4
Atom  72H    basis set group =>   4
Atom  73H    basis set group =>   4
Atom  74C    basis set group =>   3
Atom  75H    basis set group =>   4
Atom  76H    basis set group =>   4
Atom  77H    basis set group =>   4
Atom  78C    basis set group =>   3
Atom  79H    basis set group =>   4
Atom  80H    basis set group =>   4
Atom  81H    basis set group =>   4
Atom  82C    basis set group =>   3
Atom  83H    basis set group =>   4
Atom  84H    basis set group =>   4
Atom  85H    basis set group =>   4


           ************************************************************
           *        Program running with 32 parallel MPI-processes    *
           *              working on a common directory               *
           ************************************************************
------------------------------------------------------------------------------
                           ORCA GTO INTEGRAL CALCULATION
                           -- RI-GTO INTEGRALS CHOSEN --
------------------------------------------------------------------------------
------------------------------------------------------------------------------
                   ___                                                        
                  /   \      - P O W E R E D   B Y -                         
                 /     \                                                     
                 |  |  |   _    _      __       _____    __    __             
                 |  |  |  | |  | |    /  \     |  _  \  |  |  /  |          
                  \  \/   | |  | |   /    \    | | | |  |  | /  /          
                 / \  \   | |__| |  /  /\  \   | |_| |  |  |/  /          
                |  |  |   |  __  | /  /__\  \  |    /   |      \           
                |  |  |   | |  | | |   __   |  |    \   |  |\   \          
                \     /   | |  | | |  |  |  |  | |\  \  |  | \   \       
                 \___/    |_|  |_| |__|  |__|  |_| \__\ |__|  \__/        
                                                                              
                      - O R C A' S   B I G   F R I E N D -                    
                                      &                                       
                       - I N T E G R A L  F E E D E R -                       
                                                                              
 v1 FN, 2020, v2 2021                                                         
------------------------------------------------------------------------------


Reading SHARK input file Fe2_tert-butoxide_6_LowSpin.SHARKINP.tmp ... ok
----------------------
SHARK INTEGRAL PACKAGE
----------------------

Number of atoms                             ...     86
Number of basis functions                   ...   1344
Number of shells                            ...    576
Maximum angular momentum                    ...      3
Integral batch strategy                     ... SHARK/LIBINT Hybrid
RI-J (if used) integral strategy            ... SPLIT-RIJ (Revised 2003 algorithm where possible)
Printlevel                                  ...      1
Contraction scheme used                     ... SEGMENTED contraction
Coulomb Range Separation                    ... NOT USED
Exchange Range Separation                   ... NOT USED
Finite Nucleus Model                        ... NOT USED
Auxiliary Coulomb fitting basis             ... AVAILABLE
   # of basis functions in Aux-J            ...   2242
   # of shells in Aux-J                     ...    766
   Maximum angular momentum in Aux-J        ...      4
Auxiliary J/K fitting basis                 ... NOT available
Auxiliary Correlation fitting basis         ... NOT available
Auxiliary 'external' fitting basis          ... NOT available
Integral threshold                          ...     1.000000e-10
Primitive cut-off                           ...     1.000000e-11
Primitive pair pre-selection threshold      ...     1.000000e-11

Calculating pre-screening integrals         ... done (  0.1 sec) Dimension = 576
Organizing shell pair data                  ... done (  0.9 sec)
Shell pair information
Total number of shell pairs                 ...    166176
Shell pairs after pre-screening             ...    102710
Total number of primitive shell pairs       ...    497446
Primitive shell pairs kept                  ...    193169
          la=0 lb=0:  32791 shell pairs
          la=1 lb=0:  31114 shell pairs
          la=1 lb=1:   7405 shell pairs
          la=2 lb=0:  13642 shell pairs
          la=2 lb=1:   6450 shell pairs
          la=2 lb=2:   1504 shell pairs
          la=3 lb=0:   5624 shell pairs
          la=3 lb=1:   2706 shell pairs
          la=3 lb=2:   1224 shell pairs
          la=3 lb=3:    250 shell pairs

Calculating one electron integrals          ... done (  0.1 sec)
Calculating RI/J V-Matrix + Cholesky decomp.... done (  1.2 sec)
Calculating Nuclear repulsion               ... done (  0.0 sec) ENN=   5647.209689092401 Eh

SHARK setup successfully completed in   3.4 seconds

Maximum memory used throughout the entire GTOINT-calculation: 143.9 MB


           ************************************************************
           *        Program running with 32 parallel MPI-processes    *
           *              working on a common directory               *
           ************************************************************
-------------------------------------------------------------------------------
                                 ORCA SCF
-------------------------------------------------------------------------------

------------
SCF SETTINGS
------------
Hamiltonian:
 Density Functional     Method          .... DFT(GTOs)
 Exchange Functional    Exchange        .... PBE
   PBE kappa parameter   XKappa         ....  0.804000
   PBE mue parameter    XMuePBE         ....  0.219520
 Correlation Functional Correlation     .... PBE
   PBE beta parameter  CBetaPBE         ....  0.066725
 LDA part of GGA corr.  LDAOpt          .... PW91-LDA
 Gradients option       PostSCFGGA      .... off
 Hybrid DFT is turned on
   Fraction HF Exchange ScalHFX         ....  0.250000
   Scaling of DF-GGA-X  ScalDFX         ....  0.750000
   Scaling of DF-GGA-C  ScalDFC         ....  1.000000
   Scaling of DF-LDA-C  ScalLDAC        ....  1.000000
   Perturbative correction              ....  0.000000
   Density functional embedding theory  .... OFF
   NL short-range parameter             ....  6.900000
 RI-approximation to the Coulomb term is turned on
   Number of AuxJ basis functions       .... 2242
   RIJ-COSX (HFX calculated with COS-X)).... on


General Settings:
 Integral files         IntName         .... Fe2_tert-butoxide_6_LowSpin
 Hartree-Fock type      HFTyp           .... UHF
 Total Charge           Charge          ....    0
 Multiplicity           Mult            ....    3
 Number of Electrons    NEL             ....  298
 Basis Dimension        Dim             .... 1344
 Nuclear Repulsion      ENuc            ....   5647.2096890924 Eh

Convergence Acceleration:
 DIIS                   CNVDIIS         .... on
   Start iteration      DIISMaxIt       ....    12
   Startup error        DIISStart       ....  0.200000
   # of expansion vecs  DIISMaxEq       ....     5
   Bias factor          DIISBfac        ....   1.050
   Max. coefficient     DIISMaxC        ....  10.000
 Trust-Rad. Augm. Hess. CNVTRAH         .... auto
   Auto Start mean grad. ratio tolernc. ....  1.125000
   Auto Start start iteration           ....    20
   Auto Start num. interpolation iter.  ....    10
   Max. Number of Micro iterations      ....    16
   Max. Number of Macro iterations      .... Maxiter - #DIIS iter
   Number of Davidson start vectors     ....     2
   Converg. threshold I  (grad. norm)   ....   5.000e-05
   Converg. threshold II (energy diff.) ....   1.000e-06
   Grad. Scal. Fac. for Micro threshold ....   0.100
   Minimum threshold for Micro iter.    ....   0.010
   NR start threshold (gradient norm)   ....   0.001
   Initial trust radius                 ....   0.400
   Minimum AH scaling param. (alpha)    ....   1.000
   Maximum AH scaling param. (alpha)    .... 1000.000
   Orbital update algorithm             .... Taylor
   White noise on init. David. guess    .... on
   Maximum white noise                  ....   0.010
   Quad. conv. algorithm                .... NR
 SOSCF                  CNVSOSCF        .... off
 Level Shifting         CNVShift        .... on
   Level shift para.    LevelShift      ....    0.2500
   Turn off err/grad.   ShiftErr        ....    0.0010
 Zerner damping         CNVZerner       .... off
 Static damping         CNVDamp         .... on
   Fraction old density DampFac         ....    0.7000
   Max. Damping (<1)    DampMax         ....    0.9800
   Min. Damping (>=0)   DampMin         ....    0.0000
   Turn off err/grad.   DampErr         ....    0.1000
 Fernandez-Rico         CNVRico         .... off

SCF Procedure:
 Maximum # iterations   MaxIter         ....   125
 SCF integral mode      SCFMode         .... Direct
   Integral package                     .... SHARK and LIBINT hybrid scheme
 Reset frequency        DirectResetFreq ....    20
 Integral Threshold     Thresh          ....  1.000e-10 Eh
 Primitive CutOff       TCut            ....  1.000e-11 Eh

Convergence Tolerance:
 Convergence Check Mode ConvCheckMode   .... Total+1el-Energy
 Convergence forced     ConvForced      .... 0
 Energy Change          TolE            ....  1.000e-06 Eh
 1-El. energy change                    ....  1.000e-03 Eh
 DIIS Error             TolErr          ....  1.000e-06


Diagonalization of the overlap matrix:
Smallest eigenvalue                        ... 8.534e-05
Time for diagonalization                   ...    1.985 sec
Threshold for overlap eigenvalues          ... 1.000e-08
Number of eigenvalues below threshold      ... 0
Time for construction of square roots      ...    0.295 sec
Total time needed                          ...    2.293 sec

Time for model grid setup =    0.593 sec

------------------------------
INITIAL GUESS: MODEL POTENTIAL
------------------------------
Loading Hartree-Fock densities                     ... done
Calculating cut-offs                               ... done
Initializing the effective Hamiltonian             ... done
Setting up the integral package (SHARK)            ... done
Starting the Coulomb interaction                   ... done (   0.6 sec)
Reading the grid                                   ... done
Mapping shells                                     ... done
Starting the XC term evaluation                    ... done (   0.2 sec)
  promolecular density results
     # of electrons  =    297.976193851
     EX              =   -296.091892895
     EC              =    -10.528122360
     EX+EC           =   -306.620015255
Transforming the Hamiltonian                       ... done (   0.2 sec)
Diagonalizing the Hamiltonian                      ... done (   0.3 sec)
Back transforming the eigenvectors                 ... done (   0.1 sec)
Now organizing SCF variables                       ... done
                      ------------------
                      INITIAL GUESS DONE (   2.1 sec)
                      ------------------
-------------------
DFT GRID GENERATION
-------------------

General Integration Accuracy     IntAcc      ... 4.388
Radial Grid Type                 RadialGrid  ... OptM3 with GC (2021)
Angular Grid (max. ang.)         AngularGrid ... 4 (Lebedev-302)
Angular grid pruning method      GridPruning ... 4 (adaptive)
Weight generation scheme         WeightScheme... Becke
Basis function cutoff            BFCut       ... 1.0000e-10
Integration weight cutoff        WCut        ... 1.0000e-14
Angular grids for H and He will be reduced by one unit
Partially contracted basis set               ... off
Rotationally invariant grid construction     ... off

Total number of grid points                  ...   367201
Total number of batches                      ...     5775
Average number of points per batch           ...       63
Average number of grid points per atom       ...     4270
Time for grid setup =    2.268 sec

--------------------
COSX GRID GENERATION
--------------------

GRIDX 1
-------
General Integration Accuracy     IntAcc      ... 3.816
Radial Grid Type                 RadialGrid  ... OptM3 with GC (2021)
Angular Grid (max. ang.)         AngularGrid ... 1 (Lebedev-50)
Angular grid pruning method      GridPruning ... 4 (adaptive)
Weight generation scheme         WeightScheme... Becke
Basis function cutoff            BFCut       ... 1.0000e-10
Integration weight cutoff        WCut        ... 1.0000e-14
Angular grids for H and He will be reduced by one unit
Partially contracted basis set               ... on
Rotationally invariant grid construction     ... off

Total number of grid points                  ...    46206
Total number of batches                      ...      766
Average number of points per batch           ...       60
Average number of grid points per atom       ...      537
UseSFitting                                  ... on

GRIDX 2
-------
General Integration Accuracy     IntAcc      ... 4.020
Radial Grid Type                 RadialGrid  ... OptM3 with GC (2021)
Angular Grid (max. ang.)         AngularGrid ... 2 (Lebedev-110)
Angular grid pruning method      GridPruning ... 4 (adaptive)
Weight generation scheme         WeightScheme... Becke
Basis function cutoff            BFCut       ... 1.0000e-10
Integration weight cutoff        WCut        ... 1.0000e-14
Angular grids for H and He will be reduced by one unit
Partially contracted basis set               ... on
Rotationally invariant grid construction     ... off

Total number of grid points                  ...    94533
Total number of batches                      ...     1511
Average number of points per batch           ...       62
Average number of grid points per atom       ...     1099
UseSFitting                                  ... on

GRIDX 3
-------
General Integration Accuracy     IntAcc      ... 4.338
Radial Grid Type                 RadialGrid  ... OptM3 with GC (2021)
Angular Grid (max. ang.)         AngularGrid ... 3 (Lebedev-194)
Angular grid pruning method      GridPruning ... 4 (adaptive)
Weight generation scheme         WeightScheme... Becke
Basis function cutoff            BFCut       ... 1.0000e-10
Integration weight cutoff        WCut        ... 1.0000e-14
Angular grids for H and He will be reduced by one unit
Partially contracted basis set               ... on
Rotationally invariant grid construction     ... off

Total number of grid points                  ...   203279
Total number of batches                      ...     3218
Average number of points per batch           ...       63
Average number of grid points per atom       ...     2364
UseSFitting                                  ... on

Time for X-Grid setup             =    3.251 sec

--------------
SCF ITERATIONS
--------------
ITER       Energy         Delta-E        Max-DP      RMS-DP      [F,P]     Damp
               ***  Starting incremental Fock matrix formation  ***
  0  -3922.6929158309   0.000000000000 0.08724779  0.00035641  0.1595251 0.7000
  1  -3923.2869529773  -0.594037146484 0.02849504  0.00021653  0.0857428 0.7000
                               ***Turning on DIIS***
  2  -3923.6428716420  -0.355918664651 0.08804756  0.00044640  0.0375376 0.0000
  3  -3924.0241874950  -0.381315852967 0.01282994  0.00007617  0.1516293 0.7000
  4  -3924.1395820763  -0.115394581299 0.01281684  0.00007990  0.1115866 0.7000
  5  -3924.2232829093  -0.083700833074 0.03132598  0.00021881  0.0763056 0.0000
  6  -3924.3422696754  -0.118986766083 0.00576055  0.00003563  0.0045772 0.0000
  7  -3924.3464895179  -0.004219842489 0.00411001  0.00002672  0.0058432 0.0000
  8  -3924.3493380108  -0.002848492874 0.00589456  0.00002371  0.0030125 0.0000
  9  -3924.3516293174  -0.002291306638 0.00606671  0.00002054  0.0031628 0.0000
 10  -3924.3535522528  -0.001922935376 0.00549036  0.00001698  0.0033216 0.0000
 11  -3924.3551155399  -0.001563287080 0.00533870  0.00001540  0.0034734 0.0000
 12  -3924.3565415566  -0.001426016713 0.00350774  0.00001024  0.0036508 0.0000
 13  -3924.3574735391  -0.000931982519 0.00114716  0.00000453  0.0038378 0.0000
 14  -3924.3578178565  -0.000344317416 0.00078691  0.00000286  0.0039853 0.0000
 15  -3924.3580388310  -0.000220974514 0.00162784  0.00000449  0.0040483 0.0000
 16  -3924.3584573922  -0.000418561169 0.00290216  0.00000751  0.0040682 0.0000
 17  -3924.3591713689  -0.000713976709 0.00374828  0.00000989  0.0040777 0.0000
 18  -3924.3601124491  -0.000941080169 0.00601971  0.00001512  0.0040957 0.0000
 19  -3924.3615645106  -0.001452061543 0.00735422  0.00002001  0.0040583 0.0000
               *** Restarting incremental Fock matrix formation ***
                                   *** Resetting DIIS ***

 WARNING: the maximum gradient error descreased on average only by a factor   1.0
          during the last 20 iterations

                      *** Initiating the TRAH-SCF procedure ***


TRAH GRIDX
----------

General Integration Accuracy     IntAcc      ... 3.067
Radial Grid Type                 RadialGrid  ... OptM3 with GC (2021)
Angular Grid (max. ang.)         AngularGrid ... 1 (Lebedev-50)
Angular grid pruning method      GridPruning ... 4 (adaptive)
Weight generation scheme         WeightScheme... Becke
Basis function cutoff            BFCut       ... 1.0000e-10
Integration weight cutoff        WCut        ... 1.0000e-14
Angular grids for H and He will be reduced by one unit
Partially contracted basis set               ... on
Rotationally invariant grid construction     ... off

Total number of grid points                  ...    24310
Total number of batches                      ...      412
Average number of points per batch           ...       59
Average number of grid points per atom       ...      283


TRAH GRID
---------

General Integration Accuracy     IntAcc      ... 3.467
Radial Grid Type                 RadialGrid  ... OptM3 with GC (2021)
Angular Grid (max. ang.)         AngularGrid ... 1 (Lebedev-50)
Angular grid pruning method      GridPruning ... 4 (adaptive)
Weight generation scheme         WeightScheme... Becke
Basis function cutoff            BFCut       ... 1.0000e-10
Integration weight cutoff        WCut        ... 1.0000e-14
Angular grids for H and He will be reduced by one unit
Partially contracted basis set               ... off
Rotationally invariant grid construction     ... off

Total number of grid points                  ...    54076
Total number of batches                      ...      890
Average number of points per batch           ...       60
Average number of grid points per atom       ...      629

 --------------------------------------------------------------------------------------------
   Iter.        energy            ||Error||_2        Shift      TRadius  Mac/Mic        Rej.
 --------------------------------------------------------------------------------------------
    0      -3924.363487071247     2.015943e-02                     0.400 (TRAH MAcro)   No
    0     dE    -4.696293e-04     6.667914e-02    -4.6937e-04      0.023 (TRAH MIcro)
    0     dE    -6.766911e-03     1.984382e-01    -6.0806e-03      0.336 (TRAH MIcro)
    0     dE    -1.333938e-02     3.891871e-02    -3.7510e-02      0.400 (TRAH MIcro)
    0     dE    -1.372554e-02     1.485374e-02    -3.9698e-02      0.400 (TRAH MIcro)
    0     dE    -1.395735e-02     1.343089e-02    -4.1031e-02      0.400 (TRAH MIcro)
    0     dE    -1.402374e-02     1.103242e-02    -4.1540e-02      0.400 (TRAH MIcro)
    0     dE    -1.407619e-02     7.005718e-03    -4.2071e-02      0.400 (TRAH MIcro)
    0     dE    -1.412431e-02     5.672907e-03    -4.2767e-02      0.400 (TRAH MIcro)
    0     dE    -1.413880e-02     3.440620e-03    -4.3018e-02      0.400 (TRAH MIcro)
    0     dE    -1.401438e-02     2.063204e-03    -4.3555e-02      0.396 (TRAH MIcro)
    0     dE    -1.403140e-02     1.680901e-03    -4.3566e-02      0.397 (TRAH MIcro)
    1      -3924.374907766674     1.357253e-02                     0.480 (TRAH MAcro)   No
    1     dE    -4.061837e-05     2.718117e-02    -4.0618e-05      0.003 (TRAH MIcro)
    1     dE    -1.188554e-03     3.767056e-02    -1.1687e-03      0.130 (TRAH MIcro)
    1     dE    -1.553843e-03     2.330801e-02    -1.5083e-03      0.174 (TRAH MIcro)
    1     dE    -2.024323e-03     2.082772e-02    -1.9238e-03      0.229 (TRAH MIcro)
    1     dE    -2.233523e-03     1.697468e-02    -2.0981e-03      0.254 (TRAH MIcro)
    1     dE    -2.475838e-03     1.446000e-02    -2.2879e-03      0.287 (TRAH MIcro)
    1     dE    -2.676436e-03     1.576866e-02    -2.4309e-03      0.318 (TRAH MIcro)
    1     dE    -2.766125e-03     1.052841e-02    -2.4904e-03      0.333 (TRAH MIcro)
    1     dE    -2.800777e-03     4.947610e-03    -2.5123e-03      0.339 (TRAH MIcro)
    1     dE    -2.813281e-03     3.247813e-03    -2.5201e-03      0.341 (TRAH MIcro)
    1     dE    -2.823145e-03     2.921518e-03    -2.5262e-03      0.343 (TRAH MIcro)
    1     dE    -2.831278e-03     1.973613e-03    -2.5312e-03      0.344 (TRAH MIcro)
    1     dE    -2.836781e-03     1.925923e-03    -2.5345e-03      0.345 (TRAH MIcro)
    1     dE    -2.840671e-03     1.557998e-03    -2.5367e-03      0.346 (TRAH MIcro)
    2      -3924.377175566206     9.233288e-03                     0.576 (TRAH MAcro)   No
    2     dE    -1.469057e-05     2.031199e-02    -1.4691e-05      0.002 (TRAH MIcro)
    2     dE    -5.741123e-05     9.487989e-03    -5.7404e-05      0.011 (TRAH MIcro)
    2     dE    -1.093398e-04     1.009171e-02    -1.0926e-04      0.028 (TRAH MIcro)
    2     dE    -1.336859e-04     4.896262e-03    -1.3348e-04      0.039 (TRAH MIcro)
    2     dE    -1.440997e-04     3.938710e-03    -1.4381e-04      0.045 (TRAH MIcro)
    2     dE    -1.479695e-04     3.244315e-03    -1.4763e-04      0.048 (TRAH MIcro)
    2     dE    -1.503259e-04     1.776218e-03    -1.4996e-04      0.050 (TRAH MIcro)
    2     dE    -1.516622e-04     1.416212e-03    -1.5127e-04      0.051 (TRAH MIcro)
    2     dE    -1.530399e-04     2.123220e-03    -1.5263e-04      0.052 (TRAH MIcro)
    2     dE    -1.541702e-04     1.060111e-03    -1.5374e-04      0.053 (TRAH MIcro)
    2     dE    -1.549545e-04     1.375564e-03    -1.5450e-04      0.054 (TRAH MIcro)
    2     dE    -1.556765e-04     1.214885e-03    -1.5521e-04      0.055 (TRAH MIcro)
    2     dE    -1.560180e-04     5.723043e-04    -1.5554e-04      0.056 (TRAH MIcro)
    3      -3924.377334803799     6.484864e-04                           (NR   MAcro)
    3     dE    -1.511271e-07     4.143033e-04                           (NR   MIcro)
    3     dE    -2.638912e-07     3.524956e-04                           (NR   MIcro)
    3     dE    -3.555605e-07     3.615169e-04                           (NR   MIcro)
    3     dE    -4.050090e-07     1.947330e-04                           (NR   MIcro)
    3     dE    -4.246256e-07     1.077479e-04                           (NR   MIcro)
    3     dE    -4.328834e-07     8.860135e-05                           (NR   MIcro)
    3     dE    -4.386307e-07     6.598156e-05                           (NR   MIcro)
    3     dE    -4.415548e-07     5.757772e-05                           (NR   MIcro)
    3     dE    -4.437436e-07     5.136855e-05                           (NR   MIcro)
    3     dE    -4.451842e-07     5.287240e-05                           (NR   MIcro)
    3     dE    -4.474657e-07     6.022553e-05                           (NR   MIcro)
    3     dE    -4.507200e-07     6.038452e-05                           (NR   MIcro)
    3     dE    -4.534326e-07     4.455973e-05                           (NR   MIcro)
    3     dE    -4.550261e-07     4.616548e-05                           (NR   MIcro)
    3     dE    -4.559044e-07     3.239926e-05                           (NR   MIcro)
    4      -3924.377335251170     3.258845e-05                           (NR   MAcro)

               *****************************************************
               *                     SUCCESS                       *
               *           SCF CONVERGED AFTER  78 CYCLES          *
               *****************************************************

Old exchange energy                            =    -75.401213969 Eh
New exchange energy                            =    -75.401253241 Eh
Exchange energy change after final integration =     -0.000039273 Eh
Total energy after final integration           =  -3924.377374524 Eh
Final COS-X integration done in                =    25.666 sec

----------------
TOTAL SCF ENERGY
----------------

Total Energy       :        -3924.37737452 Eh         -106787.73734 eV

Components:
Nuclear Repulsion  :         5647.20968909 Eh          153668.38799 eV
Electronic Energy  :        -9571.58706362 Eh         -260456.12533 eV
One Electron Energy:       -16654.04798712 Eh         -453179.68494 eV
Two Electron Energy:         7082.46092351 Eh          192723.55961 eV
Max COSX asymmetry :            0.00000094 Eh               0.00003 eV

Virial components:
Potential Energy   :        -7838.64927230 Eh         -213300.49069 eV
Kinetic Energy     :         3914.27189777 Eh          106512.75334 eV
Virial Ratio       :            2.00258170


DFT components:
N(Alpha)           :      149.999881228606 electrons
N(Beta)            :      147.999909096342 electrons
N(Total)           :      297.999790324948 electrons
E(X)               :     -225.675784512176 Eh       
E(C)               :      -10.472985049863 Eh       
E(XC)              :     -236.148769562038 Eh       
DFET-embed. en.    :        0.000000000000 Eh       

---------------
SCF CONVERGENCE
---------------

  Last Energy change         ...   -4.4737e-07  Tolerance :   1.0000e-06
  Last Orbital Gradient      ...    3.2588e-05  Tolerance :   5.0000e-05
  Last Orbital Rotation      ...    3.1827e-03

             **** THE GBW FILE WAS UPDATED (Fe2_tert-butoxide_6_LowSpin.gbw) ****
             **** DENSITY Fe2_tert-butoxide_6_LowSpin.scfp WAS UPDATED ****
             **** ENERGY FILE WAS UPDATED (Fe2_tert-butoxide_6_LowSpin.en.tmp) ****
----------------------
UHF SPIN CONTAMINATION
----------------------

Warning: in a DFT calculation there is little theoretical justification to 
         calculate <S**2> as in Hartree-Fock theory. We will do it anyways
         but you should keep in mind that the values have only limited relevance

Expectation value of <S**2>     :     3.889625
Ideal value S*(S+1) for S=1.0   :     2.000000
Deviation                       :     1.889625

             **** THE GBW FILE WAS UPDATED (Fe2_tert-butoxide_6_LowSpin.gbw) ****
             **** DENSITY Fe2_tert-butoxide_6_LowSpin.scfp WAS UPDATED ****
----------------
ORBITAL ENERGIES
----------------
                 SPIN UP ORBITALS
  NO   OCC          E(Eh)            E(eV) 
   0   1.0000    -256.410116     -6977.2740 
   1   1.0000    -256.410111     -6977.2739 
   2   1.0000     -30.195240      -821.6542 
   3   1.0000     -30.195235      -821.6541 
   4   1.0000     -26.028181      -708.2628 
   5   1.0000     -26.028178      -708.2627 
   6   1.0000     -26.017196      -707.9639 
   7   1.0000     -26.017182      -707.9635 
   8   1.0000     -26.012217      -707.8284 
   9   1.0000     -26.012211      -707.8282 
  10   1.0000     -19.218761      -522.9691 
  11   1.0000     -19.218755      -522.9689 
  12   1.0000     -19.188175      -522.1368 
  13   1.0000     -19.188171      -522.1367 
  14   1.0000     -19.179657      -521.9050 
  15   1.0000     -19.179651      -521.9048 
  16   1.0000     -10.285879      -279.8930 
  17   1.0000     -10.285876      -279.8929 
  18   1.0000     -10.276186      -279.6292 
  19   1.0000     -10.276182      -279.6291 
  20   1.0000     -10.265885      -279.3489 
  21   1.0000     -10.265882      -279.3489 
  22   1.0000     -10.211697      -277.8744 
  23   1.0000     -10.211696      -277.8744 
  24   1.0000     -10.208993      -277.8008 
  25   1.0000     -10.208988      -277.8007 
  26   1.0000     -10.204794      -277.6866 
  27   1.0000     -10.204793      -277.6865 
  28   1.0000     -10.203505      -277.6515 
  29   1.0000     -10.203499      -277.6513 
  30   1.0000     -10.202461      -277.6231 
  31   1.0000     -10.202460      -277.6231 
  32   1.0000     -10.202254      -277.6175 
  33   1.0000     -10.202253      -277.6174 
  34   1.0000     -10.196913      -277.4721 
  35   1.0000     -10.196911      -277.4721 
  36   1.0000     -10.194814      -277.4150 
  37   1.0000     -10.194812      -277.4149 
  38   1.0000     -10.192504      -277.3521 
  39   1.0000     -10.192501      -277.3520 
  40   1.0000      -3.564895       -97.0057 
  41   1.0000      -3.564814       -97.0035 
  42   1.0000      -2.342734       -63.7490 
  43   1.0000      -2.342623       -63.7460 
  44   1.0000      -2.315954       -63.0203 
  45   1.0000      -2.315107       -62.9973 
  46   1.0000      -2.305841       -62.7451 
  47   1.0000      -2.305761       -62.7429 
  48   1.0000      -1.037877       -28.2421 
  49   1.0000      -1.026207       -27.9245 
  50   1.0000      -1.006940       -27.4002 
  51   1.0000      -1.006214       -27.3805 
  52   1.0000      -0.999127       -27.1876 
  53   1.0000      -0.998945       -27.1827 
  54   1.0000      -0.819077       -22.2882 
  55   1.0000      -0.812923       -22.1208 
  56   1.0000      -0.801535       -21.8109 
  57   1.0000      -0.801359       -21.8061 
  58   1.0000      -0.792465       -21.5641 
  59   1.0000      -0.792413       -21.5626 
  60   1.0000      -0.717249       -19.5173 
  61   1.0000      -0.716997       -19.5105 
  62   1.0000      -0.713291       -19.4096 
  63   1.0000      -0.712474       -19.3874 
  64   1.0000      -0.709428       -19.3045 
  65   1.0000      -0.708375       -19.2759 
  66   1.0000      -0.706273       -19.2187 
  67   1.0000      -0.705679       -19.2025 
  68   1.0000      -0.699830       -19.0433 
  69   1.0000      -0.699672       -19.0390 
  70   1.0000      -0.698105       -18.9964 
  71   1.0000      -0.698065       -18.9953 
  72   1.0000      -0.601207       -16.3597 
  73   1.0000      -0.571573       -15.5533 
  74   1.0000      -0.568861       -15.4795 
  75   1.0000      -0.566600       -15.4180 
  76   1.0000      -0.560055       -15.2399 
  77   1.0000      -0.559975       -15.2377 
  78   1.0000      -0.507323       -13.8050 
  79   1.0000      -0.491906       -13.3854 
  80   1.0000      -0.490868       -13.3572 
  81   1.0000      -0.486843       -13.2477 
  82   1.0000      -0.485315       -13.2061 
  83   1.0000      -0.482169       -13.1205 
  84   1.0000      -0.480074       -13.0635 
  85   1.0000      -0.478922       -13.0321 
  86   1.0000      -0.471910       -12.8413 
  87   1.0000      -0.470917       -12.8143 
  88   1.0000      -0.466930       -12.7058 
  89   1.0000      -0.465519       -12.6674 
  90   1.0000      -0.460561       -12.5325 
  91   1.0000      -0.459130       -12.4936 
  92   1.0000      -0.455639       -12.3986 
  93   1.0000      -0.454601       -12.3703 
  94   1.0000      -0.451855       -12.2956 
  95   1.0000      -0.451816       -12.2945 
  96   1.0000      -0.429206       -11.6793 
  97   1.0000      -0.427928       -11.6445 
  98   1.0000      -0.423534       -11.5249 
  99   1.0000      -0.420338       -11.4380 
 100   1.0000      -0.415654       -11.3105 
 101   1.0000      -0.414499       -11.2791 
 102   1.0000      -0.413499       -11.2519 
 103   1.0000      -0.408573       -11.1178 
 104   1.0000      -0.406968       -11.0742 
 105   1.0000      -0.404426       -11.0050 
 106   1.0000      -0.402124       -10.9424 
 107   1.0000      -0.400776       -10.9057 
 108   1.0000      -0.400595       -10.9007 
 109   1.0000      -0.395379       -10.7588 
 110   1.0000      -0.394601       -10.7376 
 111   1.0000      -0.392444       -10.6790 
 112   1.0000      -0.391987       -10.6665 
 113   1.0000      -0.390414       -10.6237 
 114   1.0000      -0.386643       -10.5211 
 115   1.0000      -0.380717       -10.3598 
 116   1.0000      -0.380449       -10.3525 
 117   1.0000      -0.380080       -10.3425 
 118   1.0000      -0.373649       -10.1675 
 119   1.0000      -0.373565       -10.1652 
 120   1.0000      -0.372764       -10.1434 
 121   1.0000      -0.370161       -10.0726 
 122   1.0000      -0.367976       -10.0131 
 123   1.0000      -0.365598        -9.9484 
 124   1.0000      -0.364398        -9.9158 
 125   1.0000      -0.363316        -9.8863 
 126   1.0000      -0.361660        -9.8413 
 127   1.0000      -0.361081        -9.8255 
 128   1.0000      -0.356282        -9.6949 
 129   1.0000      -0.352989        -9.6053 
 130   1.0000      -0.349383        -9.5072 
 131   1.0000      -0.349275        -9.5043 
 132   1.0000      -0.344023        -9.3613 
 133   1.0000      -0.342868        -9.3299 
 134   1.0000      -0.338547        -9.2123 
 135   1.0000      -0.338280        -9.2051 
 136   1.0000      -0.328673        -8.9437 
 137   1.0000      -0.324667        -8.8346 
 138   1.0000      -0.310407        -8.4466 
 139   1.0000      -0.307813        -8.3760 
 140   1.0000      -0.300176        -8.1682 
 141   1.0000      -0.295830        -8.0499 
 142   1.0000      -0.286776        -7.8036 
 143   1.0000      -0.279161        -7.5964 
 144   1.0000      -0.277098        -7.5402 
 145   1.0000      -0.270556        -7.3622 
 146   1.0000      -0.260552        -7.0900 
 147   1.0000      -0.253424        -6.8960 
 148   1.0000      -0.248139        -6.7522 
 149   1.0000      -0.244928        -6.6648 
 150   0.0000      -0.087305        -2.3757 
 151   0.0000      -0.084195        -2.2911 
 152   0.0000      -0.078212        -2.1282 
 153   0.0000      -0.073388        -1.9970 
 154   0.0000       0.025306         0.6886 
 155   0.0000       0.042368         1.1529 
 156   0.0000       0.045877         1.2484 
 157   0.0000       0.049418         1.3447 
 158   0.0000       0.056130         1.5274 
 159   0.0000       0.057648         1.5687 
 160   0.0000       0.072305         1.9675 
 161   0.0000       0.075019         2.0414 
 162   0.0000       0.075481         2.0539 
 163   0.0000       0.079219         2.1557 
 164   0.0000       0.080968         2.2032 
 165   0.0000       0.082276         2.2389 
 166   0.0000       0.085656         2.3308 
 167   0.0000       0.087957         2.3934 
 168   0.0000       0.092950         2.5293 
 169   0.0000       0.094387         2.5684 
 170   0.0000       0.095945         2.6108 
 171   0.0000       0.097652         2.6573 
 172   0.0000       0.105831         2.8798 
 173   0.0000       0.105918         2.8822 
 174   0.0000       0.108934         2.9642 
 175   0.0000       0.111543         3.0352 
 176   0.0000       0.115917         3.1543 
 177   0.0000       0.120476         3.2783 
 178   0.0000       0.122015         3.3202 
 179   0.0000       0.122322         3.3286 
 180   0.0000       0.125685         3.4201 
 181   0.0000       0.129972         3.5367 
 182   0.0000       0.130024         3.5381 
 183   0.0000       0.131694         3.5836 
 184   0.0000       0.133395         3.6299 
 185   0.0000       0.136836         3.7235 
 186   0.0000       0.137886         3.7521 
 187   0.0000       0.139016         3.7828 
 188   0.0000       0.143190         3.8964 
 189   0.0000       0.146363         3.9828 
 190   0.0000       0.147122         4.0034 
 191   0.0000       0.149644         4.0720 
 192   0.0000       0.153699         4.1824 
 193   0.0000       0.154044         4.1918 
[...]
 57 H s       :    -0.000038  s :    -0.000038
      pz      :    -0.000004  p :     0.000013
      px      :     0.000012
      py      :     0.000005
 58 C s       :     0.000008  s :     0.000008
      pz      :     0.000110  p :     0.001327
      px      :     0.000137
      py      :     0.001080
      dz2     :    -0.000123  d :    -0.000088
      dxz     :    -0.000130
      dyz     :     0.000095
      dx2y2   :     0.000013
      dxy     :     0.000057
      f0      :    -0.000014  f :    -0.000025
      f+1     :    -0.000004
      f-1     :    -0.000005
      f+2     :    -0.000006
      f-2     :     0.000001
      f+3     :     0.000003
      f-3     :     0.000000
 59 H s       :     0.000243  s :     0.000243
      pz      :     0.000064  p :     0.000178
      px      :     0.000005
      py      :     0.000109
 60 H s       :    -0.000130  s :    -0.000130
      pz      :     0.000017  p :     0.000052
      px      :     0.000005
      py      :     0.000030
 61 H s       :    -0.000026  s :    -0.000026
      pz      :    -0.000002  p :     0.000019
      px      :     0.000016
      py      :     0.000006
 62 C s       :    -0.000728  s :    -0.000728
      pz      :    -0.000390  p :    -0.002573
      px      :    -0.001935
      py      :    -0.000248
      dz2     :     0.000122  d :     0.000124
      dxz     :     0.000073
      dyz     :    -0.000312
      dx2y2   :    -0.000050
      dxy     :     0.000291
      f0      :     0.000009  f :     0.000092
      f+1     :     0.000010
      f-1     :     0.000001
      f+2     :     0.000016
      f-2     :     0.000011
      f+3     :    -0.000002
      f-3     :     0.000047
 63 H s       :     0.000023  s :     0.000023
      pz      :     0.000001  p :    -0.000061
      px      :    -0.000057
      py      :    -0.000005
 64 H s       :    -0.000602  s :    -0.000602
      pz      :     0.000012  p :    -0.000009
      px      :    -0.000029
      py      :     0.000008
 65 H s       :     0.000006  s :     0.000006
      pz      :    -0.000004  p :    -0.000057
      px      :    -0.000055
      py      :     0.000003
 66 C s       :     0.000207  s :     0.000207
      pz      :    -0.000157  p :     0.000016
      px      :     0.000014
      py      :     0.000159
      dz2     :     0.000145  d :     0.000884
      dxz     :     0.000111
      dyz     :     0.000147
      dx2y2   :     0.000528
      dxy     :    -0.000046
      f0      :     0.000002  f :     0.000113
      f+1     :     0.000001
      f-1     :     0.000066
      f+2     :     0.000000
      f-2     :     0.000026
      f+3     :     0.000000
      f-3     :     0.000016
 67 H s       :     0.000050  s :     0.000050
      pz      :    -0.000007  p :     0.000020
      px      :     0.000056
      py      :    -0.000028
 68 H s       :     0.000676  s :     0.000676
      pz      :    -0.000012  p :     0.000001
      px      :     0.000001
      py      :     0.000013
 69 H s       :     0.000045  s :     0.000045
      pz      :     0.000009  p :    -0.000003
      px      :    -0.000001
      py      :    -0.000010
 70 C s       :     0.000079  s :     0.000079
      pz      :     0.001194  p :     0.002601
      px      :     0.001064
      py      :     0.000342
      dz2     :     0.000090  d :     0.000013
      dxz     :     0.000128
      dyz     :    -0.000300
      dx2y2   :    -0.000064
      dxy     :     0.000159
      f0      :     0.000024  f :     0.000088
      f+1     :     0.000033
      f-1     :    -0.000002
      f+2     :     0.000008
      f-2     :     0.000020
      f+3     :     0.000001
      f-3     :     0.000004
 71 H s       :    -0.000066  s :    -0.000066
      pz      :     0.000020  p :     0.000049
      px      :     0.000016
      py      :     0.000013
 72 H s       :    -0.000285  s :    -0.000285
      pz      :     0.000018  p :     0.000067
      px      :     0.000031
      py      :     0.000018
 73 H s       :    -0.000355  s :    -0.000355
      pz      :     0.000054  p :     0.000027
      px      :    -0.000036
      py      :     0.000008
 74 C s       :     0.000355  s :     0.000355
      pz      :     0.000219  p :     0.001160
      px      :     0.000593
      py      :     0.000347
      dz2     :    -0.000052  d :     0.000667
      dxz     :     0.000138
      dyz     :     0.000103
      dx2y2   :     0.000244
      dxy     :     0.000234
      f0      :     0.000005  f :     0.000104
      f+1     :     0.000029
      f-1     :     0.000003
      f+2     :     0.000001
      f-2     :     0.000047
      f+3     :     0.000019
      f-3     :     0.000000
 75 H s       :     0.000089  s :     0.000089
      pz      :     0.000016  p :     0.000041
      px      :    -0.000001
      py      :     0.000026
 76 H s       :     0.000291  s :     0.000291
      pz      :     0.000013  p :     0.000027
      px      :    -0.000004
      py      :     0.000018
 77 H s       :    -0.000052  s :    -0.000052
      pz      :     0.000006  p :     0.000015
      px      :     0.000018
      py      :    -0.000009
 78 C s       :    -0.001401  s :    -0.001401
      pz      :    -0.001452  p :    -0.005385
      px      :    -0.003577
      py      :    -0.000355
      dz2     :     0.000151  d :    -0.000092
      dxz     :    -0.000111
      dyz     :     0.000054
      dx2y2   :    -0.000214
      dxy     :     0.000027
      f0      :     0.000033  f :     0.000085
      f+1     :     0.000004
      f-1     :     0.000008
      f+2     :     0.000021
      f-2     :     0.000004
      f+3     :     0.000008
      f-3     :     0.000007
 79 H s       :     0.000020  s :     0.000020
      pz      :    -0.000085  p :    -0.000113
      px      :    -0.000019
      py      :    -0.000009
 80 H s       :    -0.001078  s :    -0.001078
      pz      :    -0.000035  p :    -0.000066
      px      :    -0.000023
      py      :    -0.000008
 81 H s       :     0.000121  s :     0.000121
      pz      :    -0.000049  p :    -0.000149
      px      :    -0.000065
      py      :    -0.000036
 82 C s       :    -0.000356  s :    -0.000356
      pz      :     0.000009  p :    -0.002140
      px      :    -0.000274
      py      :    -0.001874
      dz2     :     0.000000  d :     0.000231
      dxz     :     0.000162
      dyz     :    -0.000068
      dx2y2   :    -0.000163
      dxy     :     0.000299
      f0      :     0.000004  f :     0.000078
      f+1     :     0.000003
      f-1     :     0.000006
      f+2     :     0.000007
      f-2     :     0.000013
      f+3     :     0.000055
      f-3     :    -0.000010
 83 H s       :     0.000057  s :     0.000057
      pz      :    -0.000007  p :    -0.000044
      px      :     0.000004
      py      :    -0.000041
 84 H s       :    -0.000299  s :    -0.000299
      pz      :     0.000009  p :    -0.000029
      px      :     0.000004
      py      :    -0.000042
 85 H s       :     0.000154  s :     0.000154
      pz      :    -0.000012  p :    -0.000054
      px      :    -0.000006
      py      :    -0.000036


                      *****************************
                      * MAYER POPULATION ANALYSIS *
                      *****************************

  NA   - Mulliken gross atomic population
  ZA   - Total nuclear charge
  QA   - Mulliken gross atomic charge
  VA   - Mayer's total valence
  BVA  - Mayer's bonded valence
  FA   - Mayer's free valence

  ATOM       NA         ZA         QA         VA         BVA        FA
  0 Fe    24.9567    26.0000     1.0433     5.0777     3.1049     1.9729
  1 O      8.6411     8.0000    -0.6411     1.7851     1.7826     0.0025
  2 O      8.4987     8.0000    -0.4987     1.9379     1.9216     0.0162
  3 O      8.4977     8.0000    -0.4977     1.9689     1.9434     0.0255
  4 C      5.7701     6.0000     0.2299     3.9077     3.9077     0.0000
  5 C      5.7361     6.0000     0.2639     3.8378     3.8376     0.0002
  6 C      5.8427     6.0000     0.1573     4.0275     4.0273     0.0002
  7 C      6.3854     6.0000    -0.3854     3.8859     3.8859     0.0000
  8 H      0.8888     1.0000     0.1112     0.9857     0.9857     0.0000
  9 H      0.8785     1.0000     0.1215     0.9783     0.9783     0.0000
 10 H      0.8525     1.0000     0.1475     0.9980     0.9980     0.0000
 11 C      6.3947     6.0000    -0.3947     3.8852     3.8852    -0.0000
 12 H      0.8461     1.0000     0.1539     1.0028     1.0028     0.0000
 13 H      0.8813     1.0000     0.1187     0.9751     0.9751     0.0000
 14 H      0.8985     1.0000     0.1015     0.9962     0.9962     0.0000
 15 C      6.3646     6.0000    -0.3646     3.8235     3.8235     0.0000
 16 H      0.8571     1.0000     0.1429     0.9954     0.9954     0.0000
 17 H      0.8726     1.0000     0.1274     0.9746     0.9746     0.0000
 18 H      0.8798     1.0000     0.1202     0.9928     0.9928     0.0000
 19 C      6.3426     6.0000    -0.3426     3.8652     3.8652     0.0000
 20 H      0.8827     1.0000     0.1173     0.9792     0.9792     0.0000
 21 H      0.8882     1.0000     0.1118     0.9764     0.9764     0.0000
 22 H      0.8851     1.0000     0.1149     0.9838     0.9838     0.0000
 23 C      6.3960     6.0000    -0.3960     3.9056     3.9056     0.0000
 24 H      0.8628     1.0000     0.1372     0.9953     0.9953     0.0000
 25 H      0.8871     1.0000     0.1129     0.9754     0.9754     0.0000
 26 H      0.8895     1.0000     0.1105     0.9808     0.9808     0.0000
 27 C      6.4107     6.0000    -0.4107     3.8982     3.8982     0.0000
 28 H      0.8910     1.0000     0.1090     0.9816     0.9816     0.0000
 29 H      0.8832     1.0000     0.1168     0.9754     0.9754     0.0000
 30 H      0.8559     1.0000     0.1441     0.9900     0.9900     0.0000
 31 C      6.3473     6.0000    -0.3473     3.8788     3.8788     0.0000
 32 H      0.8530     1.0000     0.1470     0.9978     0.9978     0.0000
 33 H      0.8805     1.0000     0.1195     0.9759     0.9759     0.0000
 34 H      0.9080     1.0000     0.0920     1.0114     1.0114     0.0000
 35 C      6.3548     6.0000    -0.3548     3.8584     3.8583     0.0001
 36 H      0.8787     1.0000     0.1213     0.9829     0.9829     0.0000
 37 H      0.8826     1.0000     0.1174     0.9773     0.9773     0.0000
 38 H      0.8864     1.0000     0.1136     0.9880     0.9880     0.0000
 39 C      6.3556     6.0000    -0.3556     3.8514     3.8513     0.0000
 40 H      0.8746     1.0000     0.1254     0.9805     0.9805     0.0000
 41 H      0.8832     1.0000     0.1168     0.9747     0.9747     0.0000
 42 H      0.8773     1.0000     0.1227     0.9795     0.9795     0.0000
 43 Fe    24.9568    26.0000     1.0432     5.0779     3.1051     1.9728
 44 O      8.6412     8.0000    -0.6412     1.7850     1.7825     0.0025
 45 O      8.4987     8.0000    -0.4987     1.9379     1.9217     0.0162
 46 O      8.4977     8.0000    -0.4977     1.9689     1.9434     0.0255
 47 C      5.7700     6.0000     0.2300     3.9073     3.9073     0.0000
 48 C      5.7360     6.0000     0.2640     3.8375     3.8373     0.0002
 49 C      5.8428     6.0000     0.1572     4.0276     4.0274     0.0002
 50 C      6.3854     6.0000    -0.3854     3.8858     3.8858     0.0000
 51 H      0.8888     1.0000     0.1112     0.9857     0.9857     0.0000
 52 H      0.8785     1.0000     0.1215     0.9783     0.9783     0.0000
 53 H      0.8525     1.0000     0.1475     0.9980     0.9980     0.0000
 54 C      6.3949     6.0000    -0.3949     3.8852     3.8852    -0.0000
 55 H      0.8460     1.0000     0.1540     1.0027     1.0027     0.0000
 56 H      0.8813     1.0000     0.1187     0.9751     0.9751     0.0000
 57 H      0.8985     1.0000     0.1015     0.9962     0.9962     0.0000
 58 C      6.3646     6.0000    -0.3646     3.8235     3.8235     0.0000
 59 H      0.8571     1.0000     0.1429     0.9954     0.9954     0.0000
 60 H      0.8726     1.0000     0.1274     0.9746     0.9746     0.0000
 61 H      0.8798     1.0000     0.1202     0.9928     0.9928     0.0000
 62 C      6.3426     6.0000    -0.3426     3.8651     3.8651     0.0000
 63 H      0.8827     1.0000     0.1173     0.9792     0.9792     0.0000
 64 H      0.8882     1.0000     0.1118     0.9764     0.9764     0.0000
 65 H      0.8850     1.0000     0.1150     0.9838     0.9838     0.0000
 66 C      6.3960     6.0000    -0.3960     3.9057     3.9056     0.0000
 67 H      0.8627     1.0000     0.1373     0.9953     0.9953     0.0000
 68 H      0.8871     1.0000     0.1129     0.9754     0.9754     0.0000
 69 H      0.8895     1.0000     0.1105     0.9808     0.9808     0.0000
 70 C      6.4108     6.0000    -0.4108     3.8983     3.8983     0.0000
 71 H      0.8910     1.0000     0.1090     0.9816     0.9816     0.0000
 72 H      0.8832     1.0000     0.1168     0.9754     0.9754     0.0000
 73 H      0.8559     1.0000     0.1441     0.9899     0.9899     0.0000
 74 C      6.3472     6.0000    -0.3472     3.8787     3.8786     0.0000
 75 H      0.8530     1.0000     0.1470     0.9978     0.9978     0.0000
 76 H      0.8805     1.0000     0.1195     0.9759     0.9759     0.0000
 77 H      0.9080     1.0000     0.0920     1.0114     1.0114     0.0000
 78 C      6.3548     6.0000    -0.3548     3.8583     3.8582     0.0001
 79 H      0.8787     1.0000     0.1213     0.9829     0.9829     0.0000
 80 H      0.8826     1.0000     0.1174     0.9773     0.9773     0.0000
 81 H      0.8864     1.0000     0.1136     0.9880     0.9880     0.0000
 82 C      6.3555     6.0000    -0.3555     3.8513     3.8513     0.0000
 83 H      0.8747     1.0000     0.1253     0.9805     0.9805     0.0000
 84 H      0.8832     1.0000     0.1168     0.9747     0.9747     0.0000
 85 H      0.8773     1.0000     0.1227     0.9795     0.9795     0.0000

  Mayer bond orders larger than 0.100000
B(  0-Fe,  1-O ) :   0.4344 B(  0-Fe,  2-O ) :   0.9082 B(  0-Fe,  3-O ) :   0.9022 
B(  0-Fe, 44-O ) :   0.4692 B(  1-O ,  4-C ) :   0.8734 B(  1-O , 43-Fe) :   0.4692 
B(  2-O ,  5-C ) :   0.9210 B(  3-O ,  6-C ) :   0.9810 B(  4-C ,  7-C ) :   0.9801 
B(  4-C , 11-C ) :   0.9787 B(  4-C , 15-C ) :   0.9879 B(  5-C , 19-C ) :   0.9603 
B(  5-C , 23-C ) :   0.9643 B(  5-C , 27-C ) :   0.9654 B(  6-C , 31-C ) :   1.0140 
B(  6-C , 35-C ) :   0.9645 B(  6-C , 39-C ) :   0.9624 B(  7-C ,  8-H ) :   0.9666 
B(  7-C ,  9-H ) :   0.9549 B(  7-C , 10-H ) :   0.9639 B( 11-C , 12-H ) :   0.9626 
B( 11-C , 13-H ) :   0.9566 B( 11-C , 14-H ) :   0.9705 B( 15-C , 16-H ) :   0.9578 
B( 15-C , 17-H ) :   0.9547 B( 15-C , 18-H ) :   0.9644 B( 19-C , 20-H ) :   0.9708 
B( 19-C , 21-H ) :   0.9689 B( 19-C , 22-H ) :   0.9727 B( 23-C , 24-H ) :   0.9740 
B( 23-C , 25-H ) :   0.9593 B( 23-C , 26-H ) :   0.9691 B( 27-C , 28-H ) :   0.9707 
B( 27-C , 29-H ) :   0.9573 B( 27-C , 30-H ) :   0.9671 B( 31-C , 32-H ) :   0.9592 
B( 31-C , 33-H ) :   0.9505 B( 31-C , 34-H ) :   0.9597 B( 35-C , 36-H ) :   0.9705 
B( 35-C , 37-H ) :   0.9639 B( 35-C , 38-H ) :   0.9699 B( 39-C , 40-H ) :   0.9725 
B( 39-C , 41-H ) :   0.9617 B( 39-C , 42-H ) :   0.9701 B( 43-Fe, 44-O ) :   0.4344 
B( 43-Fe, 45-O ) :   0.9083 B( 43-Fe, 46-O ) :   0.9023 B( 44-O , 47-C ) :   0.8733 
B( 45-O , 48-C ) :   0.9209 B( 46-O , 49-C ) :   0.9809 B( 47-C , 50-C ) :   0.9801 
B( 47-C , 54-C ) :   0.9787 B( 47-C , 58-C ) :   0.9879 B( 48-C , 62-C ) :   0.9603 
B( 48-C , 66-C ) :   0.9643 B( 48-C , 70-C ) :   0.9653 B( 49-C , 74-C ) :   1.0140 
B( 49-C , 78-C ) :   0.9645 B( 49-C , 82-C ) :   0.9625 B( 50-C , 51-H ) :   0.9666 
B( 50-C , 52-H ) :   0.9549 B( 50-C , 53-H ) :   0.9638 B( 54-C , 55-H ) :   0.9626 
B( 54-C , 56-H ) :   0.9566 B( 54-C , 57-H ) :   0.9705 B( 58-C , 59-H ) :   0.9578 
B( 58-C , 60-H ) :   0.9547 B( 58-C , 61-H ) :   0.9644 B( 62-C , 63-H ) :   0.9708 
B( 62-C , 64-H ) :   0.9689 B( 62-C , 65-H ) :   0.9728 B( 66-C , 67-H ) :   0.9740 
B( 66-C , 68-H ) :   0.9593 B( 66-C , 69-H ) :   0.9691 B( 70-C , 71-H ) :   0.9707 
B( 70-C , 72-H ) :   0.9573 B( 70-C , 73-H ) :   0.9671 B( 74-C , 75-H ) :   0.9593 
B( 74-C , 76-H ) :   0.9506 B( 74-C , 77-H ) :   0.9596 B( 78-C , 79-H ) :   0.9705 
B( 78-C , 80-H ) :   0.9639 B( 78-C , 81-H ) :   0.9699 B( 82-C , 83-H ) :   0.9725 
B( 82-C , 84-H ) :   0.9617 B( 82-C , 85-H ) :   0.9701 

-------
TIMINGS
-------

Total SCF time: 0 days 0 hours 11 min 9 sec 

Total time                  ....     669.960 sec
Sum of individual times     ....     645.814 sec  ( 96.4%)

Fock matrix formation       ....     569.331 sec  ( 85.0%)
  Split-RI-J                ....     102.259 sec  ( 18.0% of F)
  Chain of spheres X        ....     410.719 sec  ( 72.1% of F)
  XC integration            ....      47.902 sec  (  8.4% of F)
    Basis function eval.    ....       3.437 sec  (  7.2% of XC)
    Density eval.           ....      14.711 sec  ( 30.7% of XC)
    XC-Functional eval.     ....       0.354 sec  (  0.7% of XC)
    XC-Potential eval.      ....      13.733 sec  ( 28.7% of XC)
Diagonalization             ....      17.905 sec  (  2.7%)
Density matrix formation    ....       5.449 sec  (  0.8%)
Population analysis         ....       1.616 sec  (  0.2%)
Initial guess               ....       1.482 sec  (  0.2%)
Orbital Transformation      ....      29.124 sec  (  4.3%)
Orbital Orthonormalization  ....       0.000 sec  (  0.0%)
DIIS solution               ....      14.655 sec  (  2.2%)
Grid generation             ....       6.113 sec  (  0.9%)

Maximum memory used throughout the entire SCF-calculation: 513.9 MB

-------------------------   --------------------
FINAL SINGLE POINT ENERGY     -3924.377374523789
-------------------------   --------------------


                            ***************************************
                            *     ORCA property calculations      *
                            ***************************************

                                    ---------------------
                                    Active property flags
                                    ---------------------
   (+) Dipole Moment


------------------------------------------------------------------------------
                       ORCA ELECTRIC PROPERTIES CALCULATION
------------------------------------------------------------------------------

Dipole Moment Calculation                       ... on
Quadrupole Moment Calculation                   ... off
Polarizability Calculation                      ... off
GBWName                                         ... Fe2_tert-butoxide_6_LowSpin.gbw
Electron density                                ... Fe2_tert-butoxide_6_LowSpin.scfp
The origin for moment calculation is the CENTER OF MASS  = (19.013920,  4.151509 14.505122)

-------------
DIPOLE MOMENT
-------------
                                X             Y             Z
Electronic contribution:     -0.00297      -0.00195      -0.00022
Nuclear contribution   :      0.00305       0.00209       0.00013
                        -----------------------------------------
Total Dipole Moment    :      0.00008       0.00014      -0.00009
                        -----------------------------------------
Magnitude (a.u.)       :      0.00018
Magnitude (Debye)      :      0.00047



--------------------
Rotational spectrum 
--------------------
 
Rotational constants in cm-1:     0.005265     0.003397     0.002980 
Rotational constants in MHz :   157.854055   101.825908    89.325442 

 Dipole components along the rotational axes: 
x,y,z [a.u.] :     0.000146     0.000112    -0.000001 
x,y,z [Debye]:     0.000371     0.000285    -0.000003 

 

Timings for individual modules:

Sum of individual times         ...      698.053 sec (=  11.634 min)
GTO integral calculation        ...       18.251 sec (=   0.304 min)   2.6 %
SCF iterations                  ...      679.802 sec (=  11.330 min)  97.4 %
                             ****ORCA TERMINATED NORMALLY****
TOTAL RUN TIME: 0 days 0 hours 11 minutes 53 seconds 262 msec
