
                                 *****************
                                 * O   R   C   A *
                                 *****************

                                            #,                                       
                                            ###                                      
                                            ####                                     
                                            #####                                    
                                            ######                                   
                                           ########,                                 
                                     ,,################,,,,,                         
                               ,,#################################,,                 
                          ,,##########################################,,             
                       ,#########################################, ''#####,          
                    ,#############################################,,   '####,        
                  ,##################################################,,,,####,       
                ,###########''''           ''''###############################       
              ,#####''   ,,,,##########,,,,          '''####'''          '####       
            ,##' ,,,,###########################,,,                        '##       
           ' ,,###''''                  '''############,,,                           
         ,,##''                                '''############,,,,        ,,,,,,###''
      ,#''                                            '''#######################'''  
     '                                                          ''''####''''         
             ,#######,   #######,   ,#######,      ##                                
            ,#'     '#,  ##    ##  ,#'     '#,    #''#        ######   ,####,        
            ##       ##  ##   ,#'  ##            #'  '#       #        #'  '#        
            ##       ##  #######   ##           ,######,      #####,   #    #        
            '#,     ,#'  ##    ##  '#,     ,#' ,#      #,         ##   #,  ,#        
             '#######'   ##     ##  '#######'  #'      '#     #####' # '####'        



                  #######################################################
                  #                        -***-                        #
                  #          Department of theory and spectroscopy      #
                  #    Directorship and core code : Frank Neese         #
                  #        Max Planck Institute fuer Kohlenforschung    #
                  #                Kaiser Wilhelm Platz 1               #
                  #                 D-45470 Muelheim/Ruhr               #
                  #                      Germany                        #
                  #                                                     #
                  #                  All rights reserved                #
                  #                        -***-                        #
                  #######################################################


                         Program Version 5.0.3 -  RELEASE  -


 With contributions from (in alphabetic order):
   Daniel Aravena         : Magnetic Suceptibility
   Michael Atanasov       : Ab Initio Ligand Field Theory (pilot matlab implementation)
   Alexander A. Auer      : GIAO ZORA, VPT2 properties, NMR spectrum
   Ute Becker             : Parallelization
   Giovanni Bistoni       : ED, misc. LED, open-shell LED, HFLD
   Martin Brehm           : Molecular dynamics
   Dmytro Bykov           : SCF Hessian
   Vijay G. Chilkuri      : MRCI spin determinant printing, contributions to CSF-ICE
   Dipayan Datta          : RHF DLPNO-CCSD density
   Achintya Kumar Dutta   : EOM-CC, STEOM-CC
   Dmitry Ganyushin       : Spin-Orbit,Spin-Spin,Magnetic field MRCI
   Miquel Garcia          : C-PCM and meta-GGA Hessian, CC/C-PCM, Gaussian charge scheme
   Yang Guo               : DLPNO-NEVPT2, F12-NEVPT2, CIM, IAO-localization
   Andreas Hansen         : Spin unrestricted coupled pair/coupled cluster methods
   Benjamin Helmich-Paris : MC-RPA, TRAH-SCF, COSX integrals
   Lee Huntington         : MR-EOM, pCC
   Robert Izsak           : Overlap fitted RIJCOSX, COSX-SCS-MP3, EOM
   Marcus Kettner         : VPT2
   Christian Kollmar      : KDIIS, OOCD, Brueckner-CCSD(T), CCSD density, CASPT2, CASPT2-K
   Simone Kossmann        : Meta GGA functionals, TD-DFT gradient, OOMP2, MP2 Hessian
   Martin Krupicka        : Initial AUTO-CI
   Lucas Lang             : DCDCAS
   Marvin Lechner         : AUTO-CI (C++ implementation), FIC-MRCC
   Dagmar Lenk            : GEPOL surface, SMD
   Dimitrios Liakos       : Extrapolation schemes; Compound Job, initial MDCI parallelization
   Dimitrios Manganas     : Further ROCIS development; embedding schemes
   Dimitrios Pantazis     : SARC Basis sets
   Anastasios Papadopoulos: AUTO-CI, single reference methods and gradients
   Taras Petrenko         : DFT Hessian,TD-DFT gradient, ASA, ECA, R-Raman, ABS, FL, XAS/XES, NRVS
   Peter Pinski           : DLPNO-MP2, DLPNO-MP2 Gradient
   Christoph Reimann      : Effective Core Potentials
   Marius Retegan         : Local ZFS, SOC
   Christoph Riplinger    : Optimizer, TS searches, QM/MM, DLPNO-CCSD(T), (RO)-DLPNO pert. Triples
   Tobias Risthaus        : Range-separated hybrids, TD-DFT gradient, RPA, STAB
   Michael Roemelt        : Original ROCIS implementation
   Masaaki Saitow         : Open-shell DLPNO-CCSD energy and density
   Barbara Sandhoefer     : DKH picture change effects
   Avijit Sen             : IP-ROCIS
   Kantharuban Sivalingam : CASSCF convergence, NEVPT2, FIC-MRCI
   Bernardo de Souza      : ESD, SOC TD-DFT
   Georgi Stoychev        : AutoAux, RI-MP2 NMR, DLPNO-MP2 response
   Willem Van den Heuvel  : Paramagnetic NMR
   Boris Wezisla          : Elementary symmetry handling
   Frank Wennmohs         : Technical directorship


 We gratefully acknowledge several colleagues who have allowed us to
 interface, adapt or use parts of their codes:
   Stefan Grimme, W. Hujo, H. Kruse, P. Pracht,  : VdW corrections, initial TS optimization,
                  C. Bannwarth, S. Ehlert          DFT functionals, gCP, sTDA/sTD-DF
   Ed Valeev, F. Pavosevic, A. Kumar             : LibInt (2-el integral package), F12 methods
   Garnet Chan, S. Sharma, J. Yang, R. Olivares  : DMRG
   Ulf Ekstrom                                   : XCFun DFT Library
   Mihaly Kallay                                 : mrcc  (arbitrary order and MRCC methods)
   Jiri Pittner, Ondrej Demel                    : Mk-CCSD
   Frank Weinhold                                : gennbo (NPA and NBO analysis)
   Christopher J. Cramer and Donald G. Truhlar   : smd solvation model
   Lars Goerigk                                  : TD-DFT with DH, B97 family of functionals
   V. Asgeirsson, H. Jonsson                     : NEB implementation
   FAccTs GmbH                                   : IRC, NEB, NEB-TS, DLPNO-Multilevel, CI-OPT
                                                   MM, QMMM, 2- and 3-layer-ONIOM, Crystal-QMMM,
                                                   LR-CPCM, SF, NACMEs, symmetry and pop. for TD-DFT,
                                                   nearIR, NL-DFT gradient (VV10), updates on ESD,
                                                   ML-optimized integration grids
   S Lehtola, MJT Oliveira, MAL Marques          : LibXC Library
   Liviu Ungur et al                             : ANISO software


 Your calculation uses the libint2 library for the computation of 2-el integrals
 For citations please refer to: http://libint.valeyev.net

 Your ORCA version has been built with support for libXC version: 5.1.0
 For citations please refer to: https://tddft.org/programs/libxc/

 This ORCA versions uses:
   CBLAS   interface :  Fast vector & matrix operations
   LAPACKE interface :  Fast linear algebra routines
   SCALAPACK package :  Parallel linear algebra routines
   Shared memory     :  Shared parallel matrices
   BLAS/LAPACK       :  OpenBLAS 0.3.15  USE64BITINT DYNAMIC_ARCH NO_AFFINITY Zen SINGLE_THREADED
        Core in use  :  Zen
   Copyright (c) 2011-2014, The OpenBLAS Project


================================================================================

----- Orbital basis set information -----
Your calculation utilizes the basis: def2-TZVP
   F. Weigend and R. Ahlrichs, Phys. Chem. Chem. Phys. 7, 3297 (2005).

----- AuxJ basis set information -----
Your calculation utilizes the auxiliary basis: def2/J
   F. Weigend, Phys. Chem. Chem. Phys. 8, 1057 (2006).

================================================================================
                                        WARNINGS
                       Please study these warnings very carefully!
================================================================================


WARNING: your system is open-shell and RHF/RKS was chosen
  ===> : WILL SWITCH to UHF/UKS


INFO   : the flag for use of the SHARK integral package has been found!

================================================================================
                                       INPUT FILE
================================================================================
NAME = Fe3_O_piv_6_H2O_3_LowSpin.inp
|  1> ! PBE0 def2-TZVP
|  2> %pal nprocs 32 end
|  3> %maxcore 3000
|  4> 
|  5> * xyz 1 4
|  6>   Fe  12.50053552930764      2.98249144965292     24.87414017807369
|  7>   Fe  11.55559609988750      4.36037516306117     22.19025357607980
|  8>   Fe  10.13513791003749      5.06897136735331     24.93729079007634
|  9>   O   11.38465633884966      4.12159639229186     23.99131996546118
| 10>   O   13.74825854398319      1.75866762052346     25.91376428213454
| 11>   H   14.48609607883834      1.49210120343677     25.35370535890259
| 12>   H   14.10578601187376      2.30504803022197     26.62567577740820
| 13>   O   11.79321116069182      4.67162864274939     20.19444969456771
| 14>   H   12.67961860731832      4.36383453100612     19.96885549325281
| 15>   H   11.80353005257230      5.63305378515944     20.09795699694043
| 16>   O   8.75173217448146      6.15127746494788     25.95618363348914
| 17>   H   8.95465286936585      6.11667112891362     26.89790683846711
| 18>   H   8.88562219140443      7.06238743417049     25.66535198528473
| 19>   O   14.11853091423204      3.77251498122996     24.21512537730644
| 20>   O   13.49108883648285      4.36970280700781     22.15841003923468
| 21>   O   12.61840858387071      1.63975962295796     23.52075942815942
| 22>   O   11.54886216282931      2.50412134392522     21.76952247017237
| 23>   O   11.58714734866457      6.28411748879371     22.21955690085542
| 24>   O   10.26944138265259      6.73055402232469     23.95874515243122
| 25>   O   9.69084016156546      4.39975593585856     21.82746431304214
| 26>   O   8.70845697013848      4.49280661168040     23.82728573638856
| 27>   O   11.36041215739868      5.78771663711716     26.23203735531660
| 28>   O   12.71577742485207      4.03757512327874     26.48043160645069
| 29>   O   9.68429457553401      3.67812379819793     26.16234139008243
| 30>   O   11.06505364082023      2.00782665511535     25.65282635848450
| 31>   C   14.35022131016857      4.21928841570827     23.06309208541499
| 32>   C   15.77682903996467      4.66634407449619     22.74846172686919
| 33>   C   16.14669194808599      4.26234496648028     21.32250443338667
| 34>   H   15.48396296307920      4.72495007714538     20.59099009575004
| 35>   H   16.10659759019181      3.17845172477114     21.19014088842672
| 36>   H   17.16652476006681      4.58725642741795     21.10687103983592
| 37>   C   15.78268000985543      6.19592304647111     22.87162741433042
| 38>   H   15.06521552003881      6.64879931061438     22.18484864304040
| 39>   H   16.77739842169285      6.57632872468251     22.62940913540440
| 40>   H   15.53953334863001      6.51234176917091     23.88888798282692
| 41>   C   16.77049271281971      4.06475646902981     23.73539132665082
| 42>   H   16.78185220623178      2.97383240701219     23.67535809170704
| 43>   H   16.53933078331491      4.35000280024526     24.76185774723294
| 44>   H   17.77589210242586      4.42014333610558     23.50053515468194
| 45>   C   12.08282806101045      1.55090312788187     22.38675564945077
| 46>   C   12.04293156948781      0.17700289353383     21.72370926634921
| 47>   C   10.68036332268934     -0.42574944481154     22.09346325205751
| 48>   H   9.86085359082555      0.18672758993889     21.71291766293028
| 49>   H   10.57387871004573     -0.52267668900342     23.17626896832780
| 50>   H   10.59486854274651     -1.42193479129283     21.65364770045390
| 51>   C   13.16056596780256     -0.71239204071983     22.25756064290879
| 52>   H   14.14474776527794     -0.29233689817993     22.03619532922221
| 53>   H   13.10146269035039     -1.69224216240875     21.77916666656701
| 54>   H   13.08111503571022     -0.85300328240597     23.33549099456845
| 55>   C   12.15682447203732      0.31962564677710     20.20841845704721
| 56>   H   13.11358497354215      0.76488743368413     19.92339316006159
| 57>   H   11.35700394988623      0.93886479636160     19.80307479566292
| 58>   H   12.09882879526398     -0.66724477065481     19.74446087957433
| 59>   C   10.95004673044451      7.07432620811795     22.96062326731745
| 60>   C   11.02771135575830      8.56889235892333     22.65536886569831
| 61>   C   11.71276451755080      8.82346461532867     21.31842489580675
| 62>   H   11.77724725033228      9.89936052469840     21.14388026839768
| 63>   H   11.14910020925186      8.38760613022641     20.49020217363676
| 64>   H   12.72465193383771      8.41658347680889     21.30174376412365
| 65>   C   9.61166813723008      9.14732112468624     22.63248911395421
| 66>   H   9.65989550809410     10.21544285304681     22.41113057379786
| 67>   H   9.11197844200530      9.02326507018494     23.59354750208818
| 68>   H   8.99830170698817      8.67275090508043     21.86276615012666
| 69>   C   11.83819998569730      9.21591493098876     23.78499138093743
| 70>   H   11.89184480167854     10.29445580675929     23.62229203630396
| 71>   H   12.85977622614865      8.82898303360658     23.81321587008041
| 72>   H   11.37571447117667      9.03660644878338     24.75656617368243
| 73>   C   8.69096929868567      4.31561458005476     22.58597747289238
| 74>   C   7.36121962850512      3.95173071192482     21.92971460725265
| 75>   C   7.45983004941745      2.47309968032242     21.53467219607013
| 76>   H   6.53877534576367      2.17088376102031     21.03138931837477
| 77>   H   7.58549878558102      1.83612591676016     22.41396181940780
| 78>   H   8.29745652221368      2.30402023459782     20.85602908164831
| 79>   C   7.17191773996208      4.80691985336398     20.67625952490943
| 80>   H   6.23433264049822      4.53077751015816     20.18914760224278
| 81>   H   7.98657039956959      4.65894734432652     19.96744946948965
| 82>   H   7.11686695950788      5.86964565234415     20.92595466094791
| 83>   C   6.20002805608281      4.15986476491229     22.89320742855475
| 84>   H   5.26755813535726      3.87334107100681     22.40211691774047
| 85>   H   6.11547452219197      5.20470175380618     23.19786513296857
| 86>   H   6.31365761354594      3.55696245234301     23.79452432732105
| 87>   C   12.29144036845667      5.16978512307960     26.81261731504107
| 88>   C   12.93753680708068      5.86631147079066     28.00840864259174
| 89>   C   13.46841059828099      7.22393583903308     27.53956296578648
| 90>   H   14.23738804423254      7.10840540394910     26.77156355945289
| 91>   H   13.91643774548187      7.74968164351951     28.38544239988669
| 92>   H   12.66688841415537      7.84205336920274     27.13449364804444
| 93>   C   11.85486966656147      6.07603803007720     29.07156622212775
| 94>   H   11.43274942139035      5.12533911948045     29.40677675262390
| 95>   H   11.04722601871537      6.70349325951202     28.69138732298992
| 96>   H   12.28762424929126      6.57538192910601     29.94098057376070
| 97>   C   14.07503866721712      5.03224802006148     28.58293875516081
| 98>   H   14.52047629378041      5.55842156333434     29.42975095782944
| 99>   H   14.86010910590729      4.86492406258387     27.84287121099533
|100>   H   13.72240473918858      4.06291747903503     28.94049245322640
|101>   C   10.03583296306880      2.46870242579159     26.19838390606115
|102>   C   9.14957335676655      1.51381905204057     26.99212316729308
|103>   C   7.71350034622123      1.64626828055412     26.48091632335412
|104>   H   7.06057043408825      0.98877125462059     27.05897178669437
|105>   H   7.63852892017799      1.35309122979690     25.43069750290831
|106>   H   7.35127894899988      2.66983526211031     26.57793477566628
|107>   C   9.21844239092304      1.94516609472254     28.46139605325283
|108>   H   8.58717695785977      1.28606382967826     29.06120849351238
|109>   H   8.86329701786039      2.96862263894313     28.59028361669625
|110>   H   10.23771856368185      1.87564300693135     28.84980498920091
|111>   C   9.63199444875281      0.07609822948364     26.84890322253836
|112>   H   8.98630675633224     -0.58122791501973     27.43519944360945
|113>   H   10.65627033645954     -0.04300975675661     27.20403480195047
|114>   H   9.59780655509230     -0.25380191887169     25.80917765316203
|115> *
|116> 
|117>                          ****END OF INPUT****
================================================================================

                       ****************************
                       * Single Point Calculation *
                       ****************************

---------------------------------
CARTESIAN COORDINATES (ANGSTROEM)
---------------------------------
  Fe    12.500536    2.982491   24.874140
  Fe    11.555596    4.360375   22.190254
  Fe    10.135138    5.068971   24.937291
  O     11.384656    4.121596   23.991320
  O     13.748259    1.758668   25.913764
  H     14.486096    1.492101   25.353705
  H     14.105786    2.305048   26.625676
  O     11.793211    4.671629   20.194450
  H     12.679619    4.363835   19.968855
  H     11.803530    5.633054   20.097957
  O      8.751732    6.151277   25.956184
  H      8.954653    6.116671   26.897907
  H      8.885622    7.062387   25.665352
  O     14.118531    3.772515   24.215125
  O     13.491089    4.369703   22.158410
  O     12.618409    1.639760   23.520759
  O     11.548862    2.504121   21.769522
  O     11.587147    6.284117   22.219557
  O     10.269441    6.730554   23.958745
  O      9.690840    4.399756   21.827464
  O      8.708457    4.492807   23.827286
  O     11.360412    5.787717   26.232037
  O     12.715777    4.037575   26.480432
  O      9.684295    3.678124   26.162341
  O     11.065054    2.007827   25.652826
  C     14.350221    4.219288   23.063092
  C     15.776829    4.666344   22.748462
  C     16.146692    4.262345   21.322504
  H     15.483963    4.724950   20.590990
  H     16.106598    3.178452   21.190141
  H     17.166525    4.587256   21.106871
  C     15.782680    6.195923   22.871627
  H     15.065216    6.648799   22.184849
  H     16.777398    6.576329   22.629409
  H     15.539533    6.512342   23.888888
  C     16.770493    4.064756   23.735391
  H     16.781852    2.973832   23.675358
  H     16.539331    4.350003   24.761858
  H     17.775892    4.420143   23.500535
  C     12.082828    1.550903   22.386756
  C     12.042932    0.177003   21.723709
  C     10.680363   -0.425749   22.093463
  H      9.860854    0.186728   21.712918
  H     10.573879   -0.522677   23.176269
  H     10.594869   -1.421935   21.653648
  C     13.160566   -0.712392   22.257561
  H     14.144748   -0.292337   22.036195
  H     13.101463   -1.692242   21.779167
  H     13.081115   -0.853003   23.335491
  C     12.156824    0.319626   20.208418
  H     13.113585    0.764887   19.923393
  H     11.357004    0.938865   19.803075
  H     12.098829   -0.667245   19.744461
  C     10.950047    7.074326   22.960623
  C     11.027711    8.568892   22.655369
  C     11.712765    8.823465   21.318425
  H     11.777247    9.899361   21.143880
  H     11.149100    8.387606   20.490202
  H     12.724652    8.416583   21.301744
  C      9.611668    9.147321   22.632489
  H      9.659896   10.215443   22.411131
  H      9.111978    9.023265   23.593548
  H      8.998302    8.672751   21.862766
  C     11.838200    9.215915   23.784991
  H     11.891845   10.294456   23.622292
  H     12.859776    8.828983   23.813216
  H     11.375714    9.036606   24.756566
  C      8.690969    4.315615   22.585977
  C      7.361220    3.951731   21.929715
  C      7.459830    2.473100   21.534672
  H      6.538775    2.170884   21.031389
  H      7.585499    1.836126   22.413962
  H      8.297457    2.304020   20.856029
  C      7.171918    4.806920   20.676260
  H      6.234333    4.530778   20.189148
  H      7.986570    4.658947   19.967449
  H      7.116867    5.869646   20.925955
  C      6.200028    4.159865   22.893207
  H      5.267558    3.873341   22.402117
  H      6.115475    5.204702   23.197865
  H      6.313658    3.556962   23.794524
  C     12.291440    5.169785   26.812617
  C     12.937537    5.866311   28.008409
  C     13.468411    7.223936   27.539563
  H     14.237388    7.108405   26.771564
  H     13.916438    7.749682   28.385442
  H     12.666888    7.842053   27.134494
  C     11.854870    6.076038   29.071566
  H     11.432749    5.125339   29.406777
  H     11.047226    6.703493   28.691387
  H     12.287624    6.575382   29.940981
  C     14.075039    5.032248   28.582939
  H     14.520476    5.558422   29.429751
  H     14.860109    4.864924   27.842871
  H     13.722405    4.062917   28.940492
  C     10.035833    2.468702   26.198384
  C      9.149573    1.513819   26.992123
  C      7.713500    1.646268   26.480916
  H      7.060570    0.988771   27.058972
  H      7.638529    1.353091   25.430698
  H      7.351279    2.669835   26.577935
  C      9.218442    1.945166   28.461396
  H      8.587177    1.286064   29.061208
  H      8.863297    2.968623   28.590284
  H     10.237719    1.875643   28.849805
  C      9.631994    0.076098   26.848903
  H      8.986307   -0.581228   27.435199
  H     10.656270   -0.043010   27.204035
  H      9.597807   -0.253802   25.809178

----------------------------
CARTESIAN COORDINATES (A.U.)
----------------------------
  NO LB      ZA    FRAG     MASS         X           Y           Z
   0 Fe   26.0000    0    55.850   23.622589    5.636092   47.005313
   1 Fe   26.0000    0    55.850   21.836912    8.239915   41.933502
   2 Fe   26.0000    0    55.850   19.152635    9.578968   47.124650
   3 O     8.0000    0    15.999   21.513883    7.788688   45.337024
   4 O     8.0000    0    15.999   25.980443    3.323400   48.969918
   5 H     1.0000    0     1.008   27.374754    2.819663   47.911560
   6 H     1.0000    0     1.008   26.656072    4.355910   50.315235
   7 O     8.0000    0    15.999   22.285939    8.828099   38.161979
   8 H     1.0000    0     1.008   23.961007    8.246452   37.735668
   9 H     1.0000    0     1.008   22.305439   10.644929   37.979635
  10 O     8.0000    0    15.999   16.538377   11.624230   49.050079
  11 H     1.0000    0     1.008   16.921842   11.558833   50.829678
  12 H     1.0000    0     1.008   16.791392   13.345978   48.500486
  13 O     8.0000    0    15.999   26.680157    7.129020   45.759955
  14 O     8.0000    0    15.999   25.494463    8.257542   41.873327
  15 O     8.0000    0    15.999   23.845336    3.098697   44.447794
  16 O     8.0000    0    15.999   21.824187    4.732104   41.138436
  17 O     8.0000    0    15.999   21.896535   11.875261   41.988877
  18 O     8.0000    0    15.999   19.406432   12.718904   45.275467
  19 O     8.0000    0    15.999   18.313034    8.314334   41.247930
  20 O     8.0000    0    15.999   16.456599    8.490174   45.027045
  21 O     8.0000    0    15.999   21.468068   10.937199   49.571367
  22 O     8.0000    0    15.999   24.029337    7.629911   50.040764
  23 O     8.0000    0    15.999   18.300665    6.950647   49.439660
  24 O     8.0000    0    15.999   20.909921    3.794243   48.476816
  25 C     6.0000    0    12.011   27.117988    7.973300   43.582928
  26 C     6.0000    0    12.011   29.813886    8.818112   42.988363
  27 C     6.0000    0    12.011   30.512826    8.054665   40.293694
  28 H     1.0000    0     1.008   29.260449    8.928862   38.911332
  29 H     1.0000    0     1.008   30.437058    6.006403   40.043563
  30 H     1.0000    0     1.008   32.440030    8.668658   39.886206
  31 C     6.0000    0    12.011   29.824943   11.708598   43.221112
  32 H     1.0000    0     1.008   28.469131   12.564410   41.923288
  33 H     1.0000    0     1.008   31.704688   12.427460   42.763386
  34 H     1.0000    0     1.008   29.365462   12.306542   45.143456
  35 C     6.0000    0    12.011   31.691638    7.681277   44.853389
  36 H     1.0000    0     1.008   31.713105    5.619729   44.739943
  37 H     1.0000    0     1.008   31.254806    8.220314   46.793130
  38 H     1.0000    0     1.008   33.591568    8.352860   44.409575
  39 C     6.0000    0    12.011   22.833236    2.930782   42.304837
  40 C     6.0000    0    12.011   22.757843    0.334487   41.051861
  41 C     6.0000    0    12.011   20.182962   -0.804550   41.750595
  42 H     1.0000    0     1.008   18.634313    0.352864   41.031468
  43 H     1.0000    0     1.008   19.981735   -0.987716   43.796801
  44 H     1.0000    0     1.008   20.021400   -2.687067   40.919464
  45 C     6.0000    0    12.011   24.869865   -1.346226   42.060694
  46 H     1.0000    0     1.008   26.729700   -0.552437   41.642374
  47 H     1.0000    0     1.008   24.758176   -3.197874   41.156660
  48 H     1.0000    0     1.008   24.719725   -1.611943   44.097687
  49 C     6.0000    0    12.011   22.973069    0.604005   38.188376
  50 H     1.0000    0     1.008   24.781084    1.445428   37.649757
  51 H     1.0000    0     1.008   21.461627    1.774197   37.422388
  52 H     1.0000    0     1.008   22.863473   -1.260910   37.311624
  53 C     6.0000    0    12.011   20.692589   13.368539   43.389290
  54 C     6.0000    0    12.011   20.839354   16.192860   42.812443
  55 C     6.0000    0    12.011   22.133917   16.673932   40.285985
  56 H     1.0000    0     1.008   22.255772   18.707080   39.956143
  57 H     1.0000    0     1.008   21.068746   15.850279   38.720871
  58 H     1.0000    0     1.008   24.046107   15.905038   40.254462
  59 C     6.0000    0    12.011   18.163420   17.285932   42.769206
  60 H     1.0000    0     1.008   18.254557   19.304389   42.350899
  61 H     1.0000    0     1.008   17.219144   17.051500   44.585343
  62 H     1.0000    0     1.008   17.004326   16.389124   41.314641
  63 C     6.0000    0    12.011   22.370956   17.415555   44.947120
  64 H     1.0000    0     1.008   22.472330   19.453702   44.639663
  65 H     1.0000    0     1.008   24.301455   16.684360   45.000456
  66 H     1.0000    0     1.008   21.496985   17.076711   46.783130
  67 C     6.0000    0    12.011   16.423552    8.155330   42.681312
  68 C     6.0000    0    12.011   13.910689    7.467689   41.441155
  69 C     6.0000    0    12.011   14.097036    4.673481   40.694633
  70 H     1.0000    0     1.008   12.356495    4.102376   39.743566
  71 H     1.0000    0     1.008   14.334515    3.469775   42.356249
  72 H     1.0000    0     1.008   15.679920    4.353967   39.412183
  73 C     6.0000    0    12.011   13.552960    9.083762   39.072468
  74 H     1.0000    0     1.008   11.781181    8.561929   38.151960
  75 H     1.0000    0     1.008   15.092431    8.804135   37.733011
  76 H     1.0000    0     1.008   13.448929   11.092023   39.544323
  77 C     6.0000    0    12.011   11.716355    7.861005   43.261892
  78 H     1.0000    0     1.008    9.954242    7.319554   42.333866
  79 H     1.0000    0     1.008   11.556572    9.835461   43.837612
  80 H     1.0000    0     1.008   11.931084    6.721685   44.965134
  81 C     6.0000    0    12.011   23.227456    9.769478   50.668504
  82 C     6.0000    0    12.011   24.448401   11.085722   52.928222
  83 C     6.0000    0    12.011   25.451607   13.651260   52.042232
  84 H     1.0000    0     1.008   26.904764   13.432939   50.590923
  85 H     1.0000    0     1.008   26.298256   14.644776   53.640712
  86 H     1.0000    0     1.008   23.936950   14.819333   51.276762
  87 C     6.0000    0    12.011   22.402457   11.482048   54.937298
  88 H     1.0000    0     1.008   21.604765    9.685487   55.570755
  89 H     1.0000    0     1.008   20.876232   12.667766   54.218864
  90 H     1.0000    0     1.008   23.220245   12.425671   56.580253
  91 C     6.0000    0    12.011   26.597968    9.509571   54.013926
  92 H     1.0000    0     1.008   27.439724   10.503894   55.614169
  93 H     1.0000    0     1.008   28.081537    9.193374   52.615401
  94 H     1.0000    0     1.008   25.931587    7.677801   54.689605
  95 C     6.0000    0    12.011   18.964976    4.665171   49.507771
  96 C     6.0000    0    12.011   17.290188    2.860703   51.007721
  97 C     6.0000    0    12.011   14.576403    3.110996   50.041680
  98 H     1.0000    0     1.008   13.342544    1.868507   51.134046
  99 H     1.0000    0     1.008   14.434728    2.556972   48.057054
 100 H     1.0000    0     1.008   13.891904    5.045257   50.225018
 101 C     6.0000    0    12.011   17.420332    3.675831   53.784244
 102 H     1.0000    0     1.008   16.227413    2.430308   54.917725
 103 H     1.0000    0     1.008   16.749204    5.609884   54.027806
 104 H     1.0000    0     1.008   19.346484    3.544452   54.518230
 105 C     6.0000    0    12.011   18.201832    0.143805   50.737074
 106 H     1.0000    0     1.008   16.981659   -1.098362   51.845013
 107 H     1.0000    0     1.008   20.137433   -0.081277   51.408176
 108 H     1.0000    0     1.008   18.137226   -0.479616   48.772278

--------------------------------
INTERNAL COORDINATES (ANGSTROEM)
--------------------------------
 Fe     0   0   0     0.000000000000     0.00000000     0.00000000
 Fe     1   0   0     3.161442921406     0.00000000     0.00000000
 Fe     1   2   0     3.154757097466    60.30597717     0.00000000
 O      1   2   3     1.822667815549    29.93793619     1.33134392
 O      1   2   3     2.033562333404   151.60543116   184.05115542
 H      5   1   2     0.963912796912   109.81895956     8.72577578
 H      5   1   2     0.966010051449   105.27517668   124.22076306
 O      2   1   3     2.033856627001   149.86438943   174.96801286
 H      8   2   1     0.965063790806   106.73145183   344.84131524
 H      8   2   1     0.966310314901   104.56620732   232.21590922
 O      3   1   2     2.030601030340   150.85271776   182.54347366
 H     11   3   1     0.963959024907   109.12593299    13.10875256
 H     11   3   1     0.965728202056   104.90936470   127.92493024
 O      1   2   3     1.917380179754    77.34132270   235.86227807
 O      2   1   3     1.935777143473    73.57345778   136.73384055
 O      1   2   3     1.910094832633    73.93750839   142.51931670
 O      2   1   3     1.903349219256    76.32929321   231.12962599
 O      2   1   3     1.924224181835   114.70218970    55.92157675
 O      3   1   2     1.932988853308   120.41669286   315.34009359
 O      2   1   3     1.900126733707   117.67475752   312.08783565
 O      3   1   2     1.897233656976   110.56454021    59.31243831
 O      3   1   2     1.922045892339    77.45694078   234.54608013
 O      1   2   3     1.933831115901   120.04181927   316.11854168
 O      3   1   2     1.907476250302    73.01188734   141.21999716
 O      1   2   3     1.901823304476   110.20334358    60.11024317
 C     15   2   1     1.256655362911   132.15558938   342.42787828
 C     26  15   2     1.527763279859   117.07228277   196.47441830
 C     27  26  15     1.527536596261   109.93499237   318.81967165
 H     28  27  26     1.090103858423   111.52992631    60.51291701
 H     28  27  26     1.092681209224   111.50281103   299.03905142
 H     28  27  26     1.091844394708   109.37921729   179.91557645
 C     27  26  15     1.534540925464   106.18298242    77.45380042
 H     32  27  26     1.091566436579   111.13339326   301.14225940
 H     32  27  26     1.092173472261   109.44170698   181.53145975
 H     32  27  26     1.092730603195   111.25388028    62.31901391
 C     27  26  15     1.524239212436   111.09448666   196.80965504
 H     36  27  26     1.092633669844   111.42389909    62.38372587
 H     36  27  26     1.090153484472   111.60208924   301.08315766
 H     36  27  26     1.091918119376   109.42246527   181.33931886
 C     17   2   1     1.254879016248   129.09313584   344.52247639
 C     40  17   2     1.526048521549   117.32533474   186.78204812
 C     41  40  17     1.535128860556   105.78610799   275.76251900
 H     42  41  40     1.091576504016   111.22859380    61.16841129
 H     42  41  40     1.092337897623   111.10791681   299.80641605
 H     42  41  40     1.092305965091   109.30381523   180.59966666
 C     41  40  17     1.524836807539   110.72250363   156.97046598
 H     46  41  40     1.092731776494   111.40786346   298.14625356
 H     46  41  40     1.091998285246   109.28836078   179.18551828
 H     46  41  40     1.089962299774   111.59584887    59.46223263
 C     41  40  17     1.526243453630   110.19929876    34.62923232
 H     50  41  40     1.093109388872   111.23876263    62.68587015
 H     50  41  40     1.089712565706   111.56979674   301.63200369
 H     50  41  40     1.092031754585   109.47510055   181.57859045
 C     19   3   1     1.256045481944   132.46931542    23.57653833
 C     54  19   3     1.527396485156   117.01202991   193.44400227
 C     55  54  19     1.523654831923   111.20543341   188.07528832
 H     56  55  54     1.091868058688   109.35730317   181.58574073
 H     56  55  54     1.092539678458   111.50341750    62.71092224
 H     56  55  54     1.090755089045   111.60441086   301.11811591
 C     55  54  19     1.529797933337   109.02029662   309.36509871
 H     60  55  54     1.091883468689   109.39185036   180.20038890
 H     60  55  54     1.090281120434   111.59398842    60.65835021
 H     60  55  54     1.092661297991   111.46441232   299.40661161
 C     55  54  19     1.533485264017   107.00863036    68.20199148
 H     64  55  54     1.092061932188   109.44617130   181.77368236
 H     64  55  54     1.092762979815   111.32907290    62.55887726
 H     64  55  54     1.090872110208   111.26313354   301.56357714
 C     21   3   1     1.254013173674   129.23740311   296.62584899
 C     68  21   3     1.526868233885   118.11708303   184.88743758
 C     69  68  21     1.533666277051   106.52791765   252.35967723
 H     70  69  68     1.092231607299   109.34376501   181.68280416
 H     70  69  68     1.093013471292   111.22518749    62.69041295
 H     70  69  68     1.091220620978   111.03463642   301.41413136
 C     69  68  21     1.529160984362   109.07749453   134.09911418
 H     74  69  68     1.092061553967   109.29880377   178.49807521
 H     74  69  68     1.089938766124   111.38392624    58.61954455
 H     74  69  68     1.093052776954   111.26738892   297.34725148
 C     69  68  21     1.523155956748   111.06893054    12.26131976
 H     78  69  68     1.092138210136   109.30616951   181.08767798
 H     78  69  68     1.091627202992   111.49245067    61.64910622
 H     78  69  68     1.090309601367   111.58640013   300.97278005
 C     23   1   2     1.253917368119   132.45558314    17.91409356
 C     82  23   1     1.527254549872   118.42828837   195.60446546
 C     83  82  23     1.531269792064   108.13648264   122.89825358
 H     84  83  82     1.092930318887   111.42974941   297.93947013
 H     84  83  82     1.092084700286   109.38398447   178.78501455
 H     84  83  82     1.090223942557   111.19534269    59.03327339
 C     83  82  23     1.531815069046   107.87002560   241.40519232
 H     88  83  82     1.092876946298   111.51678141    60.75838875
 H     88  83  82     1.091111507684   111.10445874   299.27374981
 H     88  83  82     1.092017478430   109.57775139   180.10257806
 C     83  82  23     1.523042078179   111.19581856     2.02589329
 H     92  83  82     1.091954295466   109.47045344   179.59849378
 H     92  83  82     1.091802578481   111.42395772    60.41626819
 H     92  83  82     1.091694568991   111.62621610   298.86508798
 C     25   1   2     1.252730903756   127.58155041   289.38290872
 C     96  25   1     1.525542645110   118.26858351   191.70300641
 C     97  96  25     1.530091803468   108.49575574   232.60918921
 H     98  97  96     1.092139152291   109.39994866   181.58981633
 H     98  97  96     1.092946965151   111.23544165    62.57714167
 H     98  97  96     1.090094622694   111.30986350   301.65523077
 C     97  96  25     1.532829419248   107.24655667   114.11299711
 H    102  97  96     1.092102012752   109.30829013   179.56071067
 H    102  97  96     1.090964498930   111.26051079    60.06686716
 H    102  97  96     1.092986220231   111.38480179   298.56118563
 C     97  96  25     1.523247591885   110.96984537   353.98584550
 H    106  97  96     1.092123397439   109.29100674   179.39229598
 H    106  97  96     1.090617368842   111.70970345    59.50771235
 H    106  97  96     1.091344207651   111.40570861   298.80589199

---------------------------
INTERNAL COORDINATES (A.U.)
---------------------------
 Fe     0   0   0     0.000000000000     0.00000000     0.00000000
 Fe     1   0   0     5.974261309482     0.00000000     0.00000000
 Fe     1   2   0     5.961626933255    60.30597717     0.00000000
 O      1   2   3     3.444343004500    29.93793619     1.33134392
 O      1   2   3     3.842875886392   151.60543116   184.05115542
 H      5   1   2     1.821531203146   109.81895956     8.72577578
 H      5   1   2     1.825494439855   105.27517668   124.22076306
 O      2   1   3     3.843432020694   149.86438943   174.96801286
 H      8   2   1     1.823706266388   106.73145183   344.84131524
 H      8   2   1     1.826061855545   104.56620732   232.21590922
 O      3   1   2     3.837279834601   150.85271776   182.54347366
 H     11   3   1     1.821618561396   109.12593299    13.10875256
 H     11   3   1     1.824961821689   104.90936470   127.92493024
 O      1   2   3     3.623323434343    77.34132270   235.86227807
 O      2   1   3     3.658088657469    73.57345778   136.73384055
 O      1   2   3     3.609556123494    73.93750839   142.51931670
 O      2   1   3     3.596808761607    76.32929321   231.12962599
 O      2   1   3     3.636256723936   114.70218970    55.92157675
 O      3   1   2     3.652819552674   120.41669286   315.34009359
 O      2   1   3     3.590719146449   117.67475752   312.08783565
 O      3   1   2     3.585252023743   110.56454021    59.31243831
 O      3   1   2     3.632140353348    77.45694078   234.54608013
 O      1   2   3     3.654411198308   120.04181927   316.11854168
 O      3   1   2     3.604607720030    73.01188734   141.21999716
 O      1   2   3     3.593925200569   110.20334358    60.11024317
 C     15   2   1     2.374734480625   132.15558938   342.42787828
 C     26  15   2     2.887054196396   117.07228277   196.47441830
 C     27  26  15     2.886625826476   109.93499237   318.81967165
 H     28  27  26     2.059997749951   111.52992631    60.51291701
 H     28  27  26     2.064868237116   111.50281103   299.03905142
 H     28  27  26     2.063286886855   109.37921729   179.91557645
 C     27  26  15     2.899862090421   106.18298242    77.45380042
 H     32  27  26     2.062761622116   111.13339326   301.14225940
 H     32  27  26     2.063908753306   109.44170698   181.53145975
 H     32  27  26     2.064961578192   111.25388028    62.31901391
 C     27  26  15     2.880394674088   111.09448666   196.80965504
 H     36  27  26     2.064778400707   111.42389909    62.38372587
 H     36  27  26     2.060091529592   111.60208924   301.08315766
 H     36  27  26     2.063426206287   109.42246527   181.33931886
 C     17   2   1     2.371377671913   129.09313584   344.52247639
 C     40  17   2     2.883813772803   117.32533474   186.78204812
 C     41  40  17     2.900973126729   105.78610799   275.76251900
 H     42  41  40     2.062780646814   111.22859380    61.16841129
 H     42  41  40     2.064219472211   111.10791681   299.80641605
 H     42  41  40     2.064159128471   109.30381523   180.59966666
 C     41  40  17     2.881523965172   110.72250363   156.97046598
 H     46  41  40     2.064963795407   111.40786346   298.14625356
 H     46  41  40     2.063577697826   109.28836078   179.18551828
 H     46  41  40     2.059730242871   111.59584887    59.46223263
 C     41  40  17     2.884182141051   110.19929876    34.62923232
 H     50  41  40     2.065677379387   111.23876263    62.68587015
 H     50  41  40     2.059258313876   111.56979674   301.63200369
 H     50  41  40     2.063640945710   109.47510055   181.57859045
 C     19   3   1     2.373581972623   132.46931542    23.57653833
 C     54  19   3     2.886361054858   117.01202991   193.44400227
 C     55  54  19     2.879290354960   111.20543341   188.07528832
 H     56  55  54     2.063331605296   109.35730317   181.58574073
 H     56  55  54     2.064600782727   111.50341750    62.71092224
 H     56  55  54     2.061228397476   111.60441086   301.11811591
 C     55  54  19     2.890899134245   109.02029662   309.36509871
 H     60  55  54     2.063360725978   109.39185036   180.20038890
 H     60  55  54     2.060332726605   111.59398842    60.65835021
 H     60  55  54     2.064830610338   111.46441232   299.40661161
 C     55  54  19     2.897867179396   107.00863036    68.20199148
 H     64  55  54     2.063697973116   109.44617130   181.77368236
 H     64  55  54     2.065022761138   111.32907290    62.55887726
 H     64  55  54     2.061449535426   111.26313354   301.56357714
 C     21   3   1     2.369741466574   129.23740311   296.62584899
 C     68  21   3     2.885362804627   118.11708303   184.88743758
 C     69  68  21     2.898209244457   106.52791765   252.35967723
 H     70  69  68     2.064018612608   109.34376501   181.68280416
 H     70  69  68     2.065496121428   111.22518749    62.69041295
 H     70  69  68     2.062108125336   111.03463642   301.41413136
 C     69  68  21     2.889695475121   109.07749453   134.09911418
 H     74  69  68     2.063697258381   109.29880377   178.49807521
 H     74  69  68     2.059685770719   111.38392624    58.61954455
 H     74  69  68     2.065570398366   111.26738892   297.34725148
 C     69  68  21     2.878347617505   111.06893054    12.26131976
 H     78  69  68     2.063842117548   109.30616951   181.08767798
 H     78  69  68     2.062876453994   111.49245067    61.64910622
 H     78  69  68     2.060386547768   111.58640013   300.97278005
 C     23   1   2     2.369560420313   132.45558314    17.91409356
 C     82  23   1     2.886092836043   118.42828837   195.60446546
 C     83  82  23     2.893680544148   108.13648264   122.89825358
 H     84  83  82     2.065338986155   111.42974941   297.93947013
 H     84  83  82     2.063740998585   109.38398447   178.78501455
 H     84  83  82     2.060224676077   111.19534269    59.03327339
 C     83  82  23     2.894710968310   107.87002560   241.40519232
 H     88  83  82     2.065238126579   111.51678141    60.75838875
 H     88  83  82     2.061901931093   111.10445874   299.27374981
 H     88  83  82     2.063613967688   109.57775139   180.10257806
 C     83  82  23     2.878132418197   111.19581856     2.02589329
 H     92  83  82     2.063494569190   109.47045344   179.59849378
 H     92  83  82     2.063207865639   111.42395772    60.41626819
 H     92  83  82     2.063003757282   111.62621610   298.86508798
 C     25   1   2     2.367318327599   127.58155041   289.38290872
 C     96  25   1     2.882857804876   118.26858351   191.70300641
 C     97  96  25     2.891454468313   108.49575574   232.60918921
 H     98  97  96     2.063843897963   109.39994866   181.58981633
 H     98  97  96     2.065370443035   111.23544165    62.57714167
 H     98  97  96     2.059980296952   111.30986350   301.65523077
 C     97  96  25     2.896627812397   107.24655667   114.11299711
 H    102  97  96     2.063773714406   109.30829013   179.56071067
 H    102  97  96     2.061624124809   111.26051079    60.06686716
 H    102  97  96     2.065444624386   111.38480179   298.56118563
 C     97  96  25     2.878520782817   110.96984537   353.98584550
 H    106  97  96     2.063814125607   109.29100674   179.39229598
 H    106  97  96     2.060968144009   111.70970345    59.50771235
 H    106  97  96     2.062341670301   111.40570861   298.80589199

---------------------
BASIS SET INFORMATION
---------------------
There are 4 groups of distinct atoms

 Group   1 Type Fe  : 17s11p7d1f contracted to 6s4p4d1f pattern {842111/6311/4111/1}
 Group   2 Type O   : 11s6p2d1f contracted to 5s3p2d1f pattern {62111/411/11/1}
 Group   3 Type H   : 5s1p contracted to 3s1p pattern {311/1}
 Group   4 Type C   : 11s6p2d1f contracted to 5s3p2d1f pattern {62111/411/11/1}

Atom   0Fe   basis set group =>   1
Atom   1Fe   basis set group =>   1
Atom   2Fe   basis set group =>   1
Atom   3O    basis set group =>   2
Atom   4O    basis set group =>   2
Atom   5H    basis set group =>   3
Atom   6H    basis set group =>   3
Atom   7O    basis set group =>   2
Atom   8H    basis set group =>   3
Atom   9H    basis set group =>   3
Atom  10O    basis set group =>   2
Atom  11H    basis set group =>   3
Atom  12H    basis set group =>   3
Atom  13O    basis set group =>   2
Atom  14O    basis set group =>   2
Atom  15O    basis set group =>   2
Atom  16O    basis set group =>   2
Atom  17O    basis set group =>   2
Atom  18O    basis set group =>   2
Atom  19O    basis set group =>   2
Atom  20O    basis set group =>   2
Atom  21O    basis set group =>   2
Atom  22O    basis set group =>   2
Atom  23O    basis set group =>   2
Atom  24O    basis set group =>   2
Atom  25C    basis set group =>   4
Atom  26C    basis set group =>   4
Atom  27C    basis set group =>   4
Atom  28H    basis set group =>   3
Atom  29H    basis set group =>   3
Atom  30H    basis set group =>   3
Atom  31C    basis set group =>   4
Atom  32H    basis set group =>   3
Atom  33H    basis set group =>   3
Atom  34H    basis set group =>   3
Atom  35C    basis set group =>   4
Atom  36H    basis set group =>   3
Atom  37H    basis set group =>   3
Atom  38H    basis set group =>   3
Atom  39C    basis set group =>   4
Atom  40C    basis set group =>   4
Atom  41C    basis set group =>   4
Atom  42H    basis set group =>   3
Atom  43H    basis set group =>   3
Atom  44H    basis set group =>   3
Atom  45C    basis set group =>   4
Atom  46H    basis set group =>   3
Atom  47H    basis set group =>   3
Atom  48H    basis set group =>   3
Atom  49C    basis set group =>   4
Atom  50H    basis set group =>   3
Atom  51H    basis set group =>   3
Atom  52H    basis set group =>   3
Atom  53C    basis set group =>   4
Atom  54C    basis set group =>   4
Atom  55C    basis set group =>   4
Atom  56H    basis set group =>   3
Atom  57H    basis set group =>   3
Atom  58H    basis set group =>   3
Atom  59C    basis set group =>   4
Atom  60H    basis set group =>   3
Atom  61H    basis set group =>   3
Atom  62H    basis set group =>   3
Atom  63C    basis set group =>   4
Atom  64H    basis set group =>   3
Atom  65H    basis set group =>   3
Atom  66H    basis set group =>   3
Atom  67C    basis set group =>   4
Atom  68C    basis set group =>   4
Atom  69C    basis set group =>   4
Atom  70H    basis set group =>   3
Atom  71H    basis set group =>   3
Atom  72H    basis set group =>   3
Atom  73C    basis set group =>   4
Atom  74H    basis set group =>   3
Atom  75H    basis set group =>   3
Atom  76H    basis set group =>   3
Atom  77C    basis set group =>   4
Atom  78H    basis set group =>   3
Atom  79H    basis set group =>   3
Atom  80H    basis set group =>   3
Atom  81C    basis set group =>   4
Atom  82C    basis set group =>   4
Atom  83C    basis set group =>   4
Atom  84H    basis set group =>   3
Atom  85H    basis set group =>   3
Atom  86H    basis set group =>   3
Atom  87C    basis set group =>   4
Atom  88H    basis set group =>   3
Atom  89H    basis set group =>   3
Atom  90H    basis set group =>   3
Atom  91C    basis set group =>   4
Atom  92H    basis set group =>   3
Atom  93H    basis set group =>   3
Atom  94H    basis set group =>   3
Atom  95C    basis set group =>   4
Atom  96C    basis set group =>   4
Atom  97C    basis set group =>   4
Atom  98H    basis set group =>   3
Atom  99H    basis set group =>   3
Atom 100H    basis set group =>   3
Atom 101C    basis set group =>   4
Atom 102H    basis set group =>   3
Atom 103H    basis set group =>   3
Atom 104H    basis set group =>   3
Atom 105C    basis set group =>   4
Atom 106H    basis set group =>   3
Atom 107H    basis set group =>   3
Atom 108H    basis set group =>   3
---------------------------------
AUXILIARY/J BASIS SET INFORMATION
---------------------------------
There are 4 groups of distinct atoms

 Group   1 Type Fe  : 19s5p5d3f3g contracted to 8s5p5d2f3g pattern {121111111/11111/11111/21/111}
 Group   2 Type O   : 12s5p4d2f1g contracted to 6s4p3d1f1g pattern {711111/2111/211/2/1}
 Group   3 Type H   : 5s2p1d contracted to 3s1p1d pattern {311/2/1}
 Group   4 Type C   : 12s5p4d2f1g contracted to 6s4p3d1f1g pattern {711111/2111/211/2/1}

Atom   0Fe   basis set group =>   1
Atom   1Fe   basis set group =>   1
Atom   2Fe   basis set group =>   1
Atom   3O    basis set group =>   2
Atom   4O    basis set group =>   2
Atom   5H    basis set group =>   3
Atom   6H    basis set group =>   3
Atom   7O    basis set group =>   2
Atom   8H    basis set group =>   3
Atom   9H    basis set group =>   3
Atom  10O    basis set group =>   2
Atom  11H    basis set group =>   3
Atom  12H    basis set group =>   3
Atom  13O    basis set group =>   2
Atom  14O    basis set group =>   2
Atom  15O    basis set group =>   2
Atom  16O    basis set group =>   2
Atom  17O    basis set group =>   2
Atom  18O    basis set group =>   2
Atom  19O    basis set group =>   2
Atom  20O    basis set group =>   2
Atom  21O    basis set group =>   2
Atom  22O    basis set group =>   2
Atom  23O    basis set group =>   2
Atom  24O    basis set group =>   2
Atom  25C    basis set group =>   4
Atom  26C    basis set group =>   4
Atom  27C    basis set group =>   4
Atom  28H    basis set group =>   3
Atom  29H    basis set group =>   3
Atom  30H    basis set group =>   3
Atom  31C    basis set group =>   4
Atom  32H    basis set group =>   3
Atom  33H    basis set group =>   3
Atom  34H    basis set group =>   3
Atom  35C    basis set group =>   4
Atom  36H    basis set group =>   3
Atom  37H    basis set group =>   3
Atom  38H    basis set group =>   3
Atom  39C    basis set group =>   4
Atom  40C    basis set group =>   4
Atom  41C    basis set group =>   4
Atom  42H    basis set group =>   3
Atom  43H    basis set group =>   3
Atom  44H    basis set group =>   3
Atom  45C    basis set group =>   4
Atom  46H    basis set group =>   3
Atom  47H    basis set group =>   3
Atom  48H    basis set group =>   3
Atom  49C    basis set group =>   4
Atom  50H    basis set group =>   3
Atom  51H    basis set group =>   3
Atom  52H    basis set group =>   3
Atom  53C    basis set group =>   4
Atom  54C    basis set group =>   4
Atom  55C    basis set group =>   4
Atom  56H    basis set group =>   3
Atom  57H    basis set group =>   3
Atom  58H    basis set group =>   3
Atom  59C    basis set group =>   4
Atom  60H    basis set group =>   3
Atom  61H    basis set group =>   3
Atom  62H    basis set group =>   3
Atom  63C    basis set group =>   4
Atom  64H    basis set group =>   3
Atom  65H    basis set group =>   3
Atom  66H    basis set group =>   3
Atom  67C    basis set group =>   4
Atom  68C    basis set group =>   4
Atom  69C    basis set group =>   4
Atom  70H    basis set group =>   3
Atom  71H    basis set group =>   3
Atom  72H    basis set group =>   3
Atom  73C    basis set group =>   4
Atom  74H    basis set group =>   3
Atom  75H    basis set group =>   3
Atom  76H    basis set group =>   3
Atom  77C    basis set group =>   4
Atom  78H    basis set group =>   3
Atom  79H    basis set group =>   3
Atom  80H    basis set group =>   3
Atom  81C    basis set group =>   4
Atom  82C    basis set group =>   4
Atom  83C    basis set group =>   4
Atom  84H    basis set group =>   3
Atom  85H    basis set group =>   3
Atom  86H    basis set group =>   3
Atom  87C    basis set group =>   4
Atom  88H    basis set group =>   3
Atom  89H    basis set group =>   3
Atom  90H    basis set group =>   3
Atom  91C    basis set group =>   4
Atom  92H    basis set group =>   3
Atom  93H    basis set group =>   3
Atom  94H    basis set group =>   3
Atom  95C    basis set group =>   4
Atom  96C    basis set group =>   4
Atom  97C    basis set group =>   4
Atom  98H    basis set group =>   3
Atom  99H    basis set group =>   3
Atom 100H    basis set group =>   3
Atom 101C    basis set group =>   4
Atom 102H    basis set group =>   3
Atom 103H    basis set group =>   3
Atom 104H    basis set group =>   3
Atom 105C    basis set group =>   4
Atom 106H    basis set group =>   3
Atom 107H    basis set group =>   3
Atom 108H    basis set group =>   3


           ************************************************************
           *        Program running with 32 parallel MPI-processes    *
           *              working on a common directory               *
           ************************************************************
------------------------------------------------------------------------------
                           ORCA GTO INTEGRAL CALCULATION
                           -- RI-GTO INTEGRALS CHOSEN --
------------------------------------------------------------------------------
------------------------------------------------------------------------------
                   ___                                                        
                  /   \      - P O W E R E D   B Y -                         
                 /     \                                                     
                 |  |  |   _    _      __       _____    __    __             
                 |  |  |  | |  | |    /  \     |  _  \  |  |  /  |          
                  \  \/   | |  | |   /    \    | | | |  |  | /  /          
                 / \  \   | |__| |  /  /\  \   | |_| |  |  |/  /          
                |  |  |   |  __  | /  /__\  \  |    /   |      \           
                |  |  |   | |  | | |   __   |  |    \   |  |\   \          
                \     /   | |  | | |  |  |  |  | |\  \  |  | \   \       
                 \___/    |_|  |_| |__|  |__|  |_| \__\ |__|  \__/        
                                                                              
                      - O R C A' S   B I G   F R I E N D -                    
                                      &                                       
                       - I N T E G R A L  F E E D E R -                       
                                                                              
 v1 FN, 2020, v2 2021                                                         
------------------------------------------------------------------------------


Reading SHARK input file Fe3_O_piv_6_H2O_3_LowSpin.SHARKINP.tmp ... ok
----------------------
SHARK INTEGRAL PACKAGE
----------------------

Number of atoms                             ...    109
Number of basis functions                   ...   1921
Number of shells                            ...    791
Maximum angular momentum                    ...      3
Integral batch strategy                     ... SHARK/LIBINT Hybrid
RI-J (if used) integral strategy            ... SPLIT-RIJ (Revised 2003 algorithm where possible)
Printlevel                                  ...      1
Contraction scheme used                     ... SEGMENTED contraction
Coulomb Range Separation                    ... NOT USED
Exchange Range Separation                   ... NOT USED
Finite Nucleus Model                        ... NOT USED
Auxiliary Coulomb fitting basis             ... AVAILABLE
   # of basis functions in Aux-J            ...   3181
   # of shells in Aux-J                     ...   1059
   Maximum angular momentum in Aux-J        ...      4
Auxiliary J/K fitting basis                 ... NOT available
Auxiliary Correlation fitting basis         ... NOT available
Auxiliary 'external' fitting basis          ... NOT available
Integral threshold                          ...     1.000000e-10
Primitive cut-off                           ...     1.000000e-11
Primitive pair pre-selection threshold      ...     1.000000e-11

Calculating pre-screening integrals         ... done (  0.1 sec) Dimension = 791
Organizing shell pair data                  ... done (  1.5 sec)
Shell pair information
Total number of shell pairs                 ...    313236
Shell pairs after pre-screening             ...    161810
Total number of primitive shell pairs       ...    965335
Primitive shell pairs kept                  ...    300675
          la=0 lb=0:  47022 shell pairs
          la=1 lb=0:  48699 shell pairs
          la=1 lb=1:  12742 shell pairs
          la=2 lb=0:  22505 shell pairs
          la=2 lb=1:  11781 shell pairs
          la=2 lb=2:   2797 shell pairs
          la=3 lb=0:   9021 shell pairs
          la=3 lb=1:   4772 shell pairs
          la=3 lb=2:   2115 shell pairs
          la=3 lb=3:    356 shell pairs

Calculating one electron integrals          ... done (  0.2 sec)
Calculating RI/J V-Matrix + Cholesky decomp.... done (  1.7 sec)
Calculating Nuclear repulsion               ... done (  0.0 sec) ENN=  11629.587048793830 Eh

SHARK setup successfully completed in   5.1 seconds

Maximum memory used throughout the entire GTOINT-calculation: 237.8 MB


           ************************************************************
           *        Program running with 32 parallel MPI-processes    *
           *              working on a common directory               *
           ************************************************************
-------------------------------------------------------------------------------
                                 ORCA SCF
-------------------------------------------------------------------------------

------------
SCF SETTINGS
------------
Hamiltonian:
 Density Functional     Method          .... DFT(GTOs)
 Exchange Functional    Exchange        .... PBE
   PBE kappa parameter   XKappa         ....  0.804000
   PBE mue parameter    XMuePBE         ....  0.219520
 Correlation Functional Correlation     .... PBE
   PBE beta parameter  CBetaPBE         ....  0.066725
 LDA part of GGA corr.  LDAOpt          .... PW91-LDA
 Gradients option       PostSCFGGA      .... off
 Hybrid DFT is turned on
   Fraction HF Exchange ScalHFX         ....  0.250000
   Scaling of DF-GGA-X  ScalDFX         ....  0.750000
   Scaling of DF-GGA-C  ScalDFC         ....  1.000000
   Scaling of DF-LDA-C  ScalLDAC        ....  1.000000
   Perturbative correction              ....  0.000000
   Density functional embedding theory  .... OFF
   NL short-range parameter             ....  6.900000
 RI-approximation to the Coulomb term is turned on
   Number of AuxJ basis functions       .... 3181
   RIJ-COSX (HFX calculated with COS-X)).... on


General Settings:
 Integral files         IntName         .... Fe3_O_piv_6_H2O_3_LowSpin
 Hartree-Fock type      HFTyp           .... UHF
 Total Charge           Charge          ....    1
 Multiplicity           Mult            ....    4
 Number of Electrons    NEL             ....  445
 Basis Dimension        Dim             .... 1921
 Nuclear Repulsion      ENuc            ....  11629.5870487938 Eh

Convergence Acceleration:
 DIIS                   CNVDIIS         .... on
   Start iteration      DIISMaxIt       ....    12
   Startup error        DIISStart       ....  0.200000
   # of expansion vecs  DIISMaxEq       ....     5
   Bias factor          DIISBfac        ....   1.050
   Max. coefficient     DIISMaxC        ....  10.000
 Trust-Rad. Augm. Hess. CNVTRAH         .... auto
   Auto Start mean grad. ratio tolernc. ....  1.125000
   Auto Start start iteration           ....    20
   Auto Start num. interpolation iter.  ....    10
   Max. Number of Micro iterations      ....    16
   Max. Number of Macro iterations      .... Maxiter - #DIIS iter
   Number of Davidson start vectors     ....     2
   Converg. threshold I  (grad. norm)   ....   5.000e-05
   Converg. threshold II (energy diff.) ....   1.000e-06
   Grad. Scal. Fac. for Micro threshold ....   0.100
   Minimum threshold for Micro iter.    ....   0.010
   NR start threshold (gradient norm)   ....   0.001
   Initial trust radius                 ....   0.400
   Minimum AH scaling param. (alpha)    ....   1.000
   Maximum AH scaling param. (alpha)    .... 1000.000
   Orbital update algorithm             .... Taylor
   White noise on init. David. guess    .... on
   Maximum white noise                  ....   0.010
   Quad. conv. algorithm                .... NR
 SOSCF                  CNVSOSCF        .... off
 Level Shifting         CNVShift        .... on
   Level shift para.    LevelShift      ....    0.2500
   Turn off err/grad.   ShiftErr        ....    0.0010
 Zerner damping         CNVZerner       .... off
 Static damping         CNVDamp         .... on
   Fraction old density DampFac         ....    0.7000
   Max. Damping (<1)    DampMax         ....    0.9800
   Min. Damping (>=0)   DampMin         ....    0.0000
   Turn off err/grad.   DampErr         ....    0.1000
 Fernandez-Rico         CNVRico         .... off

SCF Procedure:
 Maximum # iterations   MaxIter         ....   125
 SCF integral mode      SCFMode         .... Direct
   Integral package                     .... SHARK and LIBINT hybrid scheme
 Reset frequency        DirectResetFreq ....    20
 Integral Threshold     Thresh          ....  1.000e-10 Eh
 Primitive CutOff       TCut            ....  1.000e-11 Eh

Convergence Tolerance:
 Convergence Check Mode ConvCheckMode   .... Total+1el-Energy
 Convergence forced     ConvForced      .... 0
 Energy Change          TolE            ....  1.000e-06 Eh
 1-El. energy change                    ....  1.000e-03 Eh
 DIIS Error             TolErr          ....  1.000e-06


Diagonalization of the overlap matrix:
Smallest eigenvalue                        ... 5.076e-05
Time for diagonalization                   ...    2.433 sec
Threshold for overlap eigenvalues          ... 1.000e-08
Number of eigenvalues below threshold      ... 0
Time for construction of square roots      ...    0.578 sec
Total time needed                          ...    3.036 sec

Time for model grid setup =    0.787 sec

------------------------------
INITIAL GUESS: MODEL POTENTIAL
------------------------------
Loading Hartree-Fock densities                     ... done
Calculating cut-offs                               ... done
Initializing the effective Hamiltonian             ... done
Setting up the integral package (SHARK)            ... done
Starting the Coulomb interaction                   ... done (   1.3 sec)
Reading the grid                                   ... done
Mapping shells                                     ... done
Starting the XC term evaluation                    ... done (   0.3 sec)
  promolecular density results
     # of electrons  =    445.972865039
     EX              =   -464.649848383
     EC              =    -15.932573262
     EX+EC           =   -480.582421645
Transforming the Hamiltonian                       ... done (   0.3 sec)
Diagonalizing the Hamiltonian                      ... done (   0.5 sec)
Back transforming the eigenvectors                 ... done (   0.1 sec)
Now organizing SCF variables                       ... done
                      ------------------
                      INITIAL GUESS DONE (   3.6 sec)
                      ------------------
-------------------
DFT GRID GENERATION
-------------------

General Integration Accuracy     IntAcc      ... 4.388
Radial Grid Type                 RadialGrid  ... OptM3 with GC (2021)
Angular Grid (max. ang.)         AngularGrid ... 4 (Lebedev-302)
Angular grid pruning method      GridPruning ... 4 (adaptive)
Weight generation scheme         WeightScheme... Becke
Basis function cutoff            BFCut       ... 1.0000e-10
Integration weight cutoff        WCut        ... 1.0000e-14
Angular grids for H and He will be reduced by one unit
Partially contracted basis set               ... off
Rotationally invariant grid construction     ... off

Total number of grid points                  ...   492099
Total number of batches                      ...     7746
Average number of points per batch           ...       63
Average number of grid points per atom       ...     4515
Time for grid setup =    3.057 sec

--------------------
COSX GRID GENERATION
--------------------

GRIDX 1
-------
General Integration Accuracy     IntAcc      ... 3.816
Radial Grid Type                 RadialGrid  ... OptM3 with GC (2021)
Angular Grid (max. ang.)         AngularGrid ... 1 (Lebedev-50)
Angular grid pruning method      GridPruning ... 4 (adaptive)
Weight generation scheme         WeightScheme... Becke
Basis function cutoff            BFCut       ... 1.0000e-10
Integration weight cutoff        WCut        ... 1.0000e-14
Angular grids for H and He will be reduced by one unit
Partially contracted basis set               ... on
Rotationally invariant grid construction     ... off

Total number of grid points                  ...    61827
Total number of batches                      ...     1020
Average number of points per batch           ...       60
Average number of grid points per atom       ...      567
UseSFitting                                  ... on

GRIDX 2
-------
General Integration Accuracy     IntAcc      ... 4.020
Radial Grid Type                 RadialGrid  ... OptM3 with GC (2021)
Angular Grid (max. ang.)         AngularGrid ... 2 (Lebedev-110)
Angular grid pruning method      GridPruning ... 4 (adaptive)
Weight generation scheme         WeightScheme... Becke
Basis function cutoff            BFCut       ... 1.0000e-10
Integration weight cutoff        WCut        ... 1.0000e-14
Angular grids for H and He will be reduced by one unit
Partially contracted basis set               ... on
Rotationally invariant grid construction     ... off

Total number of grid points                  ...   128357
Total number of batches                      ...     2056
Average number of points per batch           ...       62
Average number of grid points per atom       ...     1178
UseSFitting                                  ... on

GRIDX 3
-------
General Integration Accuracy     IntAcc      ... 4.338
Radial Grid Type                 RadialGrid  ... OptM3 with GC (2021)
Angular Grid (max. ang.)         AngularGrid ... 3 (Lebedev-194)
Angular grid pruning method      GridPruning ... 4 (adaptive)
Weight generation scheme         WeightScheme... Becke
Basis function cutoff            BFCut       ... 1.0000e-10
Integration weight cutoff        WCut        ... 1.0000e-14
Angular grids for H and He will be reduced by one unit
Partially contracted basis set               ... on
Rotationally invariant grid construction     ... off

Total number of grid points                  ...   276850
Total number of batches                      ...     4384
Average number of points per batch           ...       63
Average number of grid points per atom       ...     2540
UseSFitting                                  ... on

Time for X-Grid setup             =    5.142 sec

--------------
SCF ITERATIONS
--------------
ITER       Energy         Delta-E        Max-DP      RMS-DP      [F,P]     Damp
               ***  Starting incremental Fock matrix formation  ***
  0  -6169.6236776944   0.000000000000 0.06796596  0.00027666  0.1828591 0.7000
  1  -6170.5881592213  -0.964481526910 0.02421433  0.00015654  0.0544571 0.7000
                               ***Turning on DIIS***
  2  -6170.9989088997  -0.410749678356 0.08484520  0.00030921  0.0427511 0.0000
  3  -6171.6128506202  -0.613941720534 0.01227829  0.00004771  0.1187357 0.7000
  4  -6171.7168860691  -0.104035448868 0.03989383  0.00016228  0.0888969 0.0000
  5  -6171.8906567140  -0.173770644908 0.00426374  0.00002907  0.0049549 0.0000
  6  -6171.8942183284  -0.003561614450 0.00527047  0.00001857  0.0088799 0.0000
  7  -6171.8963982742  -0.002179945715 0.00324765  0.00001168  0.0037248 0.0000
  8  -6171.8974671994  -0.001068925280 0.00333551  0.00000961  0.0042243 0.0000
  9  -6171.8987027301  -0.001235530674 0.00411973  0.00001010  0.0038768 0.0000
 10  -6171.8999655304  -0.001262800261 0.00357740  0.00000845  0.0039369 0.0000
 11  -6171.9010904590  -0.001124928665 0.00142542  0.00000437  0.0042159 0.0000
 12  -6171.9015821078  -0.000491648793 0.00257695  0.00000615  0.0045017 0.0000
 13  -6171.9024029886  -0.000820880789 0.00172854  0.00000434  0.0048214 0.0000
 14  -6171.9030339231  -0.000630934460 0.00210544  0.00000498  0.0048492 0.0000
 15  -6171.9037037443  -0.000669821186 0.00296429  0.00000669  0.0050863 0.0000
 16  -6171.9048237561  -0.001120011858 0.00273629  0.00000686  0.0050485 0.0000
 17  -6171.9059227053  -0.001098949147 0.00381074  0.00000936  0.0045548 0.0000
 18  -6171.9076182243  -0.001695518980 0.00404917  0.00000947  0.0064445 0.0000
 19  -6171.9095018915  -0.001883667206 0.00532041  0.00001279  0.0071060 0.0000
               *** Restarting incremental Fock matrix formation ***
                                   *** Resetting DIIS ***

 WARNING: the maximum gradient error descreased on average only by a factor   0.9
          during the last 20 iterations

                      *** Initiating the TRAH-SCF procedure ***


TRAH GRIDX
----------

General Integration Accuracy     IntAcc      ... 3.067
Radial Grid Type                 RadialGrid  ... OptM3 with GC (2021)
Angular Grid (max. ang.)         AngularGrid ... 1 (Lebedev-50)
Angular grid pruning method      GridPruning ... 4 (adaptive)
Weight generation scheme         WeightScheme... Becke
Basis function cutoff            BFCut       ... 1.0000e-10
Integration weight cutoff        WCut        ... 1.0000e-14
Angular grids for H and He will be reduced by one unit
Partially contracted basis set               ... on
Rotationally invariant grid construction     ... off

Total number of grid points                  ...    32916
Total number of batches                      ...      563
Average number of points per batch           ...       58
Average number of grid points per atom       ...      302


TRAH GRID
---------

General Integration Accuracy     IntAcc      ... 3.467
Radial Grid Type                 RadialGrid  ... OptM3 with GC (2021)
Angular Grid (max. ang.)         AngularGrid ... 1 (Lebedev-50)
Angular grid pruning method      GridPruning ... 4 (adaptive)
Weight generation scheme         WeightScheme... Becke
Basis function cutoff            BFCut       ... 1.0000e-10
Integration weight cutoff        WCut        ... 1.0000e-14
Angular grids for H and He will be reduced by one unit
Partially contracted basis set               ... off
Rotationally invariant grid construction     ... off

Total number of grid points                  ...    75072
Total number of batches                      ...     1238
Average number of points per batch           ...       60
Average number of grid points per atom       ...      689

 --------------------------------------------------------------------------------------------
   Iter.        energy            ||Error||_2        Shift      TRadius  Mac/Mic        Rej.
 --------------------------------------------------------------------------------------------
    0      -6171.912055922419     3.978139e-02                     0.400 (TRAH MAcro)   No
    0     dE    -5.604828e-04     5.990531e-02    -5.6037e-04      0.014 (TRAH MIcro)
    0     dE    -2.354454e-02     9.671783e-02    -9.1060e-02      0.379 (TRAH MIcro)
    0     dE    -2.720988e-02     3.308611e-02    -9.9041e-02      0.400 (TRAH MIcro)
    0     dE    -2.806853e-02     2.792985e-02    -1.0286e-01      0.400 (TRAH MIcro)
    0     dE    -2.846567e-02     1.560572e-02    -1.0508e-01      0.400 (TRAH MIcro)
    0     dE    -2.853182e-02     8.149742e-03    -1.0548e-01      0.400 (TRAH MIcro)
    0     dE    -2.856149e-02     3.678481e-03    -1.0574e-01      0.400 (TRAH MIcro)
    1      -6171.936531567497     2.940790e-02                     0.480 (TRAH MAcro)   No
    1     dE    -1.506615e-03     1.525950e-01    -1.5027e-03      0.051 (TRAH MIcro)
    1     dE    -8.914224e-03     2.264340e-01    -8.1798e-03      0.300 (TRAH MIcro)
    1     dE    -1.702338e-02     7.688490e-02    -1.6392e-02      0.480 (TRAH MIcro)
    1     dE    -1.860458e-02     3.530535e-02    -2.3073e-02      0.480 (TRAH MIcro)
    1     dE    -1.936293e-02     3.578819e-02    -2.6679e-02      0.480 (TRAH MIcro)
    1     dE    -2.005853e-02     2.088963e-02    -3.0896e-02      0.480 (TRAH MIcro)
    1     dE    -2.022566e-02     1.447548e-02    -3.2226e-02      0.480 (TRAH MIcro)
    1     dE    -2.029667e-02     9.999273e-03    -3.2940e-02      0.480 (TRAH MIcro)
    1     dE    -2.035082e-02     4.953558e-03    -3.3447e-02      0.480 (TRAH MIcro)
    1     dE    -2.036214e-02     2.976756e-03    -3.3576e-02      0.480 (TRAH MIcro)
    1     dE    -2.036747e-02     2.285820e-03    -3.3622e-02      0.480 (TRAH MIcro)
    2      -6171.953291668032     2.258838e-02                     0.576 (TRAH MAcro)   No
    2     dE    -9.382531e-05     3.491829e-02    -9.3824e-05      0.004 (TRAH MIcro)
    2     dE    -1.518224e-03     6.397916e-02    -1.4937e-03      0.128 (TRAH MIcro)
    2     dE    -2.826570e-03     4.816501e-02    -2.6609e-03      0.250 (TRAH MIcro)
    2     dE    -4.217406e-03     3.704302e-02    -3.7121e-03      0.369 (TRAH MIcro)
    2     dE    -5.320553e-03     1.884233e-02    -4.4177e-03      0.452 (TRAH MIcro)
    2     dE    -5.455130e-03     1.162409e-02    -4.4967e-03      0.462 (TRAH MIcro)
    2     dE    -5.522702e-03     5.163377e-03    -4.5349e-03      0.467 (TRAH MIcro)
    2     dE    -5.554103e-03     4.985193e-03    -4.5521e-03      0.469 (TRAH MIcro)
    2     dE    -5.575097e-03     5.899936e-03    -4.5629e-03      0.471 (TRAH MIcro)
    2     dE    -5.608241e-03     5.290981e-03    -4.5786e-03      0.474 (TRAH MIcro)
    2     dE    -5.654794e-03     5.276818e-03    -4.5985e-03      0.479 (TRAH MIcro)
    2     dE    -5.682112e-03     4.237492e-03    -4.6092e-03      0.482 (TRAH MIcro)
    2     dE    -5.701296e-03     2.283666e-03    -4.6162e-03      0.485 (TRAH MIcro)
    2     dE    -5.708340e-03     1.774274e-03    -4.6187e-03      0.486 (TRAH MIcro)
    3      -6171.958602569025     1.896121e-02                     0.691 (TRAH MAcro)   No
    3     dE    -4.815719e-05     3.046179e-02    -4.8157e-05      0.003 (TRAH MIcro)
    3     dE    -2.448997e-04     1.384614e-02    -2.4468e-04      0.030 (TRAH MIcro)
    3     dE    -2.985244e-04     1.361778e-02    -2.9803e-04      0.041 (TRAH MIcro)
    3     dE    -3.596733e-04     9.527883e-03    -3.5845e-04      0.058 (TRAH MIcro)
    3     dE    -4.722083e-04     2.268516e-02    -4.6761e-04      0.099 (TRAH MIcro)
    3     dE    -5.725277e-04     1.640850e-02    -5.6144e-04      0.141 (TRAH MIcro)
    3     dE    -6.283879e-04     8.285303e-03    -6.1182e-04      0.165 (TRAH MIcro)
    3     dE    -6.729470e-04     7.623228e-03    -6.5079e-04      0.185 (TRAH MIcro)
    3     dE    -6.955681e-04     6.015261e-03    -6.7002e-04      0.195 (TRAH MIcro)
    3     dE    -7.054064e-04     1.960491e-03    -6.7820e-04      0.200 (TRAH MIcro)
    3     dE    -7.087439e-04     2.275716e-03    -6.8096e-04      0.202 (TRAH MIcro)
    3     dE    -7.109472e-04     2.115824e-03    -6.8278e-04      0.203 (TRAH MIcro)
    3     dE    -7.127146e-04     1.196836e-03    -6.8425e-04      0.204 (TRAH MIcro)
    4      -6171.959393750622     3.254108e-03                     0.829 (TRAH MAcro)   No
    4     dE    -1.077689e-06     1.088738e-02    -1.0777e-06      0.000 (TRAH MIcro)
    4     dE    -8.321815e-06     5.300765e-03    -8.3215e-06      0.006 (TRAH MIcro)
    4     dE    -1.279905e-05     8.684112e-03    -1.2798e-05      0.010 (TRAH MIcro)
    4     dE    -2.014357e-05     6.687584e-03    -2.0135e-05      0.021 (TRAH MIcro)
    4     dE    -3.741260e-05     7.587922e-03    -3.7332e-05      0.047 (TRAH MIcro)
    4     dE    -4.852414e-05     8.340365e-03    -4.8326e-05      0.064 (TRAH MIcro)
    4     dE    -5.491991e-05     5.246459e-03    -5.4618e-05      0.074 (TRAH MIcro)
    4     dE    -6.132128e-05     3.110587e-03    -6.0880e-05      0.085 (TRAH MIcro)
    4     dE    -6.334558e-05     3.101750e-03    -6.2850e-05      0.089 (TRAH MIcro)
    4     dE    -6.441435e-05     1.119089e-03    -6.3888e-05      0.091 (TRAH MIcro)
    4     dE    -6.476184e-05     6.322699e-04    -6.4224e-05      0.091 (TRAH MIcro)
    4     dE    -6.498943e-05     7.314773e-04    -6.4445e-05      0.092 (TRAH MIcro)
    4     dE    -6.520335e-05     4.817527e-04    -6.4652e-05      0.092 (TRAH MIcro)
    4     dE    -6.531029e-05     3.586853e-04    -6.4756e-05      0.093 (TRAH MIcro)
    5      -6171.959463291997     7.141569e-04                           (NR   MAcro)
    5     dE    -2.188531e-07     4.293461e-04                           (NR   MIcro)
    5     dE    -3.700805e-07     3.466875e-04                           (NR   MIcro)
    5     dE    -4.401600e-07     3.836646e-04                           (NR   MIcro)
    5     dE    -6.057322e-07     4.273331e-04                           (NR   MIcro)
    5     dE    -7.524267e-07     3.899408e-04                           (NR   MIcro)
    5     dE    -8.402934e-07     3.675681e-04                           (NR   MIcro)
    5     dE    -9.727020e-07     4.413529e-04                           (NR   MIcro)
    5     dE    -1.157510e-06     4.622527e-04                           (NR   MIcro)
    5     dE    -1.255227e-06     2.383810e-04                           (NR   MIcro)
    5     dE    -1.288856e-06     1.423254e-04                           (NR   MIcro)
    5     dE    -1.303593e-06     1.460051e-04                           (NR   MIcro)
    5     dE    -1.319393e-06     1.572530e-04                           (NR   MIcro)
    5     dE    -1.336526e-06     1.395658e-04                           (NR   MIcro)
    5     dE    -1.352332e-06     1.076971e-04                           (NR   MIcro)
    5     dE    -1.360302e-06     6.775525e-05                           (NR   MIcro)
    6      -6171.959464739381     6.939066e-05                           (NR   MAcro)
    6     dE    -2.471656e-09     4.038364e-05                           (NR   MIcro)
    6     dE    -4.463471e-09     4.089614e-05                           (NR   MIcro)
    6     dE    -6.075463e-09     4.068948e-05                           (NR   MIcro)
    6     dE    -7.370754e-09     4.436227e-05                           (NR   MIcro)
    6     dE    -9.001008e-09     4.530455e-05                           (NR   MIcro)
    6     dE    -1.070411e-08     4.171789e-05                           (NR   MIcro)
    6     dE    -1.172342e-08     3.674669e-05                           (NR   MIcro)
[...]
      f+2     :    -0.000004
      f-2     :    -0.000003
      f+3     :    -0.000008
      f-3     :    -0.000001
 92 H s       :    -0.000073  s :    -0.000073
      pz      :     0.000001  p :    -0.000003
      px      :    -0.000001
      py      :    -0.000003
 93 H s       :     0.000018  s :     0.000018
      pz      :    -0.000001  p :    -0.000002
      px      :    -0.000002
      py      :     0.000001
 94 H s       :     0.000011  s :     0.000011
      pz      :    -0.000002  p :    -0.000005
      px      :    -0.000001
      py      :    -0.000002
 95 C s       :     0.000389  s :     0.000389
      pz      :     0.000624  p :     0.000317
      px      :    -0.000290
      py      :    -0.000017
      dz2     :     0.000235  d :    -0.001941
      dxz     :    -0.000493
      dyz     :    -0.001178
      dx2y2   :    -0.000115
      dxy     :    -0.000390
      f0      :    -0.000040  f :    -0.000159
      f+1     :    -0.000044
      f-1     :     0.000007
      f+2     :    -0.000136
      f-2     :    -0.000021
      f+3     :     0.000050
      f-3     :     0.000024
 96 C s       :    -0.000156  s :    -0.000156
      pz      :    -0.000460  p :    -0.002144
      px      :    -0.000923
      py      :    -0.000761
      dz2     :    -0.000086  d :    -0.000142
      dxz     :     0.000009
      dyz     :    -0.000017
      dx2y2   :    -0.000082
      dxy     :     0.000033
      f0      :    -0.000000  f :    -0.000036
      f+1     :    -0.000007
      f-1     :    -0.000004
      f+2     :    -0.000014
      f-2     :    -0.000002
      f+3     :    -0.000011
      f-3     :     0.000003
 97 C s       :     0.000033  s :     0.000033
      pz      :     0.000026  p :    -0.000015
      px      :    -0.000139
      py      :     0.000098
      dz2     :    -0.000030  d :    -0.000154
      dxz     :    -0.000059
      dyz     :     0.000004
      dx2y2   :    -0.000036
      dxy     :    -0.000032
      f0      :    -0.000001  f :    -0.000020
      f+1     :    -0.000005
      f-1     :     0.000000
      f+2     :    -0.000002
      f-2     :    -0.000005
      f+3     :    -0.000003
      f-3     :    -0.000004
 98 H s       :    -0.000131  s :    -0.000131
      pz      :     0.000000  p :    -0.000001
      px      :    -0.000002
      py      :     0.000001
 99 H s       :    -0.000014  s :    -0.000014
      pz      :    -0.000000  p :     0.000001
      px      :    -0.000001
      py      :     0.000002
100 H s       :     0.000060  s :     0.000060
      pz      :     0.000001  p :     0.000008
      px      :    -0.000004
      py      :     0.000012
101 C s       :    -0.000015  s :    -0.000015
      pz      :    -0.000011  p :    -0.000019
      px      :    -0.000004
      py      :    -0.000004
      dz2     :    -0.000033  d :    -0.000111
      dxz     :    -0.000060
      dyz     :    -0.000010
      dx2y2   :    -0.000006
      dxy     :    -0.000000
      f0      :    -0.000007  f :    -0.000019
      f+1     :    -0.000006
      f-1     :    -0.000001
      f+2     :    -0.000001
      f-2     :    -0.000004
      f+3     :    -0.000000
      f-3     :    -0.000000
102 H s       :    -0.000061  s :    -0.000061
      pz      :     0.000001  p :     0.000002
      px      :    -0.000000
      py      :     0.000001
103 H s       :    -0.000013  s :    -0.000013
      pz      :     0.000003  p :    -0.000001
      px      :     0.000000
      py      :    -0.000004
104 H s       :    -0.000022  s :    -0.000022
      pz      :     0.000000  p :     0.000001
      px      :     0.000000
      py      :     0.000000
105 C s       :    -0.000006  s :    -0.000006
      pz      :     0.000012  p :    -0.000140
      px      :     0.000075
      py      :    -0.000226
      dz2     :    -0.000001  d :    -0.000045
      dxz     :     0.000011
      dyz     :     0.000017
      dx2y2   :    -0.000061
      dxy     :    -0.000011
      f0      :    -0.000000  f :    -0.000020
      f+1     :    -0.000001
      f-1     :    -0.000001
      f+2     :    -0.000000
      f-2     :    -0.000004
      f+3     :    -0.000002
      f-3     :    -0.000012
106 H s       :    -0.000063  s :    -0.000063
      pz      :    -0.000001  p :    -0.000002
      px      :    -0.000001
      py      :    -0.000000
107 H s       :     0.000038  s :     0.000038
      pz      :    -0.000000  p :     0.000001
      px      :     0.000003
      py      :    -0.000002
108 H s       :     0.000037  s :     0.000037
      pz      :     0.000001  p :    -0.000003
      px      :     0.000000
      py      :    -0.000005


                      *****************************
                      * MAYER POPULATION ANALYSIS *
                      *****************************

  NA   - Mulliken gross atomic population
  ZA   - Total nuclear charge
  QA   - Mulliken gross atomic charge
  VA   - Mayer's total valence
  BVA  - Mayer's bonded valence
  FA   - Mayer's free valence

  ATOM       NA         ZA         QA         VA         BVA        FA
  0 Fe    25.4922    26.0000     0.5078     4.7625     3.8282     0.9342
  1 Fe    25.5172    26.0000     0.4828     4.7970     3.8596     0.9375
  2 Fe    25.5068    26.0000     0.4932     4.7898     3.8469     0.9429
  3 O      8.6684     8.0000    -0.6684     1.7538     1.7295     0.0243
  4 O      8.4456     8.0000    -0.4456     2.1204     2.1202     0.0001
  5 H      0.6301     1.0000     0.3699     0.8818     0.8818     0.0000
  6 H      0.6324     1.0000     0.3676     0.8864     0.8864     0.0000
  7 O      8.4357     8.0000    -0.4357     2.1151     2.1150     0.0001
  8 H      0.6290     1.0000     0.3710     0.8852     0.8852     0.0000
  9 H      0.6370     1.0000     0.3630     0.8916     0.8916     0.0000
 10 O      8.4412     8.0000    -0.4412     2.1226     2.1224     0.0001
 11 H      0.6310     1.0000     0.3690     0.8850     0.8850     0.0000
 12 H      0.6362     1.0000     0.3638     0.8913     0.8913     0.0000
 13 O      8.3274     8.0000    -0.3274     2.0469     2.0465     0.0004
 14 O      8.3661     8.0000    -0.3661     2.0582     2.0579     0.0003
 15 O      8.3501     8.0000    -0.3501     2.0984     2.0980     0.0004
 16 O      8.3306     8.0000    -0.3306     2.0933     2.0929     0.0004
 17 O      8.3726     8.0000    -0.3726     2.0425     2.0421     0.0004
 18 O      8.3953     8.0000    -0.3953     2.0843     2.0839     0.0004
 19 O      8.3410     8.0000    -0.3410     2.1152     2.1147     0.0004
 20 O      8.3132     8.0000    -0.3132     2.1128     2.1123     0.0004
 21 O      8.3532     8.0000    -0.3532     2.0521     2.0517     0.0004
 22 O      8.3814     8.0000    -0.3814     2.0694     2.0690     0.0003
 23 O      8.3743     8.0000    -0.3743     2.0897     2.0893     0.0004
 24 O      8.3094     8.0000    -0.3094     2.1188     2.1184     0.0004
 25 C      5.5352     6.0000     0.4648     4.0239     4.0238     0.0000
 26 C      5.8933     6.0000     0.1067     3.9214     3.9213     0.0000
 27 C      6.3759     6.0000    -0.3759     3.8949     3.8949     0.0000
 28 H      0.8890     1.0000     0.1110     0.9867     0.9867     0.0000
 29 H      0.8711     1.0000     0.1289     0.9756     0.9756     0.0000
 30 H      0.8558     1.0000     0.1442     0.9764     0.9764     0.0000
 31 C      6.4115     6.0000    -0.4115     3.9152     3.9152     0.0000
 32 H      0.8655     1.0000     0.1345     0.9821     0.9821     0.0000
 33 H      0.8549     1.0000     0.1451     0.9743     0.9743     0.0000
 34 H      0.8714     1.0000     0.1286     0.9809     0.9809     0.0000
 35 C      6.3798     6.0000    -0.3798     3.8970     3.8970     0.0000
 36 H      0.8840     1.0000     0.1160     0.9794     0.9794     0.0000
 37 H      0.8694     1.0000     0.1306     0.9801     0.9801     0.0000
 38 H      0.8571     1.0000     0.1429     0.9760     0.9760     0.0000
 39 C      5.5512     6.0000     0.4488     4.0246     4.0245     0.0000
 40 C      5.8812     6.0000     0.1188     3.9039     3.9039     0.0000
 41 C      6.4208     6.0000    -0.4208     3.9172     3.9172     0.0000
 42 H      0.8583     1.0000     0.1417     0.9792     0.9792     0.0000
 43 H      0.8614     1.0000     0.1386     0.9821     0.9821     0.0000
 44 H      0.8601     1.0000     0.1399     0.9757     0.9757     0.0000
 45 C      6.3831     6.0000    -0.3831     3.8958     3.8958     0.0000
 46 H      0.8846     1.0000     0.1154     0.9788     0.9788     0.0000
 47 H      0.8598     1.0000     0.1402     0.9753     0.9753     0.0000
 48 H      0.8611     1.0000     0.1389     0.9776     0.9776     0.0000
 49 C      6.3897     6.0000    -0.3897     3.8936     3.8936     0.0000
 50 H      0.8863     1.0000     0.1137     0.9783     0.9783     0.0000
 51 H      0.8524     1.0000     0.1476     0.9768     0.9768     0.0000
 52 H      0.8600     1.0000     0.1400     0.9745     0.9745     0.0000
 53 C      5.5472     6.0000     0.4528     4.0553     4.0552     0.0000
 54 C      5.9120     6.0000     0.0880     3.9737     3.9737     0.0000
 55 C      6.3900     6.0000    -0.3900     3.9023     3.9023     0.0000
 56 H      0.8560     1.0000     0.1440     0.9765     0.9765     0.0000
 57 H      0.8797     1.0000     0.1203     0.9775     0.9775     0.0000
 58 H      0.8689     1.0000     0.1311     0.9790     0.9790     0.0000
 59 C      6.3762     6.0000    -0.3762     3.9005     3.9005     0.0000
 60 H      0.8564     1.0000     0.1436     0.9751     0.9751     0.0000
 61 H      0.8858     1.0000     0.1142     0.9843     0.9843     0.0000
 62 H      0.8675     1.0000     0.1325     0.9767     0.9767     0.0000
 63 C      6.3933     6.0000    -0.3933     3.9022     3.9022     0.0000
 64 H      0.8544     1.0000     0.1456     0.9740     0.9740     0.0000
 65 H      0.8696     1.0000     0.1304     0.9761     0.9761     0.0000
 66 H      0.8760     1.0000     0.1240     0.9845     0.9845     0.0000
 67 C      5.5380     6.0000     0.4620     3.9609     3.9609     0.0000
 68 C      5.8890     6.0000     0.1110     3.9460     3.9460     0.0000
 69 C      6.4301     6.0000    -0.4301     3.9063     3.9063     0.0000
 70 H      0.8571     1.0000     0.1429     0.9737     0.9737     0.0000
 71 H      0.8730     1.0000     0.1270     0.9776     0.9776     0.0000
 72 H      0.8528     1.0000     0.1472     0.9764     0.9764     0.0000
 73 C      6.3948     6.0000    -0.3948     3.8945     3.8945     0.0000
 74 H      0.8618     1.0000     0.1382     0.9750     0.9750     0.0000
 75 H      0.8557     1.0000     0.1443     0.9785     0.9785     0.0000
 76 H      0.8812     1.0000     0.1188     0.9778     0.9778     0.0000
 77 C      6.3578     6.0000    -0.3578     3.9152     3.9152     0.0000
 78 H      0.8647     1.0000     0.1353     0.9727     0.9727     0.0000
 79 H      0.8798     1.0000     0.1202     0.9807     0.9807     0.0000
 80 H      0.8662     1.0000     0.1338     0.9805     0.9805    -0.0000
 81 C      5.5423     6.0000     0.4577     4.0321     4.0320     0.0000
 82 C      5.8864     6.0000     0.1136     3.9306     3.9306     0.0000
 83 C      6.3963     6.0000    -0.3963     3.9069     3.9069     0.0000
 84 H      0.8768     1.0000     0.1232     0.9812     0.9812     0.0000
 85 H      0.8559     1.0000     0.1441     0.9743     0.9743     0.0000
 86 H      0.8632     1.0000     0.1368     0.9787     0.9787     0.0000
 87 C      6.4016     6.0000    -0.4016     3.9015     3.9015     0.0000
 88 H      0.8607     1.0000     0.1393     0.9721     0.9721     0.0000
 89 H      0.8895     1.0000     0.1105     0.9869     0.9869     0.0000
 90 H      0.8535     1.0000     0.1465     0.9767     0.9767     0.0000
 91 C      6.3916     6.0000    -0.3916     3.8979     3.8979     0.0000
 92 H      0.8552     1.0000     0.1448     0.9765     0.9765     0.0000
 93 H      0.8757     1.0000     0.1243     0.9792     0.9792     0.0000
 94 H      0.8719     1.0000     0.1281     0.9770     0.9770     0.0000
 95 C      5.5378     6.0000     0.4622     3.9796     3.9796     0.0000
 96 C      5.9039     6.0000     0.0961     3.9807     3.9807     0.0000
 97 C      6.3924     6.0000    -0.3924     3.9018     3.9018     0.0000
 98 H      0.8596     1.0000     0.1404     0.9736     0.9736     0.0000
 99 H      0.8817     1.0000     0.1183     0.9845     0.9845     0.0000
100 H      0.8573     1.0000     0.1427     0.9774     0.9774     0.0000
101 C      6.3985     6.0000    -0.3985     3.8929     3.8929     0.0000
102 H      0.8562     1.0000     0.1438     0.9752     0.9752     0.0000
103 H      0.8735     1.0000     0.1265     0.9811     0.9811     0.0000
104 H      0.8744     1.0000     0.1256     0.9763     0.9763     0.0000
105 C      6.3519     6.0000    -0.3519     3.9138     3.9138     0.0000
106 H      0.8645     1.0000     0.1355     0.9737     0.9737     0.0000
107 H      0.8688     1.0000     0.1312     0.9801     0.9801     0.0000
108 H      0.8823     1.0000     0.1177     0.9868     0.9868     0.0000

  Mayer bond orders larger than 0.100000
B(  0-Fe,  3-O ) :   0.6282 B(  0-Fe,  4-O ) :   0.4844 B(  0-Fe, 13-O ) :   0.5796 
B(  0-Fe, 15-O ) :   0.6084 B(  0-Fe, 22-O ) :   0.5392 B(  0-Fe, 24-O ) :   0.6191 
B(  1-Fe,  3-O ) :   0.6324 B(  1-Fe,  7-O ) :   0.4949 B(  1-Fe, 14-O ) :   0.5551 
B(  1-Fe, 16-O ) :   0.6040 B(  1-Fe, 17-O ) :   0.5425 B(  1-Fe, 19-O ) :   0.6408 
B(  2-Fe,  3-O ) :   0.6155 B(  2-Fe, 10-O ) :   0.4915 B(  2-Fe, 18-O ) :   0.5444 
B(  2-Fe, 20-O ) :   0.6250 B(  2-Fe, 21-O ) :   0.5815 B(  2-Fe, 23-O ) :   0.6089 
B(  4-O ,  5-H ) :   0.8639 B(  4-O ,  6-H ) :   0.8562 B(  7-O ,  8-H ) :   0.8560 
B(  7-O ,  9-H ) :   0.8585 B( 10-O , 11-H ) :   0.8640 B( 10-O , 12-H ) :   0.8563 
B( 13-O , 25-C ) :   1.4759 B( 14-O , 25-C ) :   1.4734 B( 15-O , 39-C ) :   1.4531 
B( 16-O , 39-C ) :   1.4704 B( 17-O , 53-C ) :   1.4778 B( 18-O , 53-C ) :   1.4752 
B( 19-O , 67-C ) :   1.4336 B( 20-O , 67-C ) :   1.4656 B( 21-O , 81-C ) :   1.4726 
B( 22-O , 81-C ) :   1.4804 B( 23-O , 95-C ) :   1.4462 B( 24-O , 95-C ) :   1.4721 
B( 25-C , 26-C ) :   0.9660 B( 26-C , 27-C ) :   0.9814 B( 26-C , 31-C ) :   0.9372 
B( 26-C , 35-C ) :   0.9834 B( 27-C , 28-H ) :   0.9665 B( 27-C , 29-H ) :   0.9683 
B( 27-C , 30-H ) :   0.9655 B( 31-C , 32-H ) :   0.9672 B( 31-C , 33-H ) :   0.9627 
B( 31-C , 34-H ) :   0.9682 B( 35-C , 36-H ) :   0.9708 B( 35-C , 37-H ) :   0.9638 
B( 35-C , 38-H ) :   0.9652 B( 39-C , 40-C ) :   0.9745 B( 40-C , 41-C ) :   0.9274 
B( 40-C , 45-C ) :   0.9858 B( 40-C , 49-C ) :   0.9819 B( 41-C , 42-H ) :   0.9674 
B( 41-C , 43-H ) :   0.9690 B( 41-C , 44-H ) :   0.9622 B( 45-C , 46-H ) :   0.9696 
B( 45-C , 47-H ) :   0.9656 B( 45-C , 48-H ) :   0.9619 B( 49-C , 50-H ) :   0.9700 
B( 49-C , 51-H ) :   0.9624 B( 49-C , 52-H ) :   0.9640 B( 53-C , 54-C ) :   0.9646 
B( 54-C , 55-C ) :   0.9824 B( 54-C , 59-C ) :   0.9823 B( 54-C , 63-C ) :   0.9549 
B( 55-C , 56-H ) :   0.9638 B( 55-C , 57-H ) :   0.9698 B( 55-C , 58-H ) :   0.9650 
B( 59-C , 60-H ) :   0.9640 B( 59-C , 61-H ) :   0.9663 B( 59-C , 62-H ) :   0.9669 
B( 63-C , 64-H ) :   0.9635 B( 63-C , 65-H ) :   0.9671 B( 63-C , 66-H ) :   0.9625 
B( 67-C , 68-C ) :   0.9701 B( 68-C , 69-C ) :   0.9318 B( 68-C , 73-C ) :   0.9700 
B( 68-C , 77-C ) :   1.0167 B( 69-C , 70-H ) :   0.9615 B( 69-C , 71-H ) :   0.9683 
B( 69-C , 72-H ) :   0.9664 B( 73-C , 74-H ) :   0.9642 B( 73-C , 75-H ) :   0.9640 
B( 73-C , 76-H ) :   0.9690 B( 77-C , 78-H ) :   0.9661 B( 77-C , 79-H ) :   0.9613 
B( 77-C , 80-H ) :   0.9617 B( 81-C , 82-C ) :   0.9668 B( 82-C , 83-C ) :   0.9666 
B( 82-C , 87-C ) :   0.9516 B( 82-C , 91-C ) :   0.9847 B( 83-C , 84-H ) :   0.9689 
B( 83-C , 85-H ) :   0.9646 B( 83-C , 86-H ) :   0.9633 B( 87-C , 88-H ) :   0.9660 
B( 87-C , 89-H ) :   0.9712 B( 87-C , 90-H ) :   0.9637 B( 91-C , 92-H ) :   0.9647 
B( 91-C , 93-H ) :   0.9682 B( 91-C , 94-H ) :   0.9654 B( 95-C , 96-C ) :   0.9725 
B( 96-C , 97-C ) :   0.9766 B( 96-C ,101-C ) :   0.9432 B( 96-C ,105-C ) :   1.0177 
B( 97-C , 98-H ) :   0.9633 B( 97-C , 99-H ) :   0.9693 B( 97-C ,100-H ) :   0.9600 
B(101-C ,102-H ) :   0.9624 B(101-C ,103-H ) :   0.9692 B(101-C ,104-H ) :   0.9677 
B(105-C ,106-H ) :   0.9667 B(105-C ,107-H ) :   0.9558 B(105-C ,108-H ) :   0.9647 


-------
TIMINGS
-------

Total SCF time: 0 days 0 hours 32 min 12 sec 

Total time                  ....    1932.235 sec
Sum of individual times     ....    1868.911 sec  ( 96.7%)

Fock matrix formation       ....    1645.806 sec  ( 85.2%)
  Split-RI-J                ....     307.402 sec  ( 18.7% of F)
  Chain of spheres X        ....    1214.579 sec  ( 73.8% of F)
  XC integration            ....     104.263 sec  (  6.3% of F)
    Basis function eval.    ....       6.518 sec  (  6.3% of XC)
    Density eval.           ....      35.138 sec  ( 33.7% of XC)
    XC-Functional eval.     ....       0.594 sec  (  0.6% of XC)
    XC-Potential eval.      ....      27.775 sec  ( 26.6% of XC)
Diagonalization             ....      33.396 sec  (  1.7%)
Density matrix formation    ....      20.255 sec  (  1.0%)
Population analysis         ....       4.007 sec  (  0.2%)
Initial guess               ....       2.775 sec  (  0.1%)
Orbital Transformation      ....     120.886 sec  (  6.3%)
Orbital Orthonormalization  ....       0.000 sec  (  0.0%)
DIIS solution               ....      32.537 sec  (  1.7%)
Grid generation             ....       8.987 sec  (  0.5%)

Maximum memory used throughout the entire SCF-calculation: 922.1 MB

-------------------------   --------------------
FINAL SINGLE POINT ENERGY     -6171.959509284668
-------------------------   --------------------


                            ***************************************
                            *     ORCA property calculations      *
                            ***************************************

                                    ---------------------
                                    Active property flags
                                    ---------------------
   (+) Dipole Moment


------------------------------------------------------------------------------
                       ORCA ELECTRIC PROPERTIES CALCULATION
------------------------------------------------------------------------------

Dipole Moment Calculation                       ... on
Quadrupole Moment Calculation                   ... off
Polarizability Calculation                      ... off
GBWName                                         ... Fe3_O_piv_6_H2O_3_LowSpin.gbw
Electron density                                ... Fe3_O_piv_6_H2O_3_LowSpin.scfp
The origin for moment calculation is the CENTER OF MASS  = (21.530926,  7.823335 45.370408)

-------------
DIPOLE MOMENT
-------------
                                X             Y             Z
Electronic contribution:      0.18310      -0.50392      -0.76030
Nuclear contribution   :      1.02913       1.55603       1.12053
                        -----------------------------------------
Total Dipole Moment    :      1.21222       1.05211       0.36023
                        -----------------------------------------
Magnitude (a.u.)       :      1.64505
Magnitude (Debye)      :      4.18138



--------------------
Rotational spectrum 
--------------------
 
Rotational constants in cm-1:     0.002002     0.001961     0.001944 
Rotational constants in MHz :    60.008047    58.802724    58.285497 

 Dipole components along the rotational axes: 
x,y,z [a.u.] :     1.610717    -0.068505    -0.327232 
x,y,z [Debye]:     4.094118    -0.174125    -0.831758 

 

Timings for individual modules:

Sum of individual times         ...     1962.256 sec (=  32.704 min)
GTO integral calculation        ...       20.140 sec (=   0.336 min)   1.0 %
SCF iterations                  ...     1942.115 sec (=  32.369 min)  99.0 %
                             ****ORCA TERMINATED NORMALLY****
TOTAL RUN TIME: 0 days 0 hours 32 minutes 57 seconds 671 msec
