
                                 *****************
                                 * O   R   C   A *
                                 *****************

                                            #,                                       
                                            ###                                      
                                            ####                                     
                                            #####                                    
                                            ######                                   
                                           ########,                                 
                                     ,,################,,,,,                         
                               ,,#################################,,                 
                          ,,##########################################,,             
                       ,#########################################, ''#####,          
                    ,#############################################,,   '####,        
                  ,##################################################,,,,####,       
                ,###########''''           ''''###############################       
              ,#####''   ,,,,##########,,,,          '''####'''          '####       
            ,##' ,,,,###########################,,,                        '##       
           ' ,,###''''                  '''############,,,                           
         ,,##''                                '''############,,,,        ,,,,,,###''
      ,#''                                            '''#######################'''  
     '                                                          ''''####''''         
             ,#######,   #######,   ,#######,      ##                                
            ,#'     '#,  ##    ##  ,#'     '#,    #''#        ######   ,####,        
            ##       ##  ##   ,#'  ##            #'  '#       #        #'  '#        
            ##       ##  #######   ##           ,######,      #####,   #    #        
            '#,     ,#'  ##    ##  '#,     ,#' ,#      #,         ##   #,  ,#        
             '#######'   ##     ##  '#######'  #'      '#     #####' # '####'        



                  #######################################################
                  #                        -***-                        #
                  #          Department of theory and spectroscopy      #
                  #    Directorship and core code : Frank Neese         #
                  #        Max Planck Institute fuer Kohlenforschung    #
                  #                Kaiser Wilhelm Platz 1               #
                  #                 D-45470 Muelheim/Ruhr               #
                  #                      Germany                        #
                  #                                                     #
                  #                  All rights reserved                #
                  #                        -***-                        #
                  #######################################################


                         Program Version 5.0.3 -  RELEASE  -


 With contributions from (in alphabetic order):
   Daniel Aravena         : Magnetic Suceptibility
   Michael Atanasov       : Ab Initio Ligand Field Theory (pilot matlab implementation)
   Alexander A. Auer      : GIAO ZORA, VPT2 properties, NMR spectrum
   Ute Becker             : Parallelization
   Giovanni Bistoni       : ED, misc. LED, open-shell LED, HFLD
   Martin Brehm           : Molecular dynamics
   Dmytro Bykov           : SCF Hessian
   Vijay G. Chilkuri      : MRCI spin determinant printing, contributions to CSF-ICE
   Dipayan Datta          : RHF DLPNO-CCSD density
   Achintya Kumar Dutta   : EOM-CC, STEOM-CC
   Dmitry Ganyushin       : Spin-Orbit,Spin-Spin,Magnetic field MRCI
   Miquel Garcia          : C-PCM and meta-GGA Hessian, CC/C-PCM, Gaussian charge scheme
   Yang Guo               : DLPNO-NEVPT2, F12-NEVPT2, CIM, IAO-localization
   Andreas Hansen         : Spin unrestricted coupled pair/coupled cluster methods
   Benjamin Helmich-Paris : MC-RPA, TRAH-SCF, COSX integrals
   Lee Huntington         : MR-EOM, pCC
   Robert Izsak           : Overlap fitted RIJCOSX, COSX-SCS-MP3, EOM
   Marcus Kettner         : VPT2
   Christian Kollmar      : KDIIS, OOCD, Brueckner-CCSD(T), CCSD density, CASPT2, CASPT2-K
   Simone Kossmann        : Meta GGA functionals, TD-DFT gradient, OOMP2, MP2 Hessian
   Martin Krupicka        : Initial AUTO-CI
   Lucas Lang             : DCDCAS
   Marvin Lechner         : AUTO-CI (C++ implementation), FIC-MRCC
   Dagmar Lenk            : GEPOL surface, SMD
   Dimitrios Liakos       : Extrapolation schemes; Compound Job, initial MDCI parallelization
   Dimitrios Manganas     : Further ROCIS development; embedding schemes
   Dimitrios Pantazis     : SARC Basis sets
   Anastasios Papadopoulos: AUTO-CI, single reference methods and gradients
   Taras Petrenko         : DFT Hessian,TD-DFT gradient, ASA, ECA, R-Raman, ABS, FL, XAS/XES, NRVS
   Peter Pinski           : DLPNO-MP2, DLPNO-MP2 Gradient
   Christoph Reimann      : Effective Core Potentials
   Marius Retegan         : Local ZFS, SOC
   Christoph Riplinger    : Optimizer, TS searches, QM/MM, DLPNO-CCSD(T), (RO)-DLPNO pert. Triples
   Tobias Risthaus        : Range-separated hybrids, TD-DFT gradient, RPA, STAB
   Michael Roemelt        : Original ROCIS implementation
   Masaaki Saitow         : Open-shell DLPNO-CCSD energy and density
   Barbara Sandhoefer     : DKH picture change effects
   Avijit Sen             : IP-ROCIS
   Kantharuban Sivalingam : CASSCF convergence, NEVPT2, FIC-MRCI
   Bernardo de Souza      : ESD, SOC TD-DFT
   Georgi Stoychev        : AutoAux, RI-MP2 NMR, DLPNO-MP2 response
   Willem Van den Heuvel  : Paramagnetic NMR
   Boris Wezisla          : Elementary symmetry handling
   Frank Wennmohs         : Technical directorship


 We gratefully acknowledge several colleagues who have allowed us to
 interface, adapt or use parts of their codes:
   Stefan Grimme, W. Hujo, H. Kruse, P. Pracht,  : VdW corrections, initial TS optimization,
                  C. Bannwarth, S. Ehlert          DFT functionals, gCP, sTDA/sTD-DF
   Ed Valeev, F. Pavosevic, A. Kumar             : LibInt (2-el integral package), F12 methods
   Garnet Chan, S. Sharma, J. Yang, R. Olivares  : DMRG
   Ulf Ekstrom                                   : XCFun DFT Library
   Mihaly Kallay                                 : mrcc  (arbitrary order and MRCC methods)
   Jiri Pittner, Ondrej Demel                    : Mk-CCSD
   Frank Weinhold                                : gennbo (NPA and NBO analysis)
   Christopher J. Cramer and Donald G. Truhlar   : smd solvation model
   Lars Goerigk                                  : TD-DFT with DH, B97 family of functionals
   V. Asgeirsson, H. Jonsson                     : NEB implementation
   FAccTs GmbH                                   : IRC, NEB, NEB-TS, DLPNO-Multilevel, CI-OPT
                                                   MM, QMMM, 2- and 3-layer-ONIOM, Crystal-QMMM,
                                                   LR-CPCM, SF, NACMEs, symmetry and pop. for TD-DFT,
                                                   nearIR, NL-DFT gradient (VV10), updates on ESD,
                                                   ML-optimized integration grids
   S Lehtola, MJT Oliveira, MAL Marques          : LibXC Library
   Liviu Ungur et al                             : ANISO software


 Your calculation uses the libint2 library for the computation of 2-el integrals
 For citations please refer to: http://libint.valeyev.net

 Your ORCA version has been built with support for libXC version: 5.1.0
 For citations please refer to: https://tddft.org/programs/libxc/

 This ORCA versions uses:
   CBLAS   interface :  Fast vector & matrix operations
   LAPACKE interface :  Fast linear algebra routines
   SCALAPACK package :  Parallel linear algebra routines
   Shared memory     :  Shared parallel matrices
   BLAS/LAPACK       :  OpenBLAS 0.3.15  USE64BITINT DYNAMIC_ARCH NO_AFFINITY Zen SINGLE_THREADED
        Core in use  :  Zen
   Copyright (c) 2011-2014, The OpenBLAS Project


================================================================================

----- Orbital basis set information -----
Your calculation utilizes the basis: def2-TZVP
   F. Weigend and R. Ahlrichs, Phys. Chem. Chem. Phys. 7, 3297 (2005).

----- AuxJ basis set information -----
Your calculation utilizes the auxiliary basis: def2/J
   F. Weigend, Phys. Chem. Chem. Phys. 8, 1057 (2006).

================================================================================
                                        WARNINGS
                       Please study these warnings very carefully!
================================================================================


WARNING: your system is open-shell and RHF/RKS was chosen
  ===> : WILL SWITCH to UHF/UKS


INFO   : the flag for use of the SHARK integral package has been found!

================================================================================
                                       INPUT FILE
================================================================================
NAME = Fe3_O_piv_6_H2O_3_HighSpin.inp
|  1> ! PBE0 def2-TZVP
|  2> %pal nprocs 32 end
|  3> %maxcore 3000
|  4> 
|  5> * xyz 1 16
|  6>   Fe  12.51580855333414      2.88403168619080     24.91624293022003
|  7>   Fe  11.60275598719965      4.32214639943877     22.09293082892330
|  8>   Fe  10.16355260919785      5.18940754557936     24.93389204689304
|  9>   O   11.41812777199648      4.12520527014844     23.97644367605020
| 10>   O   13.83654550063193      1.46143428198198     25.87263249420692
| 11>   H   14.02088265657847      0.76262839865441     25.23360327684224
| 12>   H   14.67835581199560      1.87825801914147     26.08905060942523
| 13>   O   11.72799141719266      4.68322307321109     19.96015818651361
| 14>   H   11.71951266259791      5.64341033355607     19.85970012679448
| 15>   H   10.93460199519731      4.34959836849221     19.52617293208558
| 16>   O   8.74800089787680      6.32944181185136     26.11825872835422
| 17>   H   8.37925200225604      5.72273047376417     26.77183647247276
| 18>   H   9.21135590650167      7.01971458560793     26.60564664776648
| 19>   O   14.22941626829677      3.56730629109252     24.05738852160604
| 20>   O   13.58309254927838      4.51504268495859     22.15012277572739
| 21>   O   12.43165966049885      1.40888193294527     23.54056876204164
| 22>   O   11.73402961617247      2.37181408845474     21.66044598043220
| 23>   O   11.45939721039227      6.36328281295201     22.07886948012195
| 24>   O   10.57788535664169      6.92316689435624     24.04361588788639
| 25>   O   9.61380970031718      4.21031589068399     21.73122108201669
| 26>   O   8.67151110242603      4.81176481387869     23.65665615215103
| 27>   O   11.46978340507133      5.72122059022535     26.40477658040868
| 28>   O   12.94380970777123      4.05577386820541     26.48117712922393
| 29>   O   9.49090792579554      3.69972130991925     26.12913377328490
| 30>   O   10.98187949078931      2.06214544835438     25.90456640264091
| 31>   C   14.45475672439291      4.23653692136795     23.01730720690603
| 32>   C   15.86230781532453      4.77204932645144     22.77445531339533
| 33>   C   16.32698720395994      4.31544122782150     21.38949281176374
| 34>   H   15.64195250073956      4.65286190796892     20.61156739175980
| 35>   H   16.40215157284261      3.22651785996125     21.33365688849199
| 36>   H   17.31664595911523      4.72908549568926     21.18384989422879
| 37>   C   15.77188986663456      6.30247401857367     22.80695995210445
| 38>   H   15.07707117659443      6.66946778231373     22.05053126671055
| 39>   H   16.75763015585430      6.72781053416618     22.60619766888594
| 40>   H   15.44461926039623      6.66239181066919     23.78610808765363
| 41>   C   16.83188631652137      4.28459143487441     23.84222916711062
| 42>   H   16.91264645212384      3.19580191702880     23.84150545562731
| 43>   H   16.52383192184307      4.60301406090390     24.83956245876750
| 44>   H   17.82541046175607      4.69360546238596     23.64650992435987
| 45>   C   12.09202095339792      1.36776727544581     22.32632277410768
| 46>   C   12.06934816145722      0.00396336538004     21.64554783001531
| 47>   C   10.71522393460997     -0.62369310527787     22.00752210304449
| 48>   H   9.88644232194376     -0.01842309812812     21.63344929433530
| 49>   H   10.60813272962732     -0.73528979878282     23.08847728717674
| 50>   H   10.64223515680936     -1.61422042835216     21.55304797883684
| 51>   C   13.20030763895133     -0.87251155188780     22.17786998406990
| 52>   H   14.17824177407157     -0.42677578437285     21.97923729193879
| 53>   H   13.17213950589104     -1.84463426606229     21.68149178665637
| 54>   H   13.10406670232171     -1.04048545116636     23.25107105430819
| 55>   C   12.18599426773962      0.15430301767390     20.13295686750315
| 56>   H   13.12404366584543      0.63725720655430     19.85080370095654
| 57>   H   11.36646966896389      0.74681406862575     19.72663697750703
| 58>   H   12.16032990626703     -0.83232683411797     19.66551572712422
| 59>   C   11.06877097914174      7.21333761954643     22.91940211845455
| 60>   C   11.17494075941568      8.69577638206376     22.57621908603697
| 61>   C   11.85936699838155      8.90611109416381     21.23241352731629
| 62>   H   11.94752807534097      9.97593034565793     21.03211286753245
| 63>   H   11.28537825896604      8.46255271654541     20.41617124385236
| 64>   H   12.86239781171988      8.47612798992927     21.22092045934276
| 65>   C   9.75060147874265      9.26093897753466     22.53443524511824
| 66>   H   9.78935460800300     10.32758870658954     22.30331036703504
| 67>   H   9.24595407246772      9.13372664062780     23.49274523710055
| 68>   H   9.15125743997280      8.77295722864873     21.76138704180636
| 69>   C   11.97379547925344      9.38674984700719     23.68497439726232
| 70>   H   12.02475355062850     10.45868202622768     23.48253859962788
| 71>   H   12.99730436594063      9.00631188228615     23.73312357448975
| 72>   H   11.50538425037843      9.23991455298866     24.65827252409198
| 73>   C   8.60981010376364      4.39537215784424     22.47242714902757
| 74>   C   7.23955047799463      4.06723488360388     21.88754576713183
| 75>   C   7.18637928197693      2.54459078121004     21.70708066813431
| 76>   H   6.22802315210373      2.26474718507088     21.26415658472581
| 77>   H   7.27507666214723      2.02809083966620     22.66614224873939
| 78>   H   7.98498842227068      2.19703441331888     21.04963239516718
| 79>   C   7.10074261812230      4.75200522848106     20.52697058666813
| 80>   H   6.12972791858041      4.50408730559306     20.09334961147662
| 81>   H   7.87605954715698      4.42237782935285     19.83460638835954
| 82>   H   7.15685406593197      5.83944204327829     20.62034160680169
| 83>   C   6.12323215648636      4.52042475509714     22.81882230546910
| 84>   H   5.15675771343755      4.26995000831661     22.37597036219365
| 85>   H   6.15279056879916      5.59870244057380     22.98480236677161
| 86>   H   6.19003689988226      4.03089511479104     23.79115442198649
| 87>   C   12.47266879195527      5.14637654146992     26.90086020320233
| 88>   C   13.12797789714557      5.78651100077421     28.12094331947698
| 89>   C   13.11085496698070      7.30757064554316     27.99008622530507
| 90>   H   13.68193759112112      7.63988416138936     27.11987760352618
| 91>   H   13.56113742071199      7.75550192742551     28.87836993100480
| 92>   H   12.09442378280027      7.68877125268720     27.89284011481065
| 93>   C   12.28196420215828      5.35939179291373     29.32909703926969
| 94>   H   12.26978432736143      4.27271797378762     29.44123848092094
| 95>   H   11.25271254469064      5.71281017144694     29.23797920168350
| 96>   H   12.70700533074074      5.78705561968955     30.23982522152606
| 97>   C   14.55797654545936      5.28823414889809     28.29598781125622
| 98>   H   15.00442663680025      5.76309064852574     29.17222301787140
| 99>   H   15.17537050204248      5.53372558334239     27.42899210314281
|100>   H   14.58936199036599      4.20831379206728     28.44209983759377
|101>   C   9.89539823250884      2.52175498364417     26.33683153810340
|102>   C   8.98235967368389      1.58564061251022     27.12033699649103
|103>   C   7.98076744737727      1.02546055038630     26.09927441553236
|104>   H   7.28607420658639      0.35270176059794     26.60690717375983
|105>   H   8.49040884038429      0.45787851034557     25.31719935550316
|106>   H   7.40246872802675      1.82594572365906     25.63305315066467
|107>   C   8.23402828935255      2.35794092005281     28.20440401470087
|108>   H   7.59322099099648      1.67204433507731     28.76229836853729
|109>   H   7.60162030966650      3.13678745565119     27.77720540771571
|110>   H   8.92406800776097      2.82067039053188     28.91458800119019
|111>   C   9.78010816638728      0.44447650897798     27.74046939573173
|112>   H   9.10131745362964     -0.22710862333913     28.27044204261625
|113>   H   10.51615148951183      0.81440885767647     28.45764158381950
|114>   H   10.31066137477955     -0.13081849110087     26.98216406388046
|115> *
|116> 
|117>                          ****END OF INPUT****
================================================================================

                       ****************************
                       * Single Point Calculation *
                       ****************************

---------------------------------
CARTESIAN COORDINATES (ANGSTROEM)
---------------------------------
  Fe    12.515809    2.884032   24.916243
  Fe    11.602756    4.322146   22.092931
  Fe    10.163553    5.189408   24.933892
  O     11.418128    4.125205   23.976444
  O     13.836546    1.461434   25.872632
  H     14.020883    0.762628   25.233603
  H     14.678356    1.878258   26.089051
  O     11.727991    4.683223   19.960158
  H     11.719513    5.643410   19.859700
  H     10.934602    4.349598   19.526173
  O      8.748001    6.329442   26.118259
  H      8.379252    5.722730   26.771836
  H      9.211356    7.019715   26.605647
  O     14.229416    3.567306   24.057389
  O     13.583093    4.515043   22.150123
  O     12.431660    1.408882   23.540569
  O     11.734030    2.371814   21.660446
  O     11.459397    6.363283   22.078869
  O     10.577885    6.923167   24.043616
  O      9.613810    4.210316   21.731221
  O      8.671511    4.811765   23.656656
  O     11.469783    5.721221   26.404777
  O     12.943810    4.055774   26.481177
  O      9.490908    3.699721   26.129134
  O     10.981879    2.062145   25.904566
  C     14.454757    4.236537   23.017307
  C     15.862308    4.772049   22.774455
  C     16.326987    4.315441   21.389493
  H     15.641953    4.652862   20.611567
  H     16.402152    3.226518   21.333657
  H     17.316646    4.729085   21.183850
  C     15.771890    6.302474   22.806960
  H     15.077071    6.669468   22.050531
  H     16.757630    6.727811   22.606198
  H     15.444619    6.662392   23.786108
  C     16.831886    4.284591   23.842229
  H     16.912646    3.195802   23.841505
  H     16.523832    4.603014   24.839562
  H     17.825410    4.693605   23.646510
  C     12.092021    1.367767   22.326323
  C     12.069348    0.003963   21.645548
  C     10.715224   -0.623693   22.007522
  H      9.886442   -0.018423   21.633449
  H     10.608133   -0.735290   23.088477
  H     10.642235   -1.614220   21.553048
  C     13.200308   -0.872512   22.177870
  H     14.178242   -0.426776   21.979237
  H     13.172140   -1.844634   21.681492
  H     13.104067   -1.040485   23.251071
  C     12.185994    0.154303   20.132957
  H     13.124044    0.637257   19.850804
  H     11.366470    0.746814   19.726637
  H     12.160330   -0.832327   19.665516
  C     11.068771    7.213338   22.919402
  C     11.174941    8.695776   22.576219
  C     11.859367    8.906111   21.232414
  H     11.947528    9.975930   21.032113
  H     11.285378    8.462553   20.416171
  H     12.862398    8.476128   21.220920
  C      9.750601    9.260939   22.534435
  H      9.789355   10.327589   22.303310
  H      9.245954    9.133727   23.492745
  H      9.151257    8.772957   21.761387
  C     11.973795    9.386750   23.684974
  H     12.024754   10.458682   23.482539
  H     12.997304    9.006312   23.733124
  H     11.505384    9.239915   24.658273
  C      8.609810    4.395372   22.472427
  C      7.239550    4.067235   21.887546
  C      7.186379    2.544591   21.707081
  H      6.228023    2.264747   21.264157
  H      7.275077    2.028091   22.666142
  H      7.984988    2.197034   21.049632
  C      7.100743    4.752005   20.526971
  H      6.129728    4.504087   20.093350
  H      7.876060    4.422378   19.834606
  H      7.156854    5.839442   20.620342
  C      6.123232    4.520425   22.818822
  H      5.156758    4.269950   22.375970
  H      6.152791    5.598702   22.984802
  H      6.190037    4.030895   23.791154
  C     12.472669    5.146377   26.900860
  C     13.127978    5.786511   28.120943
  C     13.110855    7.307571   27.990086
  H     13.681938    7.639884   27.119878
  H     13.561137    7.755502   28.878370
  H     12.094424    7.688771   27.892840
  C     12.281964    5.359392   29.329097
  H     12.269784    4.272718   29.441238
  H     11.252713    5.712810   29.237979
  H     12.707005    5.787056   30.239825
  C     14.557977    5.288234   28.295988
  H     15.004427    5.763091   29.172223
  H     15.175371    5.533726   27.428992
  H     14.589362    4.208314   28.442100
  C      9.895398    2.521755   26.336832
  C      8.982360    1.585641   27.120337
  C      7.980767    1.025461   26.099274
  H      7.286074    0.352702   26.606907
  H      8.490409    0.457879   25.317199
  H      7.402469    1.825946   25.633053
  C      8.234028    2.357941   28.204404
  H      7.593221    1.672044   28.762298
  H      7.601620    3.136787   27.777205
  H      8.924068    2.820670   28.914588
  C      9.780108    0.444477   27.740469
  H      9.101317   -0.227109   28.270442
  H     10.516151    0.814409   28.457642
  H     10.310661   -0.130818   26.982164

----------------------------
CARTESIAN COORDINATES (A.U.)
----------------------------
  NO LB      ZA    FRAG     MASS         X           Y           Z
   0 Fe   26.0000    0    55.850   23.651451    5.450030   47.084875
   1 Fe   26.0000    0    55.850   21.926031    8.167673   41.749589
   2 Fe   26.0000    0    55.850   19.206331    9.806559   47.118227
   3 O     8.0000    0    15.999   21.577134    7.795508   45.308912
   4 O     8.0000    0    15.999   26.147282    2.761711   48.892190
   5 H     1.0000    0     1.008   26.495628    1.441159   47.684600
   6 H     1.0000    0     1.008   27.738073    3.549393   49.301161
   7 O     8.0000    0    15.999   22.162692    8.850009   37.719233
   8 H     1.0000    0     1.008   22.146669   10.664500   37.529394
   9 H     1.0000    0     1.008   20.663403    8.219550   36.899119
  10 O     8.0000    0    15.999   16.531326   11.960912   49.356356
  11 H     1.0000    0     1.008   15.834491   10.814393   50.591439
  12 H     1.0000    0     1.008   17.406940   13.265338   50.277386
  13 O     8.0000    0    15.999   26.889700    6.741232   45.461876
  14 O     8.0000    0    15.999   25.668325    8.532194   41.857666
  15 O     8.0000    0    15.999   23.492432    2.662401   44.485228
  16 O     8.0000    0    15.999   22.174102    4.482079   40.932311
  17 O     8.0000    0    15.999   21.655122   12.024862   41.723017
  18 O     8.0000    0    15.999   19.989306   13.082889   45.435849
  19 O     8.0000    0    15.999   18.167467    7.956344   41.066056
  20 O     8.0000    0    15.999   16.386781    9.092918   44.704601
  21 O     8.0000    0    15.999   21.674749   10.811540   49.897796
  22 O     8.0000    0    15.999   24.460255    7.664302   50.042172
  23 O     8.0000    0    15.999   17.935217    6.991460   49.376907
  24 O     8.0000    0    15.999   20.752745    3.896890   48.952536
  25 C     6.0000    0    12.011   27.315532    8.005895   43.496407
  26 C     6.0000    0    12.011   29.975418    9.017866   43.037483
  27 C     6.0000    0    12.011   30.853534    8.155002   40.420284
  28 H     1.0000    0     1.008   29.559006    8.792635   38.950218
  29 H     1.0000    0     1.008   30.995574    6.097235   40.314769
  30 H     1.0000    0     1.008   32.723718    8.936676   40.031675
  31 C     6.0000    0    12.011   29.804552   11.909950   43.098908
  32 H     1.0000    0     1.008   28.491535   12.603468   41.669465
  33 H     1.0000    0     1.008   31.667332   12.713719   42.719523
  34 H     1.0000    0     1.008   29.186101   12.590096   44.949230
  35 C     6.0000    0    12.011   31.807655    8.096704   45.055284
  36 H     1.0000    0     1.008   31.960270    6.039190   45.053916
  37 H     1.0000    0     1.008   31.225517    8.698436   46.939970
  38 H     1.0000    0     1.008   33.685144    8.869629   44.685428
  39 C     6.0000    0    12.011   22.850608    2.584706   42.190636
  40 C     6.0000    0    12.011   22.807763    0.007490   40.904157
  41 C     6.0000    0    12.011   20.248839   -1.178609   41.588190
  42 H     1.0000    0     1.008   18.682668   -0.034815   40.881294
  43 H     1.0000    0     1.008   20.046466   -1.389496   43.630899
  44 H     1.0000    0     1.008   20.110910   -3.050435   40.729358
  45 C     6.0000    0    12.011   24.944966   -1.648808   41.910101
  46 H     1.0000    0     1.008   26.792994   -0.806489   41.534739
  47 H     1.0000    0     1.008   24.891736   -3.485854   40.972082
  48 H     1.0000    0     1.008   24.763097   -1.966233   43.938157
  49 C     6.0000    0    12.011   23.028192    0.291590   38.045775
  50 H     1.0000    0     1.008   24.800848    1.204242   37.512583
  51 H     1.0000    0     1.008   21.479515    1.411274   37.277941
  52 H     1.0000    0     1.008   22.979693   -1.572870   37.162439
  53 C     6.0000    0    12.011   20.916946   13.631233   43.311393
  54 C     6.0000    0    12.011   21.117578   16.432636   42.662871
  55 C     6.0000    0    12.011   22.410956   16.830111   40.123447
  56 H     1.0000    0     1.008   22.577556   18.851776   39.744933
  57 H     1.0000    0     1.008   21.326274   15.991907   38.580972
  58 H     1.0000    0     1.008   24.306409   16.017561   40.101728
  59 C     6.0000    0    12.011   18.425966   17.500638   42.583911
  60 H     1.0000    0     1.008   18.499199   19.516314   42.147148
  61 H     1.0000    0     1.008   17.472321   17.260242   44.394855
  62 H     1.0000    0     1.008   17.293370   16.578487   41.123062
  63 C     6.0000    0    12.011   22.627194   17.738386   44.758115
  64 H     1.0000    0     1.008   22.723491   19.764045   44.375567
  65 H     1.0000    0     1.008   24.561346   17.019463   44.849104
  66 H     1.0000    0     1.008   21.742025   17.460908   46.597382
  67 C     6.0000    0    12.011   16.270183    8.306050   42.466733
  68 C     6.0000    0    12.011   13.680768    7.685960   41.361467
  69 C     6.0000    0    12.011   13.580289    4.808580   41.020438
  70 H     1.0000    0     1.008   11.769258    4.279752   40.183432
  71 H     1.0000    0     1.008   13.747902    3.832536   42.832801
  72 H     1.0000    0     1.008   15.089441    4.151793   39.778040
  73 C     6.0000    0    12.011   13.418459    8.979988   38.790353
  74 H     1.0000    0     1.008   11.583507    8.511491   37.970928
  75 H     1.0000    0     1.008   14.883596    8.357083   37.481974
  76 H     1.0000    0     1.008   13.524494   11.034946   38.966798
  77 C     6.0000    0    12.011   11.571232    8.542365   43.121325
  78 H     1.0000    0     1.008    9.744860    8.069036   42.284456
  79 H     1.0000    0     1.008   11.627089   10.580014   43.434982
  80 H     1.0000    0     1.008   11.697474    7.617288   44.958766
  81 C     6.0000    0    12.011   23.569928    9.725242   50.835259
  82 C     6.0000    0    12.011   24.808283   10.934921   53.140882
  83 C     6.0000    0    12.011   24.775925   13.809307   52.893597
  84 H     1.0000    0     1.008   25.855115   14.437289   51.249141
  85 H     1.0000    0     1.008   25.626836   14.655775   54.572210
  86 H     1.0000    0     1.008   22.855149   14.529672   52.709829
  87 C     6.0000    0    12.011   23.209549   10.127783   55.423961
  88 H     1.0000    0     1.008   23.186532    8.074267   55.635878
  89 H     1.0000    0     1.008   21.264545   10.795647   55.251773
  90 H     1.0000    0     1.008   24.012760   10.935950   57.144988
  91 C     6.0000    0    12.011   27.510589    9.993314   53.471668
  92 H     1.0000    0     1.008   28.354257   10.890663   55.127512
  93 H     1.0000    0     1.008   28.677294   10.457226   51.833283
  94 H     1.0000    0     1.008   27.569899    7.952561   53.747779
  95 C     6.0000    0    12.011   18.699593    4.765426   49.769399
  96 C     6.0000    0    12.011   16.974200    2.996427   51.250010
  97 C     6.0000    0    12.011   15.081465    1.937840   49.320481
  98 H     1.0000    0     1.008   13.768685    0.666510   50.279768
  99 H     1.0000    0     1.008   16.044547    0.865265   47.842573
 100 H     1.0000    0     1.008   13.988639    3.450537   48.439450
 101 C     6.0000    0    12.011   15.560058    4.455863   53.298599
 102 H     1.0000    0     1.008   14.349108    3.159706   54.352867
 103 H     1.0000    0     1.008   14.364981    5.927669   52.491311
 104 H     1.0000    0     1.008   16.864045    5.330295   54.640653
 105 C     6.0000    0    12.011   18.481726    0.839939   52.421890
 106 H     1.0000    0     1.008   17.198997   -0.429173   53.423393
 107 H     1.0000    0     1.008   19.872646    1.539010   53.777149
 108 H     1.0000    0     1.008   19.484326   -0.247211   50.988901

--------------------------------
INTERNAL COORDINATES (ANGSTROEM)
--------------------------------
 Fe     0   0   0     0.000000000000     0.00000000     0.00000000
 Fe     1   0   0     3.297412643015     0.00000000     0.00000000
 Fe     1   2   0     3.293657142311    60.10334748     0.00000000
 O      2   1   3     1.902759583223    30.02207416   359.29319679
 O      1   2   3     2.163980234781   146.52509830   181.94527671
 H      5   1   2     0.964711454416   107.46147277   328.50084460
 H      5   1   2     0.963962358587   110.36184757    85.03213757
 O      2   1   3     2.166743967680   154.08864547   176.80624620
 H      8   2   1     0.965465320957   105.52425481   227.48457205
 H      8   2   1     0.963906333413   109.75044680   112.66936043
 O      3   1   2     2.169375304518   146.80029400   179.24962045
 H     11   3   1     0.965006872199   106.78027491   320.60142116
 H     11   3   1     0.963701899031   109.80296006    76.20920704
 O      1   2   3     2.034931566829    74.05952275   232.66634649
 O      2   1   3     1.990530782192    75.05936591   127.85615408
 O      1   2   3     2.018818279999    73.95995993   138.40077275
 O      2   1   3     2.002016991213    75.04461815   224.12393186
 O      2   1   3     2.046212921225   117.40878227    47.61927412
 O      3   1   2     1.992532244249   117.26709156   308.16059317
 O      2   1   3     2.024659807424   113.63391854   305.58341222
 O      3   1   2     2.000033355110   113.40314056    53.51926815
 O      3   1   2     2.037784413887    74.26103026   229.08507860
 O      1   2   3     2.001295524535   118.25495853   310.62694758
 O      3   1   2     2.024899685252    74.06573020   135.78138820
 O      1   2   3     2.001304235493   112.93654170    55.09625704
 C     14   1   2     1.257146411060   132.75546277     3.79493958
 C     26  14   1     1.525434578002   118.94632844   170.39391982
 C     27  26  14     1.530535534015   108.63099668   126.19061591
 H     28  27  26     1.090088629009   111.26136268    57.58143434
 H     28  27  26     1.092941642426   111.36720485   296.55941308
 H     28  27  26     1.092160721473   109.42074906   177.50290820
 C     27  26  14     1.533437868073   107.01269863   244.39846565
 H     32  27  26     1.090707014161   111.01876271   301.33658735
 H     32  27  26     1.092199873490   109.36304078   181.71025510
 H     32  27  26     1.093333406662   111.41863527    62.57194630
 C     27  26  14     1.522444964103   111.32037851     4.63765849
 H     36  27  26     1.091780810159   111.46591808    61.41606620
 H     36  27  26     1.091313050181   111.57775380   300.31357335
 H     36  27  26     1.092102890688   109.49740989   180.63376741
 C     17   2   1     1.256845139465   133.03664391   356.42599224
 C     40  17   2     1.524444057717   118.28457332   180.36977698
 C     41  40  17     1.535783331472   105.87153958   265.21718544
 H     42  41  40     1.092319188362   111.21164807    61.31198046
 H     42  41  40     1.091964494976   111.19579311   299.97479764
 H     42  41  40     1.092253848250   109.35836339   180.52328167
 C     41  40  17     1.526644849345   110.29706802   146.66179376
 H     46  41  40     1.092927487741   111.42913027   299.03523350
 H     46  41  40     1.091882470782   109.48260048   180.03803857
 H     46  41  40     1.090521932784   111.48162601    60.67833512
 C     41  40  17     1.524512953384   110.71496303    24.37545683
 H     50  41  40     1.092150095562   111.44770723    60.97867767
 H     50  41  40     1.089855846663   111.46804725   300.22233152
 H     50  41  40     1.092061510912   109.49933114   180.41359417
 C     18   2   1     1.257647463663   133.74102469   322.63140649
 C     54  18   2     1.525343010800   119.00660600   176.80148006
 C     55  54  18     1.522659957885   111.35204851   356.08460308
 H     56  55  54     1.091973424891   109.48183071   181.77963641
 H     56  55  54     1.091997514945   111.54910515    62.72977449
 H     56  55  54     1.091369952420   111.59112656   301.34921499
 C     55  54  18     1.532937387876   107.44373422   116.64816456
 H     60  55  54     1.092090728277   109.44416578   179.26798848
 H     60  55  54     1.090509066471   111.28569083    59.42882764
 H     60  55  54     1.093134478780   111.35427382   298.36047494
 C     55  54  18     1.531323457939   108.17635412   235.08396822
 H     64  55  54     1.092069399833   109.45290132   182.49126722
 H     64  55  54     1.092987570559   111.30617576    63.39868295
 H     64  55  54     1.090082073330   111.19444986   302.38690518
 C     21   3   1     1.256816688732   134.49966755   317.19999909
 C     68  21   3     1.525572595338   118.46349648   172.34911745
 C     69  68  21     1.534222894692   106.83955228   248.87341645
 H     70  69  68     1.092218226193   109.41402982   181.46926893
 H     70  69  68     1.092903714998   111.28415432    62.42534029
 H     70  69  68     1.091242511750   111.19827185   301.22480912
 C     69  68  21     1.529491048970   109.04194409   130.41960240
 H     74  69  68     1.091952376865   109.40868698   178.83253167
 H     74  69  68     1.090476384799   111.40390880    59.30646191
 H     74  69  68     1.092879438983   111.39661081   297.90581059
 C     69  68  21     1.522768414900   111.09854042     8.85092042
 H     78  69  68     1.092212566996   109.41887897   180.17390970
 H     78  69  68     1.091377958127   111.54250927    60.49997682
 H     78  69  68     1.090656631250   111.51458053   299.87074497
 C     22   3   1     1.257904503696   132.56690779   353.03922063
 C     82  22   3     1.525714573553   117.77958178   186.99662598
 C     83  82  22     1.526774121073   110.15965166   322.46920973
 H     84  83  82     1.092625590872   111.43240481   298.03667320
 H     84  83  82     1.091991146136   109.53103050   178.70559147
 H     84  83  82     1.089909657296   111.50309508    58.87333641
 C     83  82  22     1.535514702137   106.01227281    81.17852290
 H     88  83  82     1.092512719130   111.32011106    60.54481795
 H     88  83  82     1.092046695435   111.32221407   299.14272771
 H     88  83  82     1.092237214013   109.43487464   179.79004546
 C     83  82  22     1.524406943502   110.95251178   200.10751797
 H     92  83  82     1.092059758717   109.48139411   179.81425740
 H     92  83  82     1.092301652428   111.44532468    60.47094903
 H     92  83  82     1.090211790200   111.47993645   299.43049802
 C     25   1   2     1.256397865670   133.03790131   303.38435533
 C     96  25   1     1.524411469738   118.04306289   182.97682880
 C     97  96  25     1.536085116142   105.83301940   265.03502800
 H     98  97  96     1.092196916890   109.29399866   180.74248689
 H     98  97  96     1.092485753300   111.17005447    61.58994804
 H     98  97  96     1.092047704657   111.20833159   300.19444750
 C     97  96  25     1.526973780317   110.35490505   146.43964568
 H    102  97  96     1.091940579404   109.42839045   180.58387548
 H    102  97  96     1.090431303932   111.55162791    61.17856247
 H    102  97  96     1.092993444855   111.47027718   299.63791675
 C     97  96  25     1.524212046071   110.81745616    24.01131819
 H    106  97  96     1.092087188882   109.42304741   181.66309917
 H    106  97  96     1.092220519628   111.48606704    62.29993536
 H    106  97  96     1.089714650890   111.52824818   301.59084980

---------------------------
INTERNAL COORDINATES (A.U.)
---------------------------
 Fe     0   0   0     0.000000000000     0.00000000     0.00000000
 Fe     1   0   0     6.231206845827     0.00000000     0.00000000
 Fe     1   2   0     6.224109978001    60.10334748     0.00000000
 O      2   1   3     3.595694510986    30.02207416   359.29319679
 O      1   2   3     4.089330002954   146.52509830   181.94527671
 H      5   1   2     1.823040447103   107.46147277   328.50084460
 H      5   1   2     1.821624861138   110.36184757    85.03213757
 O      2   1   3     4.094552701242   154.08864547   176.80624620
 H      8   2   1     1.824465048407   105.52425481   227.48457205
 H      8   2   1     1.821518988903   109.75044680   112.66936043
 O      3   1   2     4.099525207232   146.80029400   179.24962045
 H     11   3   1     1.823598705809   106.78027491   320.60142116
 H     11   3   1     1.821132663909   109.80296006    76.20920704
 O      1   2   3     3.845463362579    74.05952275   232.66634649
 O      2   1   3     3.761558039482    75.05936591   127.85615408
 O      1   2   3     3.815013663352    73.95995993   138.40077275
 O      2   1   3     3.783263828850    75.04461815   224.12393186
 O      2   1   3     3.866782032806   117.40878227    47.61927412
 O      3   1   2     3.765340254638   117.26709156   308.16059317
 O      2   1   3     3.826052550390   113.63391854   305.58341222
 O      3   1   2     3.779515299866   113.40314056    53.51926815
 O      3   1   2     3.850854462219    74.26103026   229.08507860
 O      1   2   3     3.781900454413   118.25495853   310.62694758
 O      3   1   2     3.826505853789    74.06573020   135.78138820
 O      1   2   3     3.781916915739   112.93654170    55.09625704
 C     14   1   2     2.375662427145   132.75546277     3.79493958
 C     26  14   1     2.882653587637   118.94632844   170.39391982
 C     27  26  14     2.892292997523   108.63099668   126.19061591
 H     28  27  26     2.059968970530   111.26136268    57.58143434
 H     28  27  26     2.065360384544   111.36720485   296.55941308
 H     28  27  26     2.063884657809   109.42074906   177.50290820
 C     27  26  14     2.897777614042   107.01269863   244.39846565
 H     32  27  26     2.061137549111   111.01876271   301.33658735
 H     32  27  26     2.063958644399   109.36304078   181.71025510
 H     32  27  26     2.066100711659   111.41863527    62.57194630
 C     27  26  14     2.877004036122   111.32037851     4.63765849
 H     36  27  26     2.063166729471   111.46591808    61.41606620
 H     36  27  26     2.062282791216   111.57775380   300.31357335
 H     36  27  26     2.063775373464   109.49740989   180.63376741
 C     17   2   1     2.375093106339   133.03664391   356.42599224
 C     40  17   2     2.880781775569   118.28457332   180.36977698
 C     41  40  17     2.902209897524   105.87153958   265.21718544
 H     42  41  40     2.064184116832   111.21164807    61.31198046
 H     42  41  40     2.063513843470   111.19579311   299.97479764
 H     42  41  40     2.064060641913   109.35836339   180.52328167
 C     41  40  17     2.884940669023   110.29706802   146.66179376
 H     46  41  40     2.065333636064   111.42913027   299.03523350
 H     46  41  40     2.063358840208   109.48260048   180.03803857
 H     46  41  40     2.060787795996   111.48162601    60.67833512
 C     41  40  17     2.880911969512   110.71496303    24.37545683
 H     50  41  40     2.063864577748   111.44770723    60.97867767
 H     50  41  40     2.059529075646   111.46804725   300.22233152
 H     50  41  40     2.063697177020   109.49933114   180.41359417
 C     18   2   1     2.376609279343   133.74102469   322.63140649
 C     54  18   2     2.882480550703   119.00660600   176.80148006
 C     55  54  18     2.877410315492   111.35204851   356.08460308
 H     56  55  54     2.063530718564   109.48183071   181.77963641
 H     56  55  54     2.063576242168   111.54910515    62.72977449
 H     56  55  54     2.062390320864   111.59112656   301.34921499
 C     55  54  18     2.896831843535   107.44373422   116.64816456
 H     60  55  54     2.063752389839   109.44416578   179.26798848
 H     60  55  54     2.060763482187   111.28569083    59.42882764
 H     60  55  54     2.065724792442   111.35427382   298.36047494
 C     55  54  18     2.893781957953   108.17635412   235.08396822
 H     64  55  54     2.063712084919   109.45290132   182.49126722
 H     64  55  54     2.065447176136   111.30617576    63.39868295
 H     64  55  54     2.059956582091   111.19444986   302.38690518
 C     21   3   1     2.375039342244   134.49966755   317.19999909
 C     68  21   3     2.882914402605   118.46349648   172.34911745
 C     69  68  21     2.899261099360   106.83955228   248.87341645
 H     70  69  68     2.063993325983   109.41402982   181.46926893
 H     70  69  68     2.065288712091   111.28415432    62.42534029
 H     70  69  68     2.062149492899   111.19827185   301.22480912
 C     69  68  21     2.890319206837   109.04194409   130.41960240
 H     74  69  68     2.063490943560   109.40868698   178.83253167
 H     74  69  68     2.060701722778   111.40390880    59.30646191
 H     74  69  68     2.065242837072   111.39661081   297.90581059
 C     69  68  21     2.877615269546   111.09854042     8.85092042
 H     78  69  68     2.063982631650   109.41887897   180.17390970
 H     78  69  68     2.062405449458   111.54250927    60.49997682
 H     78  69  68     2.061042339208   111.51458053   299.87074497
 C     22   3   1     2.377095014612   132.56690779   353.03922063
 C     82  22   3     2.883182702548   117.77958178   186.99662598
 C     83  82  22     2.885184957186   110.15965166   322.46920973
 H     84  83  82     2.064763133661   111.43240481   298.03667320
 H     84  83  82     2.063564206863   109.53103050   178.70559147
 H     84  83  82     2.059630763006   111.50309508    58.87333641
 C     83  82  22     2.901702261648   106.01227281    81.17852290
 H     88  83  82     2.064549836980   111.32011106    60.54481795
 H     88  83  82     2.063669179827   111.32221407   299.14272771
 H     88  83  82     2.064029207762   109.43487464   179.79004546
 C     83  82  22     2.880711639867   110.95251178   200.10751797
 H     92  83  82     2.063693865851   109.48139411   179.81425740
 H     92  83  82     2.064150978719   111.44532468    60.47094903
 H     92  83  82     2.060201711449   111.47993645   299.43049802
 C     25   1   2     2.374247881360   133.03790131   303.38435533
 C     96  25   1     2.880720193213   118.04306289   182.97682880
 C     97  96  25     2.902780187901   105.83301940   265.03502800
 H     98  97  96     2.063953057235   109.29399866   180.74248689
 H     98  97  96     2.064498878947   111.17005447    61.58994804
 H     98  97  96     2.063671086979   111.20833159   300.19444750
 C     97  96  25     2.885562258478   110.35490505   146.43964568
 H    102  97  96     2.063468649590   109.42839045   180.58387548
 H    102  97  96     2.060616532286   111.55162791    61.17856247
 H    102  97  96     2.065458276948   111.47027718   299.63791675
 C     97  96  25     2.880343337099   110.81745616    24.01131819
 H    106  97  96     2.063745701352   109.42304741   181.66309917
 H    106  97  96     2.063997659946   111.48606704    62.29993536
 H    106  97  96     2.059262254304   111.52824818   301.59084980

---------------------
BASIS SET INFORMATION
---------------------
There are 4 groups of distinct atoms

 Group   1 Type Fe  : 17s11p7d1f contracted to 6s4p4d1f pattern {842111/6311/4111/1}
 Group   2 Type O   : 11s6p2d1f contracted to 5s3p2d1f pattern {62111/411/11/1}
 Group   3 Type H   : 5s1p contracted to 3s1p pattern {311/1}
 Group   4 Type C   : 11s6p2d1f contracted to 5s3p2d1f pattern {62111/411/11/1}

Atom   0Fe   basis set group =>   1
Atom   1Fe   basis set group =>   1
Atom   2Fe   basis set group =>   1
Atom   3O    basis set group =>   2
Atom   4O    basis set group =>   2
Atom   5H    basis set group =>   3
Atom   6H    basis set group =>   3
Atom   7O    basis set group =>   2
Atom   8H    basis set group =>   3
Atom   9H    basis set group =>   3
Atom  10O    basis set group =>   2
Atom  11H    basis set group =>   3
Atom  12H    basis set group =>   3
Atom  13O    basis set group =>   2
Atom  14O    basis set group =>   2
Atom  15O    basis set group =>   2
Atom  16O    basis set group =>   2
Atom  17O    basis set group =>   2
Atom  18O    basis set group =>   2
Atom  19O    basis set group =>   2
Atom  20O    basis set group =>   2
Atom  21O    basis set group =>   2
Atom  22O    basis set group =>   2
Atom  23O    basis set group =>   2
Atom  24O    basis set group =>   2
Atom  25C    basis set group =>   4
Atom  26C    basis set group =>   4
Atom  27C    basis set group =>   4
Atom  28H    basis set group =>   3
Atom  29H    basis set group =>   3
Atom  30H    basis set group =>   3
Atom  31C    basis set group =>   4
Atom  32H    basis set group =>   3
Atom  33H    basis set group =>   3
Atom  34H    basis set group =>   3
Atom  35C    basis set group =>   4
Atom  36H    basis set group =>   3
Atom  37H    basis set group =>   3
Atom  38H    basis set group =>   3
Atom  39C    basis set group =>   4
Atom  40C    basis set group =>   4
Atom  41C    basis set group =>   4
Atom  42H    basis set group =>   3
Atom  43H    basis set group =>   3
Atom  44H    basis set group =>   3
Atom  45C    basis set group =>   4
Atom  46H    basis set group =>   3
Atom  47H    basis set group =>   3
Atom  48H    basis set group =>   3
Atom  49C    basis set group =>   4
Atom  50H    basis set group =>   3
Atom  51H    basis set group =>   3
Atom  52H    basis set group =>   3
Atom  53C    basis set group =>   4
Atom  54C    basis set group =>   4
Atom  55C    basis set group =>   4
Atom  56H    basis set group =>   3
Atom  57H    basis set group =>   3
Atom  58H    basis set group =>   3
Atom  59C    basis set group =>   4
Atom  60H    basis set group =>   3
Atom  61H    basis set group =>   3
Atom  62H    basis set group =>   3
Atom  63C    basis set group =>   4
Atom  64H    basis set group =>   3
Atom  65H    basis set group =>   3
Atom  66H    basis set group =>   3
Atom  67C    basis set group =>   4
Atom  68C    basis set group =>   4
Atom  69C    basis set group =>   4
Atom  70H    basis set group =>   3
Atom  71H    basis set group =>   3
Atom  72H    basis set group =>   3
Atom  73C    basis set group =>   4
Atom  74H    basis set group =>   3
Atom  75H    basis set group =>   3
Atom  76H    basis set group =>   3
Atom  77C    basis set group =>   4
Atom  78H    basis set group =>   3
Atom  79H    basis set group =>   3
Atom  80H    basis set group =>   3
Atom  81C    basis set group =>   4
Atom  82C    basis set group =>   4
Atom  83C    basis set group =>   4
Atom  84H    basis set group =>   3
Atom  85H    basis set group =>   3
Atom  86H    basis set group =>   3
Atom  87C    basis set group =>   4
Atom  88H    basis set group =>   3
Atom  89H    basis set group =>   3
Atom  90H    basis set group =>   3
Atom  91C    basis set group =>   4
Atom  92H    basis set group =>   3
Atom  93H    basis set group =>   3
Atom  94H    basis set group =>   3
Atom  95C    basis set group =>   4
Atom  96C    basis set group =>   4
Atom  97C    basis set group =>   4
Atom  98H    basis set group =>   3
Atom  99H    basis set group =>   3
Atom 100H    basis set group =>   3
Atom 101C    basis set group =>   4
Atom 102H    basis set group =>   3
Atom 103H    basis set group =>   3
Atom 104H    basis set group =>   3
Atom 105C    basis set group =>   4
Atom 106H    basis set group =>   3
Atom 107H    basis set group =>   3
Atom 108H    basis set group =>   3
---------------------------------
AUXILIARY/J BASIS SET INFORMATION
---------------------------------
There are 4 groups of distinct atoms

 Group   1 Type Fe  : 19s5p5d3f3g contracted to 8s5p5d2f3g pattern {121111111/11111/11111/21/111}
 Group   2 Type O   : 12s5p4d2f1g contracted to 6s4p3d1f1g pattern {711111/2111/211/2/1}
 Group   3 Type H   : 5s2p1d contracted to 3s1p1d pattern {311/2/1}
 Group   4 Type C   : 12s5p4d2f1g contracted to 6s4p3d1f1g pattern {711111/2111/211/2/1}

Atom   0Fe   basis set group =>   1
Atom   1Fe   basis set group =>   1
Atom   2Fe   basis set group =>   1
Atom   3O    basis set group =>   2
Atom   4O    basis set group =>   2
Atom   5H    basis set group =>   3
Atom   6H    basis set group =>   3
Atom   7O    basis set group =>   2
Atom   8H    basis set group =>   3
Atom   9H    basis set group =>   3
Atom  10O    basis set group =>   2
Atom  11H    basis set group =>   3
Atom  12H    basis set group =>   3
Atom  13O    basis set group =>   2
Atom  14O    basis set group =>   2
Atom  15O    basis set group =>   2
Atom  16O    basis set group =>   2
Atom  17O    basis set group =>   2
Atom  18O    basis set group =>   2
Atom  19O    basis set group =>   2
Atom  20O    basis set group =>   2
Atom  21O    basis set group =>   2
Atom  22O    basis set group =>   2
Atom  23O    basis set group =>   2
Atom  24O    basis set group =>   2
Atom  25C    basis set group =>   4
Atom  26C    basis set group =>   4
Atom  27C    basis set group =>   4
Atom  28H    basis set group =>   3
Atom  29H    basis set group =>   3
Atom  30H    basis set group =>   3
Atom  31C    basis set group =>   4
Atom  32H    basis set group =>   3
Atom  33H    basis set group =>   3
Atom  34H    basis set group =>   3
Atom  35C    basis set group =>   4
Atom  36H    basis set group =>   3
Atom  37H    basis set group =>   3
Atom  38H    basis set group =>   3
Atom  39C    basis set group =>   4
Atom  40C    basis set group =>   4
Atom  41C    basis set group =>   4
Atom  42H    basis set group =>   3
Atom  43H    basis set group =>   3
Atom  44H    basis set group =>   3
Atom  45C    basis set group =>   4
Atom  46H    basis set group =>   3
Atom  47H    basis set group =>   3
Atom  48H    basis set group =>   3
Atom  49C    basis set group =>   4
Atom  50H    basis set group =>   3
Atom  51H    basis set group =>   3
Atom  52H    basis set group =>   3
Atom  53C    basis set group =>   4
Atom  54C    basis set group =>   4
Atom  55C    basis set group =>   4
Atom  56H    basis set group =>   3
Atom  57H    basis set group =>   3
Atom  58H    basis set group =>   3
Atom  59C    basis set group =>   4
Atom  60H    basis set group =>   3
Atom  61H    basis set group =>   3
Atom  62H    basis set group =>   3
Atom  63C    basis set group =>   4
Atom  64H    basis set group =>   3
Atom  65H    basis set group =>   3
Atom  66H    basis set group =>   3
Atom  67C    basis set group =>   4
Atom  68C    basis set group =>   4
Atom  69C    basis set group =>   4
Atom  70H    basis set group =>   3
Atom  71H    basis set group =>   3
Atom  72H    basis set group =>   3
Atom  73C    basis set group =>   4
Atom  74H    basis set group =>   3
Atom  75H    basis set group =>   3
Atom  76H    basis set group =>   3
Atom  77C    basis set group =>   4
Atom  78H    basis set group =>   3
Atom  79H    basis set group =>   3
Atom  80H    basis set group =>   3
Atom  81C    basis set group =>   4
Atom  82C    basis set group =>   4
Atom  83C    basis set group =>   4
Atom  84H    basis set group =>   3
Atom  85H    basis set group =>   3
Atom  86H    basis set group =>   3
Atom  87C    basis set group =>   4
Atom  88H    basis set group =>   3
Atom  89H    basis set group =>   3
Atom  90H    basis set group =>   3
Atom  91C    basis set group =>   4
Atom  92H    basis set group =>   3
Atom  93H    basis set group =>   3
Atom  94H    basis set group =>   3
Atom  95C    basis set group =>   4
Atom  96C    basis set group =>   4
Atom  97C    basis set group =>   4
Atom  98H    basis set group =>   3
Atom  99H    basis set group =>   3
Atom 100H    basis set group =>   3
Atom 101C    basis set group =>   4
Atom 102H    basis set group =>   3
Atom 103H    basis set group =>   3
Atom 104H    basis set group =>   3
Atom 105C    basis set group =>   4
Atom 106H    basis set group =>   3
Atom 107H    basis set group =>   3
Atom 108H    basis set group =>   3


           ************************************************************
           *        Program running with 32 parallel MPI-processes    *
           *              working on a common directory               *
           ************************************************************
------------------------------------------------------------------------------
                           ORCA GTO INTEGRAL CALCULATION
                           -- RI-GTO INTEGRALS CHOSEN --
------------------------------------------------------------------------------
------------------------------------------------------------------------------
                   ___                                                        
                  /   \      - P O W E R E D   B Y -                         
                 /     \                                                     
                 |  |  |   _    _      __       _____    __    __             
                 |  |  |  | |  | |    /  \     |  _  \  |  |  /  |          
                  \  \/   | |  | |   /    \    | | | |  |  | /  /          
                 / \  \   | |__| |  /  /\  \   | |_| |  |  |/  /          
                |  |  |   |  __  | /  /__\  \  |    /   |      \           
                |  |  |   | |  | | |   __   |  |    \   |  |\   \          
                \     /   | |  | | |  |  |  |  | |\  \  |  | \   \       
                 \___/    |_|  |_| |__|  |__|  |_| \__\ |__|  \__/        
                                                                              
                      - O R C A' S   B I G   F R I E N D -                    
                                      &                                       
                       - I N T E G R A L  F E E D E R -                       
                                                                              
 v1 FN, 2020, v2 2021                                                         
------------------------------------------------------------------------------


Reading SHARK input file Fe3_O_piv_6_H2O_3_HighSpin.SHARKINP.tmp ... ok
----------------------
SHARK INTEGRAL PACKAGE
----------------------

Number of atoms                             ...    109
Number of basis functions                   ...   1921
Number of shells                            ...    791
Maximum angular momentum                    ...      3
Integral batch strategy                     ... SHARK/LIBINT Hybrid
RI-J (if used) integral strategy            ... SPLIT-RIJ (Revised 2003 algorithm where possible)
Printlevel                                  ...      1
Contraction scheme used                     ... SEGMENTED contraction
Coulomb Range Separation                    ... NOT USED
Exchange Range Separation                   ... NOT USED
Finite Nucleus Model                        ... NOT USED
Auxiliary Coulomb fitting basis             ... AVAILABLE
   # of basis functions in Aux-J            ...   3181
   # of shells in Aux-J                     ...   1059
   Maximum angular momentum in Aux-J        ...      4
Auxiliary J/K fitting basis                 ... NOT available
Auxiliary Correlation fitting basis         ... NOT available
Auxiliary 'external' fitting basis          ... NOT available
Integral threshold                          ...     1.000000e-10
Primitive cut-off                           ...     1.000000e-11
Primitive pair pre-selection threshold      ...     1.000000e-11

Calculating pre-screening integrals         ... done (  0.1 sec) Dimension = 791
Organizing shell pair data                  ... done (  1.4 sec)
Shell pair information
Total number of shell pairs                 ...    313236
Shell pairs after pre-screening             ...    155793
Total number of primitive shell pairs       ...    965335
Primitive shell pairs kept                  ...    288662
          la=0 lb=0:  45335 shell pairs
          la=1 lb=0:  47114 shell pairs
          la=1 lb=1:  12314 shell pairs
          la=2 lb=0:  21576 shell pairs
          la=2 lb=1:  11348 shell pairs
          la=2 lb=2:   2623 shell pairs
          la=3 lb=0:   8586 shell pairs
          la=3 lb=1:   4585 shell pairs
          la=3 lb=2:   1988 shell pairs
          la=3 lb=3:    324 shell pairs

Calculating one electron integrals          ... done (  0.3 sec)
Calculating RI/J V-Matrix + Cholesky decomp.... done (  1.8 sec)
Calculating Nuclear repulsion               ... done (  0.0 sec) ENN=  11280.932228893633 Eh

SHARK setup successfully completed in   5.7 seconds

Maximum memory used throughout the entire GTOINT-calculation: 231.0 MB


           ************************************************************
           *        Program running with 32 parallel MPI-processes    *
           *              working on a common directory               *
           ************************************************************
-------------------------------------------------------------------------------
                                 ORCA SCF
-------------------------------------------------------------------------------

------------
SCF SETTINGS
------------
Hamiltonian:
 Density Functional     Method          .... DFT(GTOs)
 Exchange Functional    Exchange        .... PBE
   PBE kappa parameter   XKappa         ....  0.804000
   PBE mue parameter    XMuePBE         ....  0.219520
 Correlation Functional Correlation     .... PBE
   PBE beta parameter  CBetaPBE         ....  0.066725
 LDA part of GGA corr.  LDAOpt          .... PW91-LDA
 Gradients option       PostSCFGGA      .... off
 Hybrid DFT is turned on
   Fraction HF Exchange ScalHFX         ....  0.250000
   Scaling of DF-GGA-X  ScalDFX         ....  0.750000
   Scaling of DF-GGA-C  ScalDFC         ....  1.000000
   Scaling of DF-LDA-C  ScalLDAC        ....  1.000000
   Perturbative correction              ....  0.000000
   Density functional embedding theory  .... OFF
   NL short-range parameter             ....  6.900000
 RI-approximation to the Coulomb term is turned on
   Number of AuxJ basis functions       .... 3181
   RIJ-COSX (HFX calculated with COS-X)).... on


General Settings:
 Integral files         IntName         .... Fe3_O_piv_6_H2O_3_HighSpin
 Hartree-Fock type      HFTyp           .... UHF
 Total Charge           Charge          ....    1
 Multiplicity           Mult            ....   16
 Number of Electrons    NEL             ....  445
 Basis Dimension        Dim             .... 1921
 Nuclear Repulsion      ENuc            ....  11280.9322288936 Eh

Convergence Acceleration:
 DIIS                   CNVDIIS         .... on
   Start iteration      DIISMaxIt       ....    12
   Startup error        DIISStart       ....  0.200000
   # of expansion vecs  DIISMaxEq       ....     5
   Bias factor          DIISBfac        ....   1.050
   Max. coefficient     DIISMaxC        ....  10.000
 Trust-Rad. Augm. Hess. CNVTRAH         .... auto
   Auto Start mean grad. ratio tolernc. ....  1.125000
   Auto Start start iteration           ....    20
   Auto Start num. interpolation iter.  ....    10
   Max. Number of Micro iterations      ....    16
   Max. Number of Macro iterations      .... Maxiter - #DIIS iter
   Number of Davidson start vectors     ....     2
   Converg. threshold I  (grad. norm)   ....   5.000e-05
   Converg. threshold II (energy diff.) ....   1.000e-06
   Grad. Scal. Fac. for Micro threshold ....   0.100
   Minimum threshold for Micro iter.    ....   0.010
   NR start threshold (gradient norm)   ....   0.001
   Initial trust radius                 ....   0.400
   Minimum AH scaling param. (alpha)    ....   1.000
   Maximum AH scaling param. (alpha)    .... 1000.000
   Orbital update algorithm             .... Taylor
   White noise on init. David. guess    .... on
   Maximum white noise                  ....   0.010
   Quad. conv. algorithm                .... NR
 SOSCF                  CNVSOSCF        .... off
 Level Shifting         CNVShift        .... on
   Level shift para.    LevelShift      ....    0.2500
   Turn off err/grad.   ShiftErr        ....    0.0010
 Zerner damping         CNVZerner       .... off
 Static damping         CNVDamp         .... on
   Fraction old density DampFac         ....    0.7000
   Max. Damping (<1)    DampMax         ....    0.9800
   Min. Damping (>=0)   DampMin         ....    0.0000
   Turn off err/grad.   DampErr         ....    0.1000
 Fernandez-Rico         CNVRico         .... off

SCF Procedure:
 Maximum # iterations   MaxIter         ....   125
 SCF integral mode      SCFMode         .... Direct
   Integral package                     .... SHARK and LIBINT hybrid scheme
 Reset frequency        DirectResetFreq ....    20
 Integral Threshold     Thresh          ....  1.000e-10 Eh
 Primitive CutOff       TCut            ....  1.000e-11 Eh

Convergence Tolerance:
 Convergence Check Mode ConvCheckMode   .... Total+1el-Energy
 Convergence forced     ConvForced      .... 0
 Energy Change          TolE            ....  1.000e-06 Eh
 1-El. energy change                    ....  1.000e-03 Eh
 DIIS Error             TolErr          ....  1.000e-06


Diagonalization of the overlap matrix:
Smallest eigenvalue                        ... 5.394e-05
Time for diagonalization                   ...    2.433 sec
Threshold for overlap eigenvalues          ... 1.000e-08
Number of eigenvalues below threshold      ... 0
Time for construction of square roots      ...    0.600 sec
Total time needed                          ...    3.056 sec

Time for model grid setup =    1.151 sec

------------------------------
INITIAL GUESS: MODEL POTENTIAL
------------------------------
Loading Hartree-Fock densities                     ... done
Calculating cut-offs                               ... done
Initializing the effective Hamiltonian             ... done
Setting up the integral package (SHARK)            ... done
Starting the Coulomb interaction                   ... done (   1.4 sec)
Reading the grid                                   ... done
Mapping shells                                     ... done
Starting the XC term evaluation                    ... done (   0.3 sec)
  promolecular density results
     # of electrons  =    445.962018507
     EX              =   -464.380758682
     EC              =    -15.852844207
     EX+EC           =   -480.233602889
Transforming the Hamiltonian                       ... done (   0.3 sec)
Diagonalizing the Hamiltonian                      ... done (   0.6 sec)
Back transforming the eigenvectors                 ... done (   0.1 sec)
Now organizing SCF variables                       ... done
                      ------------------
                      INITIAL GUESS DONE (   4.0 sec)
                      ------------------
-------------------
DFT GRID GENERATION
-------------------

General Integration Accuracy     IntAcc      ... 4.388
Radial Grid Type                 RadialGrid  ... OptM3 with GC (2021)
Angular Grid (max. ang.)         AngularGrid ... 4 (Lebedev-302)
Angular grid pruning method      GridPruning ... 4 (adaptive)
Weight generation scheme         WeightScheme... Becke
Basis function cutoff            BFCut       ... 1.0000e-10
Integration weight cutoff        WCut        ... 1.0000e-14
Angular grids for H and He will be reduced by one unit
Partially contracted basis set               ... off
Rotationally invariant grid construction     ... off

Total number of grid points                  ...   493265
Total number of batches                      ...     7759
Average number of points per batch           ...       63
Average number of grid points per atom       ...     4525
Time for grid setup =    3.360 sec

--------------------
COSX GRID GENERATION
--------------------

GRIDX 1
-------
General Integration Accuracy     IntAcc      ... 3.816
Radial Grid Type                 RadialGrid  ... OptM3 with GC (2021)
Angular Grid (max. ang.)         AngularGrid ... 1 (Lebedev-50)
Angular grid pruning method      GridPruning ... 4 (adaptive)
Weight generation scheme         WeightScheme... Becke
Basis function cutoff            BFCut       ... 1.0000e-10
Integration weight cutoff        WCut        ... 1.0000e-14
Angular grids for H and He will be reduced by one unit
Partially contracted basis set               ... on
Rotationally invariant grid construction     ... off

Total number of grid points                  ...    61965
Total number of batches                      ...     1029
Average number of points per batch           ...       60
Average number of grid points per atom       ...      568
UseSFitting                                  ... on

GRIDX 2
-------
General Integration Accuracy     IntAcc      ... 4.020
Radial Grid Type                 RadialGrid  ... OptM3 with GC (2021)
Angular Grid (max. ang.)         AngularGrid ... 2 (Lebedev-110)
Angular grid pruning method      GridPruning ... 4 (adaptive)
Weight generation scheme         WeightScheme... Becke
Basis function cutoff            BFCut       ... 1.0000e-10
Integration weight cutoff        WCut        ... 1.0000e-14
Angular grids for H and He will be reduced by one unit
Partially contracted basis set               ... on
Rotationally invariant grid construction     ... off

Total number of grid points                  ...   128870
Total number of batches                      ...     2066
Average number of points per batch           ...       62
Average number of grid points per atom       ...     1182
UseSFitting                                  ... on

GRIDX 3
-------
General Integration Accuracy     IntAcc      ... 4.338
Radial Grid Type                 RadialGrid  ... OptM3 with GC (2021)
Angular Grid (max. ang.)         AngularGrid ... 3 (Lebedev-194)
Angular grid pruning method      GridPruning ... 4 (adaptive)
Weight generation scheme         WeightScheme... Becke
Basis function cutoff            BFCut       ... 1.0000e-10
Integration weight cutoff        WCut        ... 1.0000e-14
Angular grids for H and He will be reduced by one unit
Partially contracted basis set               ... on
Rotationally invariant grid construction     ... off

Total number of grid points                  ...   278059
Total number of batches                      ...     4398
Average number of points per batch           ...       63
Average number of grid points per atom       ...     2551
UseSFitting                                  ... on

Time for X-Grid setup             =    5.419 sec

--------------
SCF ITERATIONS
--------------
ITER       Energy         Delta-E        Max-DP      RMS-DP      [F,P]     Damp
               ***  Starting incremental Fock matrix formation  ***
  0  -6169.5299613013   0.000000000000 0.11440421  0.00031329  0.2303621 0.7000
  1  -6170.5500720304  -1.020110729150 0.01780558  0.00014801  0.0573270 0.7000
                               ***Turning on DIIS***
  2  -6170.9864099533  -0.436337922854 0.07986180  0.00029179  0.0506429 0.0000
  3  -6171.7893154816  -0.802905528290 0.01207284  0.00004718  0.1188888 0.7000
  4  -6171.8729729484  -0.083657466816 0.04943901  0.00016992  0.0955790 0.0000
  5  -6172.0425849887  -0.169612040345 0.03026770  0.00007028  0.0220061 0.0000
  6  -6172.0499836176  -0.007398628846 0.00371605  0.00002064  0.0068461 0.0000
  7  -6172.0524871394  -0.002503521817 0.00146861  0.00000878  0.0037240 0.0000
  8  -6172.0530317141  -0.000544574737 0.00185757  0.00000588  0.0010842 0.0000
  9  -6172.0532436304  -0.000211916248 0.00129328  0.00000382  0.0013296 0.0000
 10  -6172.0533391351  -0.000095504697 0.00132566  0.00000500  0.0005905 0.0000
               *** Restarting incremental Fock matrix formation ***
                                   *** Resetting DIIS ***
 11  -6172.0534059838  -0.000066848733 0.00052155  0.00000416  0.0003627 0.0000
 12  -6172.0534084973  -0.000002513476 0.00035902  0.00000067  0.0004452 0.0000
 13  -6172.0534120889  -0.000003591579 0.00018221  0.00000047  0.0001392 0.0000
 14  -6172.0534122375  -0.000000148684 0.00014161  0.00000027  0.0001028 0.0000
 15  -6172.0534117360   0.000000501504 0.00005302  0.00000016  0.0000736 0.0000
 16  -6172.0534133324  -0.000001596408 0.00002430  0.00000018  0.0000259 0.0000
                 **** Energy Check signals convergence ****

               *****************************************************
               *                     SUCCESS                       *
               *           SCF CONVERGED AFTER  17 CYCLES          *
               *****************************************************

Old exchange energy                            =   -118.035190337 Eh
New exchange energy                            =   -118.035218660 Eh
Exchange energy change after final integration =     -0.000028323 Eh
Total energy after final integration           =  -6172.053441632 Eh
Final COS-X integration done in                =    52.810 sec

----------------
TOTAL SCF ENERGY
----------------

Total Energy       :        -6172.05344163 Eh         -167950.11257 eV

Components:
Nuclear Repulsion  :        11280.93222889 Eh          306969.77199 eV
Electronic Energy  :       -17452.98567053 Eh         -474919.88456 eV
One Electron Energy:       -30957.52945321 Eh         -842397.20307 eV
Two Electron Energy:        13504.54378269 Eh          367477.31851 eV
Max COSX asymmetry :            0.00000157 Eh               0.00004 eV

Virial components:
Potential Energy   :       -12329.00694099 Eh         -335489.33481 eV
Kinetic Energy     :         6156.95349936 Eh          167539.22225 eV
Virial Ratio       :            2.00245250


DFT components:
N(Alpha)           :      230.000341449286 electrons
N(Beta)            :      215.000334908297 electrons
N(Total)           :      445.000676357582 electrons
E(X)               :     -353.245766492388 Eh       
E(C)               :      -15.761893257276 Eh       
E(XC)              :     -369.007659749665 Eh       
DFET-embed. en.    :        0.000000000000 Eh       

---------------
SCF CONVERGENCE
---------------

  Last Energy change         ...    2.4018e-08  Tolerance :   1.0000e-06
  Last MAX-Density change    ...    0.0000e+00  Tolerance :   1.0000e-05
  Last RMS-Density change    ...    0.0000e+00  Tolerance :   1.0000e-06
  Last DIIS Error            ...    1.0159e-05  Tolerance :   1.0000e-06

             **** THE GBW FILE WAS UPDATED (Fe3_O_piv_6_H2O_3_HighSpin.gbw) ****
             **** DENSITY Fe3_O_piv_6_H2O_3_HighSpin.scfp WAS UPDATED ****
             **** ENERGY FILE WAS UPDATED (Fe3_O_piv_6_H2O_3_HighSpin.en.tmp) ****
----------------------
UHF SPIN CONTAMINATION
----------------------

Warning: in a DFT calculation there is little theoretical justification to 
         calculate <S**2> as in Hartree-Fock theory. We will do it anyways
         but you should keep in mind that the values have only limited relevance

Expectation value of <S**2>     :    63.769051
Ideal value S*(S+1) for S=7.5   :    63.750000
Deviation                       :     0.019051

             **** THE GBW FILE WAS UPDATED (Fe3_O_piv_6_H2O_3_HighSpin.gbw) ****
             **** DENSITY Fe3_O_piv_6_H2O_3_HighSpin.scfp WAS UPDATED ****
----------------
ORBITAL ENERGIES
----------------
                 SPIN UP ORBITALS
  NO   OCC          E(Eh)            E(eV) 
   0   1.0000    -256.593366     -6982.2605 
   1   1.0000    -256.593057     -6982.2521 
   2   1.0000    -256.593050     -6982.2519 
   3   1.0000     -30.419595      -827.7593 
   4   1.0000     -30.419259      -827.7501 
   5   1.0000     -30.419251      -827.7499 
   6   1.0000     -26.236929      -713.9431 
   7   1.0000     -26.236717      -713.9374 
   8   1.0000     -26.236643      -713.9353 
   9   1.0000     -26.236595      -713.9340 
  10   1.0000     -26.236549      -713.9328 
  11   1.0000     -26.236390      -713.9285 
  12   1.0000     -26.236296      -713.9259 
  13   1.0000     -26.236192      -713.9231 
  14   1.0000     -26.236148      -713.9219 
  15   1.0000     -19.356728      -526.7233 
  16   1.0000     -19.356620      -526.7204 
  17   1.0000     -19.355612      -526.6930 
  18   1.0000     -19.307939      -525.3957 
  19   1.0000     -19.307715      -525.3896 
  20   1.0000     -19.307401      -525.3811 
  21   1.0000     -19.307306      -525.3785 
  22   1.0000     -19.306713      -525.3624 
  23   1.0000     -19.306079      -525.3451 
  24   1.0000     -19.305986      -525.3426 
  25   1.0000     -19.305976      -525.3423 
  26   1.0000     -19.305404      -525.3267 
  27   1.0000     -19.304931      -525.3139 
  28   1.0000     -19.304331      -525.2976 
  29   1.0000     -19.303778      -525.2825 
  30   1.0000     -19.297555      -525.1132 
  31   1.0000     -10.446877      -284.2740 
  32   1.0000     -10.446328      -284.2590 
  33   1.0000     -10.445735      -284.2429 
  34   1.0000     -10.445671      -284.2412 
  35   1.0000     -10.444389      -284.2063 
  36   1.0000     -10.443832      -284.1911 
  37   1.0000     -10.333001      -281.1753 
  38   1.0000     -10.332380      -281.1584 
  39   1.0000     -10.332157      -281.1523 
  40   1.0000     -10.331335      -281.1299 
  41   1.0000     -10.330571      -281.1091 
  42   1.0000     -10.330508      -281.1074 
  43   1.0000     -10.299640      -280.2674 
  44   1.0000     -10.297289      -280.2035 
  45   1.0000     -10.296994      -280.1955 
  46   1.0000     -10.295390      -280.1518 
  47   1.0000     -10.295079      -280.1434 
  48   1.0000     -10.294536      -280.1286 
  49   1.0000     -10.294107      -280.1169 
  50   1.0000     -10.293842      -280.1097 
  51   1.0000     -10.293594      -280.1029 
  52   1.0000     -10.293274      -280.0942 
  53   1.0000     -10.292646      -280.0771 
  54   1.0000     -10.291787      -280.0538 
  55   1.0000     -10.290564      -280.0205 
  56   1.0000     -10.290282      -280.0128 
  57   1.0000     -10.289411      -279.9891 
  58   1.0000     -10.287629      -279.9406 
  59   1.0000     -10.285827      -279.8916 
  60   1.0000     -10.285169      -279.8737 
  61   1.0000      -3.847613      -104.6989 
  62   1.0000      -3.847267      -104.6895 
  63   1.0000      -3.847238      -104.6887 
  64   1.0000      -2.608674       -70.9856 
  65   1.0000      -2.608431       -70.9790 
  66   1.0000      -2.608356       -70.9770 
  67   1.0000      -2.608203       -70.9728 
  68   1.0000      -2.608156       -70.9715 
  69   1.0000      -2.607865       -70.9636 
  70   1.0000      -2.607664       -70.9581 
  71   1.0000      -2.607416       -70.9514 
  72   1.0000      -2.607126       -70.9435 
  73   1.0000      -1.221965       -33.2514 
  74   1.0000      -1.218521       -33.1576 
  75   1.0000      -1.218250       -33.1503 
  76   1.0000      -1.215030       -33.0627 
  77   1.0000      -1.214225       -33.0407 
  78   1.0000      -1.214164       -33.0391 
  79   1.0000      -1.191318       -32.4174 
  80   1.0000      -1.191048       -32.4101 
  81   1.0000      -1.190202       -32.3870 
  82   1.0000      -1.129223       -30.7277 
  83   1.0000      -1.129095       -30.7242 
  84   1.0000      -1.125336       -30.6220 
  85   1.0000      -1.124322       -30.5944 
  86   1.0000      -1.123468       -30.5711 
  87   1.0000      -1.123004       -30.5585 
  88   1.0000      -1.078067       -29.3357 
  89   1.0000      -0.935247       -25.4494 
  90   1.0000      -0.934502       -25.4291 
  91   1.0000      -0.934256       -25.4224 
  92   1.0000      -0.933425       -25.3998 
  93   1.0000      -0.932701       -25.3801 
  94   1.0000      -0.932551       -25.3760 
  95   1.0000      -0.796239       -21.6668 
  96   1.0000      -0.795107       -21.6360 
  97   1.0000      -0.794716       -21.6253 
  98   1.0000      -0.793970       -21.6050 
  99   1.0000      -0.793789       -21.6001 
 100   1.0000      -0.792755       -21.5720 
 101   1.0000      -0.792200       -21.5568 
 102   1.0000      -0.791501       -21.5378 
 103   1.0000      -0.790227       -21.5032 
 104   1.0000      -0.789747       -21.4901 
 105   1.0000      -0.788888       -21.4667 
 106   1.0000      -0.788346       -21.4520 
 107   1.0000      -0.755632       -20.5618 
 108   1.0000      -0.746059       -20.3013 
 109   1.0000      -0.745672       -20.2908 
 110   1.0000      -0.743820       -20.2404 
 111   1.0000      -0.743434       -20.2299 
 112   1.0000      -0.740483       -20.1496 
 113   1.0000      -0.700191       -19.0532 
 114   1.0000      -0.699661       -19.0387 
 115   1.0000      -0.698840       -19.0164 
 116   1.0000      -0.674473       -18.3533 
 117   1.0000      -0.670949       -18.2574 
 118   1.0000      -0.670682       -18.2502 
 119   1.0000      -0.663933       -18.0665 
 120   1.0000      -0.663424       -18.0527 
 121   1.0000      -0.662797       -18.0356 
 122   1.0000      -0.651032       -17.7155 
 123   1.0000      -0.650526       -17.7017 
 124   1.0000      -0.650105       -17.6902 
 125   1.0000      -0.642941       -17.4953 
 126   1.0000      -0.642745       -17.4900 
 127   1.0000      -0.637149       -17.3377 
 128   1.0000      -0.636252       -17.3133 
 129   1.0000      -0.631816       -17.1926 
 130   1.0000      -0.621181       -16.9032 
 131   1.0000      -0.614955       -16.7338 
 132   1.0000      -0.612918       -16.6783 
 133   1.0000      -0.610369       -16.6090 
 134   1.0000      -0.610110       -16.6019 
 135   1.0000      -0.602761       -16.4020 
 136   1.0000      -0.602519       -16.3954 
 137   1.0000      -0.593243       -16.1430 
 138   1.0000      -0.593011       -16.1366 
 139   1.0000      -0.588849       -16.0234 
 140   1.0000      -0.586552       -15.9609 
 141   1.0000      -0.584670       -15.9097 
 142   1.0000      -0.584226       -15.8976 
 143   1.0000      -0.581304       -15.8181 
 144   1.0000      -0.580908       -15.8073 
 145   1.0000      -0.580618       -15.7994 
 146   1.0000      -0.568376       -15.4663 
 147   1.0000      -0.568010       -15.4563 
 148   1.0000      -0.565635       -15.3917 
 149   1.0000      -0.565408       -15.3855 
 150   1.0000      -0.564997       -15.3744 
 151   1.0000      -0.561421       -15.2770 
 152   1.0000      -0.551295       -15.0015 
 153   1.0000      -0.551080       -14.9957 
 154   1.0000      -0.549523       -14.9533 
[...]
      f+2     :     0.000022
      f-2     :     0.000023
      f+3     :     0.000019
      f-3     :     0.000005
 92 H s       :     0.000381  s :     0.000381
      pz      :    -0.000005  p :     0.000010
      px      :     0.000009
      py      :     0.000006
 93 H s       :     0.000043  s :     0.000043
      pz      :     0.000002  p :     0.000009
      px      :     0.000006
      py      :     0.000001
 94 H s       :     0.000058  s :     0.000058
      pz      :     0.000003  p :     0.000031
      px      :     0.000008
      py      :     0.000020
 95 C s       :    -0.000424  s :    -0.000424
      pz      :    -0.001086  p :     0.001286
      px      :     0.000688
      py      :     0.001684
      dz2     :     0.000789  d :     0.016805
      dxz     :     0.002823
      dyz     :     0.003817
      dx2y2   :     0.003988
      dxy     :     0.005389
      f0      :     0.000166  f :     0.003783
      f+1     :     0.000380
      f-1     :     0.000195
      f+2     :     0.001036
      f-2     :     0.000175
      f+3     :     0.001019
      f-3     :     0.000813
 96 C s       :     0.000982  s :     0.000982
      pz      :     0.001860  p :     0.008726
      px      :     0.003562
      py      :     0.003304
      dz2     :    -0.000015  d :     0.000459
      dxz     :     0.000152
      dyz     :     0.000076
      dx2y2   :     0.000309
      dxy     :    -0.000063
      f0      :    -0.000005  f :     0.000127
      f+1     :     0.000003
      f-1     :    -0.000001
      f+2     :     0.000055
      f-2     :    -0.000006
      f+3     :     0.000046
      f-3     :     0.000035
 97 C s       :    -0.000015  s :    -0.000015
      pz      :    -0.000078  p :     0.000270
      px      :     0.000210
      py      :     0.000138
      dz2     :     0.000228  d :     0.000575
      dxz     :     0.000030
      dyz     :     0.000018
      dx2y2   :     0.000021
      dxy     :     0.000279
      f0      :     0.000030  f :     0.000079
      f+1     :     0.000023
      f-1     :     0.000003
      f+2     :     0.000003
      f-2     :     0.000010
      f+3     :     0.000001
      f-3     :     0.000009
 98 H s       :     0.000364  s :     0.000364
      pz      :     0.000007  p :     0.000004
      px      :    -0.000002
      py      :    -0.000002
 99 H s       :     0.000037  s :     0.000037
      pz      :    -0.000001  p :     0.000003
      px      :     0.000004
      py      :     0.000001
100 H s       :     0.000044  s :     0.000044
      pz      :    -0.000001  p :     0.000007
      px      :     0.000003
      py      :     0.000005
101 C s       :     0.000106  s :     0.000106
      pz      :     0.000405  p :     0.000761
      px      :     0.000299
      py      :     0.000057
      dz2     :     0.000018  d :     0.000673
      dxz     :     0.000293
      dyz     :     0.000090
      dx2y2   :     0.000237
      dxy     :     0.000035
      f0      :     0.000005  f :     0.000092
      f+1     :     0.000009
      f-1     :     0.000004
      f+2     :     0.000044
      f-2     :     0.000004
      f+3     :     0.000015
      f-3     :     0.000010
102 H s       :     0.000416  s :     0.000416
      pz      :     0.000001  p :     0.000012
      px      :     0.000002
      py      :     0.000009
103 H s       :     0.000037  s :     0.000037
      pz      :     0.000015  p :     0.000034
      px      :     0.000006
      py      :     0.000013
104 H s       :     0.000055  s :     0.000055
      pz      :     0.000006  p :     0.000008
      px      :     0.000003
      py      :    -0.000001
105 C s       :     0.000097  s :     0.000097
      pz      :     0.000262  p :     0.000736
      px      :     0.000033
      py      :     0.000442
      dz2     :     0.000011  d :     0.000642
      dxz     :     0.000071
      dyz     :     0.000160
      dx2y2   :     0.000341
      dxy     :     0.000059
      f0      :     0.000003  f :     0.000093
      f+1     :     0.000007
      f-1     :     0.000002
      f+2     :     0.000021
      f-2     :     0.000006
      f+3     :     0.000005
      f-3     :     0.000048
106 H s       :     0.000377  s :     0.000377
      pz      :    -0.000001  p :     0.000012
      px      :     0.000008
      py      :     0.000005
107 H s       :     0.000040  s :     0.000040
      pz      :     0.000005  p :     0.000009
      px      :    -0.000000
      py      :     0.000004
108 H s       :     0.000060  s :     0.000060
      pz      :     0.000020  p :     0.000037
      px      :     0.000009
      py      :     0.000008


                      *****************************
                      * MAYER POPULATION ANALYSIS *
                      *****************************

  NA   - Mulliken gross atomic population
  ZA   - Total nuclear charge
  QA   - Mulliken gross atomic charge
  VA   - Mayer's total valence
  BVA  - Mayer's bonded valence
  FA   - Mayer's free valence

  ATOM       NA         ZA         QA         VA         BVA        FA
  0 Fe    25.1087    26.0000     0.8913     7.2253     3.3267     3.8986
  1 Fe    25.1012    26.0000     0.8988     7.2077     3.3098     3.8979
  2 Fe    25.1029    26.0000     0.8971     7.2150     3.3169     3.8980
  3 O      8.8625     8.0000    -0.8625     1.5382     1.4335     0.1047
  4 O      8.5223     8.0000    -0.5223     2.0368     2.0350     0.0019
  5 H      0.6314     1.0000     0.3686     0.8854     0.8853     0.0000
  6 H      0.6226     1.0000     0.3774     0.8759     0.8759     0.0000
  7 O      8.5250     8.0000    -0.5250     2.0268     2.0249     0.0019
  8 H      0.6270     1.0000     0.3730     0.8844     0.8844     0.0000
  9 H      0.6242     1.0000     0.3758     0.8788     0.8788     0.0000
 10 O      8.5245     8.0000    -0.5245     2.0295     2.0276     0.0018
 11 H      0.6311     1.0000     0.3689     0.8861     0.8861     0.0000
 12 H      0.6245     1.0000     0.3755     0.8794     0.8794     0.0000
 13 O      8.4024     8.0000    -0.4024     1.9715     1.9657     0.0058
 14 O      8.4207     8.0000    -0.4207     2.0256     2.0191     0.0066
 15 O      8.4521     8.0000    -0.4521     1.9953     1.9897     0.0055
 16 O      8.4125     8.0000    -0.4125     2.0177     2.0114     0.0063
 17 O      8.4463     8.0000    -0.4463     1.9621     1.9570     0.0051
 18 O      8.4244     8.0000    -0.4244     2.0211     2.0149     0.0062
 19 O      8.4359     8.0000    -0.4359     1.9848     1.9790     0.0058
 20 O      8.4079     8.0000    -0.4079     2.0199     2.0134     0.0065
 21 O      8.4190     8.0000    -0.4190     1.9834     1.9780     0.0054
 22 O      8.4238     8.0000    -0.4238     2.0107     2.0046     0.0061
 23 O      8.4627     8.0000    -0.4627     1.9814     1.9759     0.0055
 24 O      8.4097     8.0000    -0.4097     2.0292     2.0227     0.0065
 25 C      5.5082     6.0000     0.4918     3.9835     3.9834     0.0001
 26 C      5.8967     6.0000     0.1033     3.9503     3.9501     0.0002
 27 C      6.3895     6.0000    -0.3895     3.8961     3.8961     0.0000
 28 H      0.8559     1.0000     0.1441     0.9802     0.9802     0.0000
 29 H      0.8787     1.0000     0.1213     0.9768     0.9768     0.0000
 30 H      0.8618     1.0000     0.1382     0.9743     0.9743     0.0000
 31 C      6.4132     6.0000    -0.4132     3.9081     3.9081     0.0000
 32 H      0.8611     1.0000     0.1389     0.9830     0.9830     0.0000
 33 H      0.8577     1.0000     0.1423     0.9750     0.9750     0.0000
 34 H      0.8783     1.0000     0.1217     0.9769     0.9769     0.0000
 35 C      6.3624     6.0000    -0.3624     3.8973     3.8973     0.0000
 36 H      0.8873     1.0000     0.1127     0.9831     0.9831     0.0000
 37 H      0.8747     1.0000     0.1253     0.9818     0.9818     0.0000
 38 H      0.8604     1.0000     0.1396     0.9758     0.9758     0.0000
 39 C      5.5206     6.0000     0.4794     4.0305     4.0304     0.0001
 40 C      5.9019     6.0000     0.0981     3.9508     3.9507     0.0002
 41 C      6.4199     6.0000    -0.4199     3.9139     3.9139     0.0000
 42 H      0.8632     1.0000     0.1368     0.9768     0.9768     0.0000
 43 H      0.8615     1.0000     0.1385     0.9761     0.9761     0.0000
 44 H      0.8571     1.0000     0.1429     0.9743     0.9743     0.0000
 45 C      6.3914     6.0000    -0.3914     3.8888     3.8888     0.0000
 46 H      0.8732     1.0000     0.1268     0.9755     0.9755     0.0000
 47 H      0.8566     1.0000     0.1434     0.9775     0.9775     0.0000
 48 H      0.8790     1.0000     0.1210     0.9796     0.9796     0.0000
 49 C      6.3618     6.0000    -0.3618     3.8940     3.8940     0.0000
 50 H      0.8721     1.0000     0.1279     0.9787     0.9787     0.0000
 51 H      0.8772     1.0000     0.1228     0.9842     0.9842     0.0000
 52 H      0.8615     1.0000     0.1385     0.9734     0.9734     0.0000
 53 C      5.5302     6.0000     0.4698     4.0524     4.0523     0.0001
 54 C      5.9077     6.0000     0.0923     3.9721     3.9719     0.0002
 55 C      6.3684     6.0000    -0.3684     3.8963     3.8963     0.0000
 56 H      0.8589     1.0000     0.1411     0.9768     0.9768     0.0000
 57 H      0.8938     1.0000     0.1062     0.9830     0.9830     0.0000
 58 H      0.8675     1.0000     0.1325     0.9792     0.9792     0.0000
 59 C      6.3929     6.0000    -0.3929     3.9011     3.9011     0.0000
 60 H      0.8592     1.0000     0.1408     0.9740     0.9740     0.0000
 61 H      0.8617     1.0000     0.1383     0.9807     0.9807     0.0000
 62 H      0.8767     1.0000     0.1233     0.9769     0.9769     0.0000
 63 C      6.3941     6.0000    -0.3941     3.8969     3.8969     0.0000
 64 H      0.8589     1.0000     0.1411     0.9744     0.9744     0.0000
 65 H      0.8754     1.0000     0.1246     0.9778     0.9778     0.0000
 66 H      0.8664     1.0000     0.1336     0.9816     0.9816     0.0000
 67 C      5.5051     6.0000     0.4949     3.9670     3.9669     0.0001
 68 C      5.9038     6.0000     0.0962     3.9715     3.9714     0.0002
 69 C      6.4133     6.0000    -0.4133     3.9042     3.9042     0.0000
 70 H      0.8572     1.0000     0.1428     0.9744     0.9744     0.0000
 71 H      0.8682     1.0000     0.1318     0.9779     0.9779     0.0000
 72 H      0.8665     1.0000     0.1335     0.9798     0.9798     0.0000
 73 C      6.3842     6.0000    -0.3842     3.8937     3.8937     0.0000
 74 H      0.8583     1.0000     0.1417     0.9771     0.9771     0.0000
 75 H      0.8878     1.0000     0.1122     0.9855     0.9855     0.0000
 76 H      0.8718     1.0000     0.1282     0.9761     0.9761     0.0000
 77 C      6.3527     6.0000    -0.3527     3.9066     3.9066     0.0000
 78 H      0.8640     1.0000     0.1360     0.9731     0.9731     0.0000
 79 H      0.8728     1.0000     0.1272     0.9807     0.9807     0.0000
 80 H      0.8780     1.0000     0.1220     0.9857     0.9857     0.0000
 81 C      5.5269     6.0000     0.4731     4.0279     4.0279     0.0001
 82 C      5.9130     6.0000     0.0870     3.9746     3.9745     0.0002
 83 C      6.3604     6.0000    -0.3604     3.8881     3.8881     0.0000
 84 H      0.8762     1.0000     0.1238     0.9793     0.9793     0.0000
 85 H      0.8587     1.0000     0.1413     0.9742     0.9742     0.0000
 86 H      0.8865     1.0000     0.1135     0.9864     0.9864     0.0000
 87 C      6.4028     6.0000    -0.4028     3.9064     3.9064     0.0000
 88 H      0.8621     1.0000     0.1379     0.9755     0.9755     0.0000
 89 H      0.8828     1.0000     0.1172     0.9807     0.9807     0.0000
 90 H      0.8548     1.0000     0.1452     0.9748     0.9748     0.0000
 91 C      6.3673     6.0000    -0.3673     3.8930     3.8930     0.0000
 92 H      0.8605     1.0000     0.1395     0.9753     0.9753     0.0000
 93 H      0.8781     1.0000     0.1219     0.9818     0.9818     0.0000
 94 H      0.8750     1.0000     0.1250     0.9823     0.9823     0.0000
 95 C      5.5142     6.0000     0.4858     3.9995     3.9995     0.0001
 96 C      5.9006     6.0000     0.0994     3.9530     3.9528     0.0002
 97 C      6.4260     6.0000    -0.4260     3.9158     3.9158     0.0000
 98 H      0.8552     1.0000     0.1448     0.9741     0.9741     0.0000
 99 H      0.8643     1.0000     0.1357     0.9755     0.9755     0.0000
100 H      0.8639     1.0000     0.1361     0.9778     0.9778     0.0000
101 C      6.3843     6.0000    -0.3843     3.8920     3.8920     0.0000
102 H      0.8575     1.0000     0.1425     0.9773     0.9773     0.0000
103 H      0.8841     1.0000     0.1159     0.9810     0.9810     0.0000
104 H      0.8717     1.0000     0.1283     0.9753     0.9753     0.0000
105 C      6.3627     6.0000    -0.3627     3.8955     3.8955     0.0000
106 H      0.8633     1.0000     0.1367     0.9728     0.9728     0.0000
107 H      0.8761     1.0000     0.1239     0.9793     0.9793     0.0000
108 H      0.8670     1.0000     0.1330     0.9822     0.9822     0.0000

  Mayer bond orders larger than 0.100000
B(  0-Fe,  3-O ) :   0.5594 B(  0-Fe,  4-O ) :   0.4138 B(  0-Fe, 13-O ) :   0.4836 
B(  0-Fe, 15-O ) :   0.4957 B(  0-Fe, 22-O ) :   0.5123 B(  0-Fe, 24-O ) :   0.5379 
B(  1-Fe,  3-O ) :   0.5638 B(  1-Fe,  7-O ) :   0.4079 B(  1-Fe, 14-O ) :   0.5452 
B(  1-Fe, 16-O ) :   0.5225 B(  1-Fe, 17-O ) :   0.4397 B(  1-Fe, 19-O ) :   0.4986 
B(  2-Fe,  3-O ) :   0.5591 B(  2-Fe, 10-O ) :   0.4031 B(  2-Fe, 18-O ) :   0.5385 
B(  2-Fe, 20-O ) :   0.5296 B(  2-Fe, 21-O ) :   0.4841 B(  2-Fe, 23-O ) :   0.4685 
B(  4-O ,  5-H ) :   0.8607 B(  4-O ,  6-H ) :   0.8573 B(  7-O ,  8-H ) :   0.8552 
B(  7-O ,  9-H ) :   0.8573 B( 10-O , 11-H ) :   0.8596 B( 10-O , 12-H ) :   0.8583 
B( 13-O , 25-C ) :   1.4755 B( 14-O , 25-C ) :   1.4401 B( 15-O , 39-C ) :   1.4497 
B( 16-O , 39-C ) :   1.4623 B( 17-O , 53-C ) :   1.4874 B( 18-O , 53-C ) :   1.4512 
B( 19-O , 67-C ) :   1.4495 B( 20-O , 67-C ) :   1.4546 B( 21-O , 81-C ) :   1.4746 
B( 22-O , 81-C ) :   1.4608 B( 23-O , 95-C ) :   1.4566 B( 24-O , 95-C ) :   1.4497 
B( 25-C , 26-C ) :   0.9789 B( 26-C , 27-C ) :   0.9755 B( 26-C , 31-C ) :   0.9451 
B( 26-C , 35-C ) :   0.9971 B( 27-C , 28-H ) :   0.9637 B( 27-C , 29-H ) :   0.9669 
B( 27-C , 30-H ) :   0.9639 B( 31-C , 32-H ) :   0.9684 B( 31-C , 33-H ) :   0.9637 
B( 31-C , 34-H ) :   0.9667 B( 35-C , 36-H ) :   0.9665 B( 35-C , 37-H ) :   0.9653 
B( 35-C , 38-H ) :   0.9667 B( 39-C , 40-C ) :   0.9828 B( 40-C , 41-C ) :   0.9318 
B( 40-C , 45-C ) :   0.9711 B( 40-C , 49-C ) :   1.0040 B( 41-C , 42-H ) :   0.9688 
B( 41-C , 43-H ) :   0.9656 B( 41-C , 44-H ) :   0.9634 B( 45-C , 46-H ) :   0.9707 
B( 45-C , 47-H ) :   0.9658 B( 45-C , 48-H ) :   0.9662 B( 49-C , 50-H ) :   0.9658 
B( 49-C , 51-H ) :   0.9623 B( 49-C , 52-H ) :   0.9656 B( 53-C , 54-C ) :   0.9801 
B( 54-C , 55-C ) :   0.9930 B( 54-C , 59-C ) :   0.9625 B( 54-C , 63-C ) :   0.9632 
B( 55-C , 56-H ) :   0.9659 B( 55-C , 57-H ) :   0.9657 B( 55-C , 58-H ) :   0.9669 
B( 59-C , 60-H ) :   0.9633 B( 59-C , 61-H ) :   0.9649 B( 59-C , 62-H ) :   0.9668 
B( 63-C , 64-H ) :   0.9646 B( 63-C , 65-H ) :   0.9685 B( 63-C , 66-H ) :   0.9646 
B( 67-C , 68-C ) :   0.9764 B( 68-C , 69-C ) :   0.9457 B( 68-C , 73-C ) :   0.9647 
B( 68-C , 77-C ) :   1.0195 B( 69-C , 70-H ) :   0.9638 B( 69-C , 71-H ) :   0.9690 
B( 69-C , 72-H ) :   0.9640 B( 73-C , 74-H ) :   0.9657 B( 73-C , 75-H ) :   0.9693 
B( 73-C , 76-H ) :   0.9692 B( 77-C , 78-H ) :   0.9664 B( 77-C , 79-H ) :   0.9607 
B( 77-C , 80-H ) :   0.9625 B( 81-C , 82-C ) :   0.9742 B( 82-C , 83-C ) :   0.9935 
B( 82-C , 87-C ) :   0.9371 B( 82-C , 91-C ) :   0.9957 B( 83-C , 84-H ) :   0.9683 
B( 83-C , 85-H ) :   0.9668 B( 83-C , 86-H ) :   0.9628 B( 87-C , 88-H ) :   0.9680 
B( 87-C , 89-H ) :   0.9672 B( 87-C , 90-H ) :   0.9632 B( 91-C , 92-H ) :   0.9666 
B( 91-C , 93-H ) :   0.9678 B( 91-C , 94-H ) :   0.9615 B( 95-C , 96-C ) :   0.9799 
B( 96-C , 97-C ) :   0.9257 B( 96-C ,101-C ) :   0.9774 B( 96-C ,105-C ) :   1.0071 
B( 97-C , 98-H ) :   0.9631 B( 97-C , 99-H ) :   0.9680 B( 97-C ,100-H ) :   0.9683 
B(101-C ,102-H ) :   0.9663 B(101-C ,103-H ) :   0.9661 B(101-C ,104-H ) :   0.9702 
B(105-C ,106-H ) :   0.9654 B(105-C ,107-H ) :   0.9658 B(105-C ,108-H ) :   0.9608 


-------
TIMINGS
-------

Total SCF time: 0 days 0 hours 8 min 7 sec 

Total time                  ....     487.440 sec
Sum of individual times     ....     469.771 sec  ( 96.4%)

Fock matrix formation       ....     398.536 sec  ( 81.8%)
  Split-RI-J                ....      42.746 sec  ( 10.7% of F)
  Chain of spheres X        ....     315.765 sec  ( 79.2% of F)
  XC integration            ....      26.301 sec  (  6.6% of F)
    Basis function eval.    ....       2.443 sec  (  9.3% of XC)
    Density eval.           ....       9.607 sec  ( 36.5% of XC)
    XC-Functional eval.     ....       0.232 sec  (  0.9% of XC)
    XC-Potential eval.      ....       5.526 sec  ( 21.0% of XC)
Diagonalization             ....      28.223 sec  (  5.8%)
Density matrix formation    ....       1.982 sec  (  0.4%)
Population analysis         ....       3.914 sec  (  0.8%)
Initial guess               ....       2.867 sec  (  0.6%)
Orbital Transformation      ....       0.000 sec  (  0.0%)
Orbital Orthonormalization  ....       0.000 sec  (  0.0%)
DIIS solution               ....      24.318 sec  (  5.0%)
Grid generation             ....       9.930 sec  (  2.0%)

Maximum memory used throughout the entire SCF-calculation: 887.7 MB

-------------------------   --------------------
FINAL SINGLE POINT ENERGY     -6172.053441631715
-------------------------   --------------------


                            ***************************************
                            *     ORCA property calculations      *
                            ***************************************

                                    ---------------------
                                    Active property flags
                                    ---------------------
   (+) Dipole Moment


------------------------------------------------------------------------------
                       ORCA ELECTRIC PROPERTIES CALCULATION
------------------------------------------------------------------------------

Dipole Moment Calculation                       ... on
Quadrupole Moment Calculation                   ... off
Polarizability Calculation                      ... off
GBWName                                         ... Fe3_O_piv_6_H2O_3_HighSpin.gbw
Electron density                                ... Fe3_O_piv_6_H2O_3_HighSpin.scfp
The origin for moment calculation is the CENTER OF MASS  = (21.571397,  7.833646 45.358575)

-------------
DIPOLE MOMENT
-------------
                                X             Y             Z
Electronic contribution:      1.40657      -0.72378      -1.59778
Nuclear contribution   :     -1.34374       0.87632       1.73769
                        -----------------------------------------
Total Dipole Moment    :      0.06283       0.15253       0.13991
                        -----------------------------------------
Magnitude (a.u.)       :      0.21631
Magnitude (Debye)      :      0.54980



--------------------
Rotational spectrum 
--------------------
 
Rotational constants in cm-1:     0.001885     0.001850     0.001827 
Rotational constants in MHz :    56.507660    55.458386    54.781194 

 Dipole components along the rotational axes: 
x,y,z [a.u.] :    -0.179710     0.102940    -0.062415 
x,y,z [Debye]:    -0.456786     0.261651    -0.158647 

 

Timings for individual modules:

Sum of individual times         ...      516.865 sec (=   8.614 min)
GTO integral calculation        ...       19.258 sec (=   0.321 min)   3.7 %
SCF iterations                  ...      497.607 sec (=   8.293 min)  96.3 %
                             ****ORCA TERMINATED NORMALLY****
TOTAL RUN TIME: 0 days 0 hours 8 minutes 52 seconds 193 msec
