
                                 *****************
                                 * O   R   C   A *
                                 *****************

                                            #,                                       
                                            ###                                      
                                            ####                                     
                                            #####                                    
                                            ######                                   
                                           ########,                                 
                                     ,,################,,,,,                         
                               ,,#################################,,                 
                          ,,##########################################,,             
                       ,#########################################, ''#####,          
                    ,#############################################,,   '####,        
                  ,##################################################,,,,####,       
                ,###########''''           ''''###############################       
              ,#####''   ,,,,##########,,,,          '''####'''          '####       
            ,##' ,,,,###########################,,,                        '##       
           ' ,,###''''                  '''############,,,                           
         ,,##''                                '''############,,,,        ,,,,,,###''
      ,#''                                            '''#######################'''  
     '                                                          ''''####''''         
             ,#######,   #######,   ,#######,      ##                                
            ,#'     '#,  ##    ##  ,#'     '#,    #''#        ######   ,####,        
            ##       ##  ##   ,#'  ##            #'  '#       #        #'  '#        
            ##       ##  #######   ##           ,######,      #####,   #    #        
            '#,     ,#'  ##    ##  '#,     ,#' ,#      #,         ##   #,  ,#        
             '#######'   ##     ##  '#######'  #'      '#     #####' # '####'        



                  #######################################################
                  #                        -***-                        #
                  #          Department of theory and spectroscopy      #
                  #    Directorship and core code : Frank Neese         #
                  #        Max Planck Institute fuer Kohlenforschung    #
                  #                Kaiser Wilhelm Platz 1               #
                  #                 D-45470 Muelheim/Ruhr               #
                  #                      Germany                        #
                  #                                                     #
                  #                  All rights reserved                #
                  #                        -***-                        #
                  #######################################################


                         Program Version 5.0.3 -  RELEASE  -


 With contributions from (in alphabetic order):
   Daniel Aravena         : Magnetic Suceptibility
   Michael Atanasov       : Ab Initio Ligand Field Theory (pilot matlab implementation)
   Alexander A. Auer      : GIAO ZORA, VPT2 properties, NMR spectrum
   Ute Becker             : Parallelization
   Giovanni Bistoni       : ED, misc. LED, open-shell LED, HFLD
   Martin Brehm           : Molecular dynamics
   Dmytro Bykov           : SCF Hessian
   Vijay G. Chilkuri      : MRCI spin determinant printing, contributions to CSF-ICE
   Dipayan Datta          : RHF DLPNO-CCSD density
   Achintya Kumar Dutta   : EOM-CC, STEOM-CC
   Dmitry Ganyushin       : Spin-Orbit,Spin-Spin,Magnetic field MRCI
   Miquel Garcia          : C-PCM and meta-GGA Hessian, CC/C-PCM, Gaussian charge scheme
   Yang Guo               : DLPNO-NEVPT2, F12-NEVPT2, CIM, IAO-localization
   Andreas Hansen         : Spin unrestricted coupled pair/coupled cluster methods
   Benjamin Helmich-Paris : MC-RPA, TRAH-SCF, COSX integrals
   Lee Huntington         : MR-EOM, pCC
   Robert Izsak           : Overlap fitted RIJCOSX, COSX-SCS-MP3, EOM
   Marcus Kettner         : VPT2
   Christian Kollmar      : KDIIS, OOCD, Brueckner-CCSD(T), CCSD density, CASPT2, CASPT2-K
   Simone Kossmann        : Meta GGA functionals, TD-DFT gradient, OOMP2, MP2 Hessian
   Martin Krupicka        : Initial AUTO-CI
   Lucas Lang             : DCDCAS
   Marvin Lechner         : AUTO-CI (C++ implementation), FIC-MRCC
   Dagmar Lenk            : GEPOL surface, SMD
   Dimitrios Liakos       : Extrapolation schemes; Compound Job, initial MDCI parallelization
   Dimitrios Manganas     : Further ROCIS development; embedding schemes
   Dimitrios Pantazis     : SARC Basis sets
   Anastasios Papadopoulos: AUTO-CI, single reference methods and gradients
   Taras Petrenko         : DFT Hessian,TD-DFT gradient, ASA, ECA, R-Raman, ABS, FL, XAS/XES, NRVS
   Peter Pinski           : DLPNO-MP2, DLPNO-MP2 Gradient
   Christoph Reimann      : Effective Core Potentials
   Marius Retegan         : Local ZFS, SOC
   Christoph Riplinger    : Optimizer, TS searches, QM/MM, DLPNO-CCSD(T), (RO)-DLPNO pert. Triples
   Tobias Risthaus        : Range-separated hybrids, TD-DFT gradient, RPA, STAB
   Michael Roemelt        : Original ROCIS implementation
   Masaaki Saitow         : Open-shell DLPNO-CCSD energy and density
   Barbara Sandhoefer     : DKH picture change effects
   Avijit Sen             : IP-ROCIS
   Kantharuban Sivalingam : CASSCF convergence, NEVPT2, FIC-MRCI
   Bernardo de Souza      : ESD, SOC TD-DFT
   Georgi Stoychev        : AutoAux, RI-MP2 NMR, DLPNO-MP2 response
   Willem Van den Heuvel  : Paramagnetic NMR
   Boris Wezisla          : Elementary symmetry handling
   Frank Wennmohs         : Technical directorship


 We gratefully acknowledge several colleagues who have allowed us to
 interface, adapt or use parts of their codes:
   Stefan Grimme, W. Hujo, H. Kruse, P. Pracht,  : VdW corrections, initial TS optimization,
                  C. Bannwarth, S. Ehlert          DFT functionals, gCP, sTDA/sTD-DF
   Ed Valeev, F. Pavosevic, A. Kumar             : LibInt (2-el integral package), F12 methods
   Garnet Chan, S. Sharma, J. Yang, R. Olivares  : DMRG
   Ulf Ekstrom                                   : XCFun DFT Library
   Mihaly Kallay                                 : mrcc  (arbitrary order and MRCC methods)
   Jiri Pittner, Ondrej Demel                    : Mk-CCSD
   Frank Weinhold                                : gennbo (NPA and NBO analysis)
   Christopher J. Cramer and Donald G. Truhlar   : smd solvation model
   Lars Goerigk                                  : TD-DFT with DH, B97 family of functionals
   V. Asgeirsson, H. Jonsson                     : NEB implementation
   FAccTs GmbH                                   : IRC, NEB, NEB-TS, DLPNO-Multilevel, CI-OPT
                                                   MM, QMMM, 2- and 3-layer-ONIOM, Crystal-QMMM,
                                                   LR-CPCM, SF, NACMEs, symmetry and pop. for TD-DFT,
                                                   nearIR, NL-DFT gradient (VV10), updates on ESD,
                                                   ML-optimized integration grids
   S Lehtola, MJT Oliveira, MAL Marques          : LibXC Library
   Liviu Ungur et al                             : ANISO software


 Your calculation uses the libint2 library for the computation of 2-el integrals
 For citations please refer to: http://libint.valeyev.net

 Your ORCA version has been built with support for libXC version: 5.1.0
 For citations please refer to: https://tddft.org/programs/libxc/

 This ORCA versions uses:
   CBLAS   interface :  Fast vector & matrix operations
   LAPACKE interface :  Fast linear algebra routines
   SCALAPACK package :  Parallel linear algebra routines
   Shared memory     :  Shared parallel matrices
   BLAS/LAPACK       :  OpenBLAS 0.3.15  USE64BITINT DYNAMIC_ARCH NO_AFFINITY Zen SINGLE_THREADED
        Core in use  :  Zen
   Copyright (c) 2011-2014, The OpenBLAS Project


================================================================================

----- Orbital basis set information -----
Your calculation utilizes the basis: def2-TZVP
   F. Weigend and R. Ahlrichs, Phys. Chem. Chem. Phys. 7, 3297 (2005).

----- AuxJ basis set information -----
Your calculation utilizes the auxiliary basis: def2/J
   F. Weigend, Phys. Chem. Chem. Phys. 8, 1057 (2006).

================================================================================
                                        WARNINGS
                       Please study these warnings very carefully!
================================================================================


WARNING: your system is open-shell and RHF/RKS was chosen
  ===> : WILL SWITCH to UHF/UKS


INFO   : the flag for use of the SHARK integral package has been found!

================================================================================
                                       INPUT FILE
================================================================================
NAME = Fe_EtOH_3_HighSpin.inp
|  1> ! PBE0 def2-TZVP
|  2> %pal nprocs 32 end
|  3> %maxcore 3000
|  4> 
|  5> * xyz 3 6
|  6>   Fe  0.50351475542534     -0.58648829044104     -0.16866363013748
|  7>   O   -0.18336546739423      0.88746104844726     -1.08250498166829
|  8>   O   -0.64871286894009     -1.48946077478038      0.98055434262977
|  9>   O   2.27865313248318     -1.14529972552886     -0.33930404065523
| 10>   H   -1.14893183295796      0.99214608051140     -1.19009278362485
| 11>   C   3.46496071091656     -0.85231608777546     -1.39667714064035
| 12>   H   -1.46431105680591     -1.06034171769767      1.30527934256603
| 13>   C   0.44044049641806      2.18999673049048     -1.84516727421546
| 14>   H   2.67865676805412     -1.74506845358789      0.31981439768693
| 15>   C   -0.67838251850244     -2.98108200346903      1.69744081122332
| 16>   H   0.73972968936425      1.75305209878891     -2.79805314169007
| 17>   H   1.28437424133712      2.43643929135677     -1.20200660420438
| 18>   C   -0.61804786022459      3.21797250803735     -1.92671731123101
| 19>   H   -1.47110950652487      2.91445629824412     -2.54012862752588
| 20>   H   -0.14948432144531      4.05832054768281     -2.46633752186762
| 21>   H   -0.92839054663857      3.60589375975738     -0.95534822665590
| 22>   H   -0.15836070466258     -3.58105485636665      0.95198177072890
| 23>   C   -2.08749654987733     -3.34214020391009      1.93775681774907
| 24>   H   -0.08048805048906     -2.78386511088875      2.58755570098206
| 25>   H   -2.67036881040845     -3.48433099252398      1.02688873740427
| 26>   H   -2.59266426290002     -2.68840249777627      2.65399523376576
| 27>   H   -2.02944924040415     -4.32899596538992      2.43130704702576
| 28>   H   3.92856990351259      0.03454224998303     -0.96275116218370
| 29>   H   2.90774013996318     -0.63387310866008     -2.30687371749693
| 30>   C   4.33362083345252     -2.04901437565184     -1.46316455944553
| 31>   H   4.84257320338818     -2.26626624319184     -0.51973935478080
| 32>   H   5.13101277833462     -1.78029007316024     -2.17515661867524
| 33>   H   3.83291694552577     -2.93043013249949     -1.86549750506312
| 34> *
| 35> 
| 36>                          ****END OF INPUT****
================================================================================

                       ****************************
                       * Single Point Calculation *
                       ****************************

---------------------------------
CARTESIAN COORDINATES (ANGSTROEM)
---------------------------------
  Fe     0.503515   -0.586488   -0.168664
  O     -0.183365    0.887461   -1.082505
  O     -0.648713   -1.489461    0.980554
  O      2.278653   -1.145300   -0.339304
  H     -1.148932    0.992146   -1.190093
  C      3.464961   -0.852316   -1.396677
  H     -1.464311   -1.060342    1.305279
  C      0.440440    2.189997   -1.845167
  H      2.678657   -1.745068    0.319814
  C     -0.678383   -2.981082    1.697441
  H      0.739730    1.753052   -2.798053
  H      1.284374    2.436439   -1.202007
  C     -0.618048    3.217973   -1.926717
  H     -1.471110    2.914456   -2.540129
  H     -0.149484    4.058321   -2.466338
  H     -0.928391    3.605894   -0.955348
  H     -0.158361   -3.581055    0.951982
  C     -2.087497   -3.342140    1.937757
  H     -0.080488   -2.783865    2.587556
  H     -2.670369   -3.484331    1.026889
  H     -2.592664   -2.688402    2.653995
  H     -2.029449   -4.328996    2.431307
  H      3.928570    0.034542   -0.962751
  H      2.907740   -0.633873   -2.306874
  C      4.333621   -2.049014   -1.463165
  H      4.842573   -2.266266   -0.519739
  H      5.131013   -1.780290   -2.175157
  H      3.832917   -2.930430   -1.865498

----------------------------
CARTESIAN COORDINATES (A.U.)
----------------------------
  NO LB      ZA    FRAG     MASS         X           Y           Z
   0 Fe   26.0000    0    55.850    0.951505   -1.108302   -0.318728
   1 O     8.0000    0    15.999   -0.346511    1.677058   -2.045638
   2 O     8.0000    0    15.999   -1.225890   -2.814673    1.852979
   3 O     8.0000    0    15.999    4.306030   -2.164303   -0.641192
   4 H     1.0000    0     1.008   -2.171167    1.874884   -2.248949
   5 C     6.0000    0    12.011    6.547827   -1.610644   -2.639337
   6 H     1.0000    0     1.008   -2.767147   -2.003755    2.466620
   7 C     6.0000    0    12.011    0.832312    4.138494   -3.486861
   8 H     1.0000    0     1.008    5.061928   -3.297701    0.604362
   9 C     6.0000    0    12.011   -1.281957   -5.633429    3.207698
  10 H     1.0000    0     1.008    1.397887    3.312788   -5.287554
  11 H     1.0000    0     1.008    2.427116    4.604203   -2.271463
  12 C     6.0000    0    12.011   -1.167941    6.081087   -3.640968
  13 H     1.0000    0     1.008   -2.779994    5.507524   -4.800147
  14 H     1.0000    0     1.008   -0.282484    7.669114   -4.660702
  15 H     1.0000    0     1.008   -1.754404    6.814152   -1.805347
  16 H     1.0000    0     1.008   -0.299258   -6.767213    1.798985
  17 C     6.0000    0    12.011   -3.944797   -6.315730    3.661830
  18 H     1.0000    0     1.008   -0.152100   -5.260743    4.889772
  19 H     1.0000    0     1.008   -5.046266   -6.584431    1.940538
  20 H     1.0000    0     1.008   -4.899425   -5.080344    5.015324
  21 H     1.0000    0     1.008   -3.835103   -8.180617    4.594504
  22 H     1.0000    0     1.008    7.423921    0.065275   -1.819336
  23 H     1.0000    0     1.008    5.494833   -1.197847   -4.359360
  24 C     6.0000    0    12.011    8.189357   -3.872076   -2.764980
  25 H     1.0000    0     1.008    9.151137   -4.282623   -0.982165
  26 H     1.0000    0     1.008    9.696209   -3.364261   -4.110450
  27 H     1.0000    0     1.008    7.243163   -5.537710   -3.525279

--------------------------------
INTERNAL COORDINATES (ANGSTROEM)
--------------------------------
 Fe     0   0   0     0.000000000000     0.00000000     0.00000000
 O      1   0   0     1.865324934127     0.00000000     0.00000000
 O      1   2   0     1.861099071720   117.25300720     0.00000000
 O      1   2   3     1.868824397152   122.77366911   181.38172617
 H      2   1   3     0.977165542463   120.16279573   339.91564734
 C      4   1   2     1.615921704543   134.65743532   343.67630928
 H      3   1   2     0.977133509192   120.59042995   341.23795619
 C      2   1   3     1.633213659004   135.91596769   160.45182025
 H      4   1   2     0.976812444326   120.72758948   162.66775197
 C      3   1   2     1.655216114842   135.70616031   161.84249911
 H      8   2   1     1.090177099659   101.14947879    79.15005667
 H      8   2   1     1.089318020171   101.57373971   322.38493742
 C      8   2   1     1.477762568516   107.87687797   200.55576224
 H     13   8   2     1.093668004906   113.36559029   295.71525129
 H     13   8   2     1.103143956760   104.63540643   181.19901544
 H     13   8   2     1.091033170447   113.69988422    65.29507135
 H     10   3   1     1.089081857409   101.03655865   329.08084561
 C     10   3   1     1.474353132908   107.96377721   207.27642002
 H     10   3   1     1.090264561733   100.41388093    85.61398494
 H     18  10   3     1.090705712947   113.98865882    65.52760340
 H     18  10   3     1.093418892868   113.69809412   295.19221011
 H     18  10   3     1.104918826395   103.96464379   181.10518927
 H      6   4   1     1.090753386193   101.48660082    88.71054437
 H      6   4   1     1.089343797127   101.97993015   332.18598809
 C      6   4   1     1.480228961191   108.27824861   210.35709753
 H     25   6   4     1.093746773988   113.26067262   296.01846640
 H     25   6   4     1.102261020321   104.85936535   181.37724510
 H     25   6   4     1.090628222142   113.61092401    64.99292199

---------------------------
INTERNAL COORDINATES (A.U.)
---------------------------
 Fe     0   0   0     0.000000000000     0.00000000     0.00000000
 O      1   0   0     3.524953276276     0.00000000     0.00000000
 O      1   2   0     3.516967553645   117.25300720     0.00000000
 O      1   2   3     3.531566303008   122.77366911   181.38172617
 H      2   1   3     1.846575262759   120.16279573   339.91564734
 C      4   1   2     3.053649475445   134.65743532   343.67630928
 H      3   1   2     1.846514728650   120.59042995   341.23795619
 C      2   1   3     3.086326533697   135.91596769   160.45182025
 H      4   1   2     1.845908003982   120.72758948   162.66775197
 C      3   1   2     3.127905149504   135.70616031   161.84249911
 H      8   2   1     2.060136155827   101.14947879    79.15005667
 H      8   2   1     2.058512730868   101.57373971   322.38493742
 C      8   2   1     2.792566545456   107.87687797   200.55576224
 H     13   8   2     2.066733010704   113.36559029   295.71525129
 H     13   8   2     2.084639964567   104.63540643   181.19901544
 H     13   8   2     2.061753895168   113.69988422    65.29507135
 H     10   3   1     2.058066447926   101.03655865   329.08084561
 C     10   3   1     2.786123645885   107.96377721   207.27642002
 H     10   3   1     2.060301435195   100.41388093    85.61398494
 H     18  10   3     2.061135090172   113.98865882    65.52760340
 H     18  10   3     2.066262257175   113.69809412   295.19221011
 H     18  10   3     2.087993982100   103.96464379   181.10518927
 H      6   4   1     2.061225179551   101.48660082    88.71054437
 H      6   4   1     2.058561442257   101.97993015   332.18598809
 C      6   4   1     2.797227352151   108.27824861   210.35709753
 H     25   6   4     2.066881862697   113.26067262   296.01846640
 H     25   6   4     2.082971456503   104.85936535   181.37724510
 H     25   6   4     2.060988653775   113.61092401    64.99292199

---------------------
BASIS SET INFORMATION
---------------------
There are 4 groups of distinct atoms

 Group   1 Type Fe  : 17s11p7d1f contracted to 6s4p4d1f pattern {842111/6311/4111/1}
 Group   2 Type O   : 11s6p2d1f contracted to 5s3p2d1f pattern {62111/411/11/1}
 Group   3 Type H   : 5s1p contracted to 3s1p pattern {311/1}
 Group   4 Type C   : 11s6p2d1f contracted to 5s3p2d1f pattern {62111/411/11/1}

Atom   0Fe   basis set group =>   1
Atom   1O    basis set group =>   2
Atom   2O    basis set group =>   2
Atom   3O    basis set group =>   2
Atom   4H    basis set group =>   3
Atom   5C    basis set group =>   4
Atom   6H    basis set group =>   3
Atom   7C    basis set group =>   4
Atom   8H    basis set group =>   3
Atom   9C    basis set group =>   4
Atom  10H    basis set group =>   3
Atom  11H    basis set group =>   3
Atom  12C    basis set group =>   4
Atom  13H    basis set group =>   3
Atom  14H    basis set group =>   3
Atom  15H    basis set group =>   3
Atom  16H    basis set group =>   3
Atom  17C    basis set group =>   4
Atom  18H    basis set group =>   3
Atom  19H    basis set group =>   3
Atom  20H    basis set group =>   3
Atom  21H    basis set group =>   3
Atom  22H    basis set group =>   3
Atom  23H    basis set group =>   3
Atom  24C    basis set group =>   4
Atom  25H    basis set group =>   3
Atom  26H    basis set group =>   3
Atom  27H    basis set group =>   3
---------------------------------
AUXILIARY/J BASIS SET INFORMATION
---------------------------------
There are 4 groups of distinct atoms

 Group   1 Type Fe  : 19s5p5d3f3g contracted to 8s5p5d2f3g pattern {121111111/11111/11111/21/111}
 Group   2 Type O   : 12s5p4d2f1g contracted to 6s4p3d1f1g pattern {711111/2111/211/2/1}
 Group   3 Type H   : 5s2p1d contracted to 3s1p1d pattern {311/2/1}
 Group   4 Type C   : 12s5p4d2f1g contracted to 6s4p3d1f1g pattern {711111/2111/211/2/1}

Atom   0Fe   basis set group =>   1
Atom   1O    basis set group =>   2
Atom   2O    basis set group =>   2
Atom   3O    basis set group =>   2
Atom   4H    basis set group =>   3
Atom   5C    basis set group =>   4
Atom   6H    basis set group =>   3
Atom   7C    basis set group =>   4
Atom   8H    basis set group =>   3
Atom   9C    basis set group =>   4
Atom  10H    basis set group =>   3
Atom  11H    basis set group =>   3
Atom  12C    basis set group =>   4
Atom  13H    basis set group =>   3
Atom  14H    basis set group =>   3
Atom  15H    basis set group =>   3
Atom  16H    basis set group =>   3
Atom  17C    basis set group =>   4
Atom  18H    basis set group =>   3
Atom  19H    basis set group =>   3
Atom  20H    basis set group =>   3
Atom  21H    basis set group =>   3
Atom  22H    basis set group =>   3
Atom  23H    basis set group =>   3
Atom  24C    basis set group =>   4
Atom  25H    basis set group =>   3
Atom  26H    basis set group =>   3
Atom  27H    basis set group =>   3


           ************************************************************
           *        Program running with 32 parallel MPI-processes    *
           *              working on a common directory               *
           ************************************************************
------------------------------------------------------------------------------
                           ORCA GTO INTEGRAL CALCULATION
                           -- RI-GTO INTEGRALS CHOSEN --
------------------------------------------------------------------------------
------------------------------------------------------------------------------
                   ___                                                        
                  /   \      - P O W E R E D   B Y -                         
                 /     \                                                     
                 |  |  |   _    _      __       _____    __    __             
                 |  |  |  | |  | |    /  \     |  _  \  |  |  /  |          
                  \  \/   | |  | |   /    \    | | | |  |  | /  /          
                 / \  \   | |__| |  /  /\  \   | |_| |  |  |/  /          
                |  |  |   |  __  | /  /__\  \  |    /   |      \           
                |  |  |   | |  | | |   __   |  |    \   |  |\   \          
                \     /   | |  | | |  |  |  |  | |\  \  |  | \   \       
                 \___/    |_|  |_| |__|  |__|  |_| \__\ |__|  \__/        
                                                                              
                      - O R C A' S   B I G   F R I E N D -                    
                                      &                                       
                       - I N T E G R A L  F E E D E R -                       
                                                                              
 v1 FN, 2020, v2 2021                                                         
------------------------------------------------------------------------------


Reading SHARK input file Fe_EtOH_3_HighSpin.SHARKINP.tmp ... ok
----------------------
SHARK INTEGRAL PACKAGE
----------------------

Number of atoms                             ...     28
Number of basis functions                   ...    432
Number of shells                            ...    186
Maximum angular momentum                    ...      3
Integral batch strategy                     ... SHARK/LIBINT Hybrid
RI-J (if used) integral strategy            ... SPLIT-RIJ (Revised 2003 algorithm where possible)
Printlevel                                  ...      1
Contraction scheme used                     ... SEGMENTED contraction
Coulomb Range Separation                    ... NOT USED
Exchange Range Separation                   ... NOT USED
Finite Nucleus Model                        ... NOT USED
Auxiliary Coulomb fitting basis             ... AVAILABLE
   # of basis functions in Aux-J            ...    728
   # of shells in Aux-J                     ...    248
   Maximum angular momentum in Aux-J        ...      4
Auxiliary J/K fitting basis                 ... NOT available
Auxiliary Correlation fitting basis         ... NOT available
Auxiliary 'external' fitting basis          ... NOT available
Integral threshold                          ...     1.000000e-10
Primitive cut-off                           ...     1.000000e-11
Primitive pair pre-selection threshold      ...     1.000000e-11

Calculating pre-screening integrals         ... done (  0.0 sec) Dimension = 186
Organizing shell pair data                  ... done (  0.1 sec)
Shell pair information
Total number of shell pairs                 ...     17391
Shell pairs after pre-screening             ...     12373
Total number of primitive shell pairs       ...     52961
Primitive shell pairs kept                  ...     26222
          la=0 lb=0:   4005 shell pairs
          la=1 lb=0:   3677 shell pairs
          la=1 lb=1:    881 shell pairs
          la=2 lb=0:   1653 shell pairs
          la=2 lb=1:    785 shell pairs
          la=2 lb=2:    191 shell pairs
          la=3 lb=0:    681 shell pairs
          la=3 lb=1:    320 shell pairs
          la=3 lb=2:    148 shell pairs
          la=3 lb=3:     32 shell pairs

Calculating one electron integrals          ... done (  0.0 sec)
Calculating RI/J V-Matrix + Cholesky decomp.... done (  0.1 sec)
Calculating Nuclear repulsion               ... done (  0.0 sec) ENN=    821.951112313389 Eh

SHARK setup successfully completed in   0.5 seconds

Maximum memory used throughout the entire GTOINT-calculation: 28.4 MB


           ************************************************************
           *        Program running with 32 parallel MPI-processes    *
           *              working on a common directory               *
           ************************************************************
-------------------------------------------------------------------------------
                                 ORCA SCF
-------------------------------------------------------------------------------

------------
SCF SETTINGS
------------
Hamiltonian:
 Density Functional     Method          .... DFT(GTOs)
 Exchange Functional    Exchange        .... PBE
   PBE kappa parameter   XKappa         ....  0.804000
   PBE mue parameter    XMuePBE         ....  0.219520
 Correlation Functional Correlation     .... PBE
   PBE beta parameter  CBetaPBE         ....  0.066725
 LDA part of GGA corr.  LDAOpt          .... PW91-LDA
 Gradients option       PostSCFGGA      .... off
 Hybrid DFT is turned on
   Fraction HF Exchange ScalHFX         ....  0.250000
   Scaling of DF-GGA-X  ScalDFX         ....  0.750000
   Scaling of DF-GGA-C  ScalDFC         ....  1.000000
   Scaling of DF-LDA-C  ScalLDAC        ....  1.000000
   Perturbative correction              ....  0.000000
   Density functional embedding theory  .... OFF
   NL short-range parameter             ....  6.900000
 RI-approximation to the Coulomb term is turned on
   Number of AuxJ basis functions       .... 728
   RIJ-COSX (HFX calculated with COS-X)).... on


General Settings:
 Integral files         IntName         .... Fe_EtOH_3_HighSpin
 Hartree-Fock type      HFTyp           .... UHF
 Total Charge           Charge          ....    3
 Multiplicity           Mult            ....    6
 Number of Electrons    NEL             ....  101
 Basis Dimension        Dim             ....  432
 Nuclear Repulsion      ENuc            ....    821.9511123134 Eh

Convergence Acceleration:
 DIIS                   CNVDIIS         .... on
   Start iteration      DIISMaxIt       ....    12
   Startup error        DIISStart       ....  0.200000
   # of expansion vecs  DIISMaxEq       ....     5
   Bias factor          DIISBfac        ....   1.050
   Max. coefficient     DIISMaxC        ....  10.000
 Trust-Rad. Augm. Hess. CNVTRAH         .... auto
   Auto Start mean grad. ratio tolernc. ....  1.125000
   Auto Start start iteration           ....    20
   Auto Start num. interpolation iter.  ....    10
   Max. Number of Micro iterations      ....    16
   Max. Number of Macro iterations      .... Maxiter - #DIIS iter
   Number of Davidson start vectors     ....     2
   Converg. threshold I  (grad. norm)   ....   5.000e-05
   Converg. threshold II (energy diff.) ....   1.000e-06
   Grad. Scal. Fac. for Micro threshold ....   0.100
   Minimum threshold for Micro iter.    ....   0.010
   NR start threshold (gradient norm)   ....   0.001
   Initial trust radius                 ....   0.400
   Minimum AH scaling param. (alpha)    ....   1.000
   Maximum AH scaling param. (alpha)    .... 1000.000
   Orbital update algorithm             .... Taylor
   White noise on init. David. guess    .... on
   Maximum white noise                  ....   0.010
   Quad. conv. algorithm                .... NR
 SOSCF                  CNVSOSCF        .... off
 Level Shifting         CNVShift        .... on
   Level shift para.    LevelShift      ....    0.2500
   Turn off err/grad.   ShiftErr        ....    0.0010
 Zerner damping         CNVZerner       .... off
 Static damping         CNVDamp         .... on
   Fraction old density DampFac         ....    0.7000
   Max. Damping (<1)    DampMax         ....    0.9800
   Min. Damping (>=0)   DampMin         ....    0.0000
   Turn off err/grad.   DampErr         ....    0.1000
 Fernandez-Rico         CNVRico         .... off

SCF Procedure:
 Maximum # iterations   MaxIter         ....   125
 SCF integral mode      SCFMode         .... Direct
   Integral package                     .... SHARK and LIBINT hybrid scheme
 Reset frequency        DirectResetFreq ....    20
 Integral Threshold     Thresh          ....  1.000e-10 Eh
 Primitive CutOff       TCut            ....  1.000e-11 Eh

Convergence Tolerance:
 Convergence Check Mode ConvCheckMode   .... Total+1el-Energy
 Convergence forced     ConvForced      .... 0
 Energy Change          TolE            ....  1.000e-06 Eh
 1-El. energy change                    ....  1.000e-03 Eh
 DIIS Error             TolErr          ....  1.000e-06


Diagonalization of the overlap matrix:
Smallest eigenvalue                        ... 4.138e-04
Time for diagonalization                   ...    0.026 sec
Threshold for overlap eigenvalues          ... 1.000e-08
Number of eigenvalues below threshold      ... 0
Time for construction of square roots      ...    0.025 sec
Total time needed                          ...    0.054 sec

Time for model grid setup =    0.994 sec

------------------------------
INITIAL GUESS: MODEL POTENTIAL
------------------------------
Loading Hartree-Fock densities                     ... done
Calculating cut-offs                               ... done
Initializing the effective Hamiltonian             ... done
Setting up the integral package (SHARK)            ... done
Starting the Coulomb interaction                   ... done (   0.1 sec)
Reading the grid                                   ... done
Mapping shells                                     ... done
Starting the XC term evaluation                    ... done (   0.0 sec)
  promolecular density results
     # of electrons  =    103.993715531
     EX              =   -114.576870341
     EC              =     -3.691873113
     EX+EC           =   -118.268743454
Transforming the Hamiltonian                       ... done (   0.0 sec)
Diagonalizing the Hamiltonian                      ... done (   0.0 sec)
Back transforming the eigenvectors                 ... done (   0.0 sec)
Now organizing SCF variables                       ... done
                      ------------------
                      INITIAL GUESS DONE (   1.2 sec)
                      ------------------
-------------------
DFT GRID GENERATION
-------------------

General Integration Accuracy     IntAcc      ... 4.388
Radial Grid Type                 RadialGrid  ... OptM3 with GC (2021)
Angular Grid (max. ang.)         AngularGrid ... 4 (Lebedev-302)
Angular grid pruning method      GridPruning ... 4 (adaptive)
Weight generation scheme         WeightScheme... Becke
Basis function cutoff            BFCut       ... 1.0000e-10
Integration weight cutoff        WCut        ... 1.0000e-14
Angular grids for H and He will be reduced by one unit
Partially contracted basis set               ... off
Rotationally invariant grid construction     ... off

Total number of grid points                  ...   123475
Total number of batches                      ...     1943
Average number of points per batch           ...       63
Average number of grid points per atom       ...     4410
Time for grid setup =    0.534 sec

--------------------
COSX GRID GENERATION
--------------------

GRIDX 1
-------
General Integration Accuracy     IntAcc      ... 3.816
Radial Grid Type                 RadialGrid  ... OptM3 with GC (2021)
Angular Grid (max. ang.)         AngularGrid ... 1 (Lebedev-50)
Angular grid pruning method      GridPruning ... 4 (adaptive)
Weight generation scheme         WeightScheme... Becke
Basis function cutoff            BFCut       ... 1.0000e-10
Integration weight cutoff        WCut        ... 1.0000e-14
Angular grids for H and He will be reduced by one unit
Partially contracted basis set               ... on
Rotationally invariant grid construction     ... off

Total number of grid points                  ...    15646
Total number of batches                      ...      261
Average number of points per batch           ...       59
Average number of grid points per atom       ...      559
UseSFitting                                  ... on

GRIDX 2
-------
General Integration Accuracy     IntAcc      ... 4.020
Radial Grid Type                 RadialGrid  ... OptM3 with GC (2021)
Angular Grid (max. ang.)         AngularGrid ... 2 (Lebedev-110)
Angular grid pruning method      GridPruning ... 4 (adaptive)
Weight generation scheme         WeightScheme... Becke
Basis function cutoff            BFCut       ... 1.0000e-10
Integration weight cutoff        WCut        ... 1.0000e-14
Angular grids for H and He will be reduced by one unit
Partially contracted basis set               ... on
Rotationally invariant grid construction     ... off

Total number of grid points                  ...    32493
Total number of batches                      ...      524
Average number of points per batch           ...       62
Average number of grid points per atom       ...     1160
UseSFitting                                  ... on

GRIDX 3
-------
General Integration Accuracy     IntAcc      ... 4.338
Radial Grid Type                 RadialGrid  ... OptM3 with GC (2021)
Angular Grid (max. ang.)         AngularGrid ... 3 (Lebedev-194)
Angular grid pruning method      GridPruning ... 4 (adaptive)
Weight generation scheme         WeightScheme... Becke
Basis function cutoff            BFCut       ... 1.0000e-10
Integration weight cutoff        WCut        ... 1.0000e-14
Angular grids for H and He will be reduced by one unit
Partially contracted basis set               ... on
Rotationally invariant grid construction     ... off

Total number of grid points                  ...    70967
Total number of batches                      ...     1122
Average number of points per batch           ...       63
Average number of grid points per atom       ...     2535
UseSFitting                                  ... on

Time for X-Grid setup             =    0.463 sec

--------------
SCF ITERATIONS
--------------
ITER       Energy         Delta-E        Max-DP      RMS-DP      [F,P]     Damp
               ***  Starting incremental Fock matrix formation  ***
  0  -1726.4384777096   0.000000000000 0.13818490  0.00089811  0.2876676 0.7000
  1  -1726.3278946469   0.110583062707 0.04475490  0.00042518  0.1930602 0.7000
                               ***Turning on DIIS***
  2  -1726.6553042387  -0.327409591804 0.09810894  0.00060370  0.0386071 0.0000
  3  -1726.7353231124  -0.080018873741 0.00546694  0.00006947  0.2470796 0.7000
  4  -1726.7838108912  -0.048487778803 0.00552253  0.00007558  0.2258742 0.7000
  5  -1726.8323294218  -0.048518530564 0.00496839  0.00007015  0.2038143 0.7000
  6  -1726.8751441283  -0.042814706521 0.00454274  0.00006601  0.1835513 0.7000
  7  -1726.9132217759  -0.038077647599 0.01971570  0.00018696  0.1647871 0.7000
  8  -1726.9985420122  -0.085320236326 0.01201797  0.00013648  0.1022630 0.7000
  9  -1727.0423899863  -0.043847974043 0.01829163  0.00030103  0.0652251 0.0000
 10  -1727.0984132791  -0.056023292822 0.01138537  0.00004300  0.0117215 0.0000
 11  -1727.0995459186  -0.001132639504 0.00502247  0.00002050  0.0042630 0.0000
 12  -1727.0998029385  -0.000257019867 0.00297453  0.00001312  0.0017133 0.0000
 13  -1727.0999067692  -0.000103830750 0.00178996  0.00002023  0.0006332 0.0000
               *** Restarting incremental Fock matrix formation ***
                                   *** Resetting DIIS ***
 14  -1727.0999881310  -0.000081361728 0.00170093  0.00001022  0.0013009 0.0000
 15  -1727.0999735237   0.000014607209 0.00055412  0.00000528  0.0024812 0.0000
 16  -1727.1000141843  -0.000040660549 0.00076631  0.00000661  0.0004229 0.0000
 17  -1727.1000251494  -0.000010965130 0.00062050  0.00000449  0.0005024 0.0000
 18  -1727.1000310758  -0.000005926339 0.00021724  0.00000238  0.0001478 0.0000
 19  -1727.1000319187  -0.000000842966 0.00010673  0.00000088  0.0001750 0.0000
 20  -1727.1000322624  -0.000000343667 0.00003605  0.00000038  0.0000439 0.0000
                 **** Energy Check signals convergence ****

               *****************************************************
               *                     SUCCESS                       *
               *           SCF CONVERGED AFTER  21 CYCLES          *
               *****************************************************

Old exchange energy                            =    -28.918703941 Eh
New exchange energy                            =    -28.918718458 Eh
Exchange energy change after final integration =     -0.000014517 Eh
Total energy after final integration           =  -1727.100046830 Eh
Final COS-X integration done in                =     1.450 sec

----------------
TOTAL SCF ENERGY
----------------

Total Energy       :        -1727.10004683 Eh          -46996.78154 eV

Components:
Nuclear Repulsion  :          821.95111231 Eh           22366.42685 eV
Electronic Energy  :        -2549.05115914 Eh          -69363.20840 eV
One Electron Energy:        -3961.17432648 Eh         -107789.03331 eV
Two Electron Energy:         1412.12316733 Eh           38425.82491 eV
Max COSX asymmetry :            0.00000068 Eh               0.00002 eV

Virial components:
Potential Energy   :        -3450.61711562 Eh          -93896.06530 eV
Kinetic Energy     :         1723.51706879 Eh           46899.28376 eV
Virial Ratio       :            2.00207888


DFT components:
N(Alpha)           :       53.000014314346 electrons
N(Beta)            :       48.000012534221 electrons
N(Total)           :      101.000026848568 electrons
E(X)               :      -86.589293442045 Eh       
E(C)               :       -3.594443992453 Eh       
E(XC)              :      -90.183737434498 Eh       
DFET-embed. en.    :        0.000000000000 Eh       

---------------
SCF CONVERGENCE
---------------

  Last Energy change         ...   -5.0749e-08  Tolerance :   1.0000e-06
  Last MAX-Density change    ...    0.0000e+00  Tolerance :   1.0000e-05
  Last RMS-Density change    ...    0.0000e+00  Tolerance :   1.0000e-06
  Last DIIS Error            ...    1.9690e-05  Tolerance :   1.0000e-06

             **** THE GBW FILE WAS UPDATED (Fe_EtOH_3_HighSpin.gbw) ****
             **** DENSITY Fe_EtOH_3_HighSpin.scfp WAS UPDATED ****
             **** ENERGY FILE WAS UPDATED (Fe_EtOH_3_HighSpin.en.tmp) ****
----------------------
UHF SPIN CONTAMINATION
----------------------

Warning: in a DFT calculation there is little theoretical justification to 
         calculate <S**2> as in Hartree-Fock theory. We will do it anyways
         but you should keep in mind that the values have only limited relevance

Expectation value of <S**2>     :     8.760928
Ideal value S*(S+1) for S=2.5   :     8.750000
Deviation                       :     0.010928

             **** THE GBW FILE WAS UPDATED (Fe_EtOH_3_HighSpin.gbw) ****
             **** DENSITY Fe_EtOH_3_HighSpin.scfp WAS UPDATED ****
----------------
ORBITAL ENERGIES
----------------
                 SPIN UP ORBITALS
  NO   OCC          E(Eh)            E(eV) 
   0   1.0000    -257.040697     -6994.4329 
   1   1.0000     -30.861799      -839.7922 
   2   1.0000     -26.681878      -726.0508 
   3   1.0000     -26.679027      -725.9732 
   4   1.0000     -26.677936      -725.9435 
   5   1.0000     -19.768860      -537.9380 
   6   1.0000     -19.767602      -537.9038 
   7   1.0000     -19.767275      -537.8949 
   8   1.0000     -10.730836      -292.0009 
   9   1.0000     -10.728975      -291.9502 
  10   1.0000     -10.728375      -291.9339 
  11   1.0000     -10.606775      -288.6250 
  12   1.0000     -10.605290      -288.5846 
  13   1.0000     -10.604947      -288.5753 
  14   1.0000      -4.286208      -116.6337 
  15   1.0000      -3.050555       -83.0098 
  16   1.0000      -3.046526       -82.9002 
  17   1.0000      -3.044433       -82.8432 
  18   1.0000      -1.573127       -42.8070 
  19   1.0000      -1.568508       -42.6813 
  20   1.0000      -1.566137       -42.6168 
  21   1.0000      -1.218496       -33.1570 
  22   1.0000      -1.218389       -33.1541 
  23   1.0000      -1.215864       -33.0854 
  24   1.0000      -1.107011       -30.1233 
  25   1.0000      -1.097042       -29.8520 
  26   1.0000      -1.082395       -29.4535 
  27   1.0000      -1.078036       -29.3349 
  28   1.0000      -1.070537       -29.1308 
  29   1.0000      -1.065411       -28.9913 
  30   1.0000      -1.044145       -28.4126 
  31   1.0000      -1.043303       -28.3897 
  32   1.0000      -0.996590       -27.1186 
  33   1.0000      -0.984832       -26.7986 
  34   1.0000      -0.964859       -26.2552 
  35   1.0000      -0.946517       -25.7560 
  36   1.0000      -0.935178       -25.4475 
  37   1.0000      -0.932776       -25.3821 
  38   1.0000      -0.925964       -25.1968 
  39   1.0000      -0.916168       -24.9302 
  40   1.0000      -0.907693       -24.6996 
  41   1.0000      -0.859602       -23.3910 
  42   1.0000      -0.852719       -23.2037 
  43   1.0000      -0.847997       -23.0752 
  44   1.0000      -0.819411       -22.2973 
  45   1.0000      -0.818192       -22.2641 
  46   1.0000      -0.813743       -22.1431 
  47   1.0000      -0.789903       -21.4943 
  48   1.0000      -0.785366       -21.3709 
  49   1.0000      -0.783659       -21.3245 
  50   1.0000      -0.771134       -20.9836 
  51   1.0000      -0.770123       -20.9561 
  52   1.0000      -0.769018       -20.9260 
  53   0.0000      -0.506081       -13.7712 
  54   0.0000      -0.432709       -11.7746 
  55   0.0000      -0.426494       -11.6055 
  56   0.0000      -0.409010       -11.1297 
  57   0.0000      -0.376295       -10.2395 
  58   0.0000      -0.373924       -10.1750 
  59   0.0000      -0.364554        -9.9200 
  60   0.0000      -0.353361        -9.6154 
  61   0.0000      -0.332072        -9.0361 
  62   0.0000      -0.311046        -8.4640 
  63   0.0000      -0.303796        -8.2667 
  64   0.0000      -0.297819        -8.1041 
  65   0.0000      -0.288993        -7.8639 
  66   0.0000      -0.281277        -7.6539 
  67   0.0000      -0.274376        -7.4662 
  68   0.0000      -0.259456        -7.0602 
  69   0.0000      -0.254341        -6.9210 
  70   0.0000      -0.241066        -6.5597 
  71   0.0000      -0.232573        -6.3286 
  72   0.0000      -0.231334        -6.2949 
  73   0.0000      -0.223779        -6.0893 
  74   0.0000      -0.223200        -6.0736 
  75   0.0000      -0.213483        -5.8092 
  76   0.0000      -0.210582        -5.7302 
  77   0.0000      -0.207063        -5.6345 
  78   0.0000      -0.200903        -5.4668 
  79   0.0000      -0.198104        -5.3907 
  80   0.0000      -0.191580        -5.2132 
  81   0.0000      -0.180213        -4.9038 
  82   0.0000      -0.163880        -4.4594 
  83   0.0000      -0.154107        -4.1935 
  84   0.0000      -0.151418        -4.1203 
  85   0.0000      -0.144162        -3.9228 
  86   0.0000      -0.123509        -3.3608 
  87   0.0000      -0.119268        -3.2454 
  88   0.0000      -0.116642        -3.1740 
  89   0.0000      -0.109370        -2.9761 
  90   0.0000      -0.100346        -2.7305 
  91   0.0000      -0.095209        -2.5908 
  92   0.0000      -0.086429        -2.3519 
  93   0.0000      -0.083570        -2.2740 
  94   0.0000      -0.081198        -2.2095 
  95   0.0000      -0.069875        -1.9014 
  96   0.0000      -0.065410        -1.7799 
  97   0.0000      -0.058423        -1.5898 
  98   0.0000      -0.054396        -1.4802 
  99   0.0000      -0.045152        -1.2286 
 100   0.0000      -0.035878        -0.9763 
 101   0.0000      -0.022087        -0.6010 
 102   0.0000       0.002540         0.0691 
 103   0.0000       0.007277         0.1980 
 104   0.0000       0.037847         1.0299 
 105   0.0000       0.040473         1.1013 
 106   0.0000       0.044358         1.2070 
 107   0.0000       0.058619         1.5951 
 108   0.0000       0.062498         1.7007 
 109   0.0000       0.064325         1.7504 
 110   0.0000       0.071615         1.9488 
 111   0.0000       0.078552         2.1375 
 112   0.0000       0.100052         2.7226 
 113   0.0000       0.101961         2.7745 
 114   0.0000       0.104055         2.8315 
 115   0.0000       0.106604         2.9008 
 116   0.0000       0.107417         2.9230 
 117   0.0000       0.111266         3.0277 
 118   0.0000       0.119335         3.2473 
 119   0.0000       0.122697         3.3388 
 120   0.0000       0.125275         3.4089 
 121   0.0000       0.132646         3.6095 
 122   0.0000       0.138865         3.7787 
 123   0.0000       0.144522         3.9326 
 124   0.0000       0.146066         3.9747 
 125   0.0000       0.156253         4.2519 
 126   0.0000       0.160155         4.3580 
 127   0.0000       0.175231         4.7683 
 128   0.0000       0.186654         5.0791 
 129   0.0000       0.196379         5.3437 
 130   0.0000       0.207564         5.6481 
 131   0.0000       0.208884         5.6840 
 132   0.0000       0.216951         5.9035 
 133   0.0000       0.233996         6.3673 
 134   0.0000       0.246200         6.6994 
 135   0.0000       0.259276         7.0553 
 136   0.0000       0.283079         7.7030 
 137   0.0000       0.292692         7.9646 
 138   0.0000       0.337182         9.1752 
 139   0.0000       0.347067         9.4442 
 140   0.0000       0.359672         9.7872 
 141   0.0000       0.378008        10.2861 
 142   0.0000       0.383812        10.4440 
 143   0.0000       0.390295        10.6205 
 144   0.0000       0.405415        11.0319 
 145   0.0000       0.423530        11.5248 
 146   0.0000       0.426000        11.5920 
 147   0.0000       0.437035        11.8923 
 148   0.0000       0.446016        12.1367 
 149   0.0000       0.468347        12.7444 
 150   0.0000       0.471516        12.8306 
 151   0.0000       0.480772        13.0825 
 152   0.0000       0.501385        13.6434 
 153   0.0000       0.512889        13.9564 
 154   0.0000       0.521695        14.1960 
 155   0.0000       0.547467        14.8973 
 156   0.0000       0.583579        15.8800 
 157   0.0000       0.594181        16.1685 
 158   0.0000       0.604429        16.4473 
 159   0.0000       0.619919        16.8689 
 160   0.0000       0.636067        17.3083 
 161   0.0000       0.642639        17.4871 
 162   0.0000       0.652043        17.7430 
 163   0.0000       0.655906        17.8481 
 164   0.0000       0.660200        17.9650 
 165   0.0000       0.662461        18.0265 
 166   0.0000       0.674116        18.3436 
 167   0.0000       0.694955        18.9107 
 168   0.0000       0.712112        19.3775 
 169   0.0000       0.734320        19.9819 
 170   0.0000       0.746084        20.3020 
 171   0.0000       0.753683        20.5088 
 172   0.0000       0.774778        21.0828 
 173   0.0000       0.776602        21.1324 
 174   0.0000       0.782891        21.3036 
 175   0.0000       0.788254        21.4495 
 176   0.0000       0.853566        23.2267 
 177   0.0000       0.860936        23.4273 
 178   0.0000       0.878356        23.9013 
 179   0.0000       0.934114        25.4185 
 180   0.0000       0.952924        25.9304 
 181   0.0000       0.991329        26.9754 
 182   0.0000       1.024236        27.8709 
 183   0.0000       1.057941        28.7880 
 184   0.0000       1.075913        29.2771 
 185   0.0000       1.079480        29.3741 
 186   0.0000       1.098814        29.9003 
 187   0.0000       1.122571        30.5467 
 188   0.0000       1.124823        30.6080 
 189   0.0000       1.127799        30.6890 
 190   0.0000       1.139267        31.0010 
 191   0.0000       1.151624        31.3373 
 192   0.0000       1.154191        31.4071 
 193   0.0000       1.157917        31.5085 
 194   0.0000       1.163265        31.6541 
 195   0.0000       1.165374        31.7114 
 196   0.0000       1.173120        31.9222 
 197   0.0000       1.178868        32.0786 
 198   0.0000       1.191294        32.4168 
 199   0.0000       1.203232        32.7416 
 200   0.0000       1.208287        32.8792 
 201   0.0000       1.211241        32.9595 
 202   0.0000       1.226442        33.3732 
 203   0.0000       1.227477        33.4014 
 204   0.0000       1.236470        33.6461 
 205   0.0000       1.246795        33.9270 
 206   0.0000       1.255599        34.1666 
 207   0.0000       1.260009        34.2866 
 208   0.0000       1.264211        34.4009 
 209   0.0000       1.301398        35.4128 
 210   0.0000       1.328381        36.1471 
 211   0.0000       1.340004        36.4634 
 212   0.0000       1.340395        36.4740 
 213   0.0000       1.349054        36.7096 
 214   0.0000       1.355972        36.8979 
 215   0.0000       1.364598        37.1326 
 216   0.0000       1.388391        37.7801 
 217   0.0000       1.390262        37.8309 
 218   0.0000       1.392923        37.9034 
 219   0.0000       1.452906        39.5356 
 220   0.0000       1.476302        40.1722 
 221   0.0000       1.502019        40.8720 
 222   0.0000       1.512327        41.1525 
 223   0.0000       1.516542        41.2672 
 224   0.0000       1.525688        41.5161 
 225   0.0000       1.535677        41.7879 
 226   0.0000       1.538105        41.8540 
 227   0.0000       1.541411        41.9439 
 228   0.0000       1.548754        42.1438 
 229   0.0000       1.569627        42.7117 
 230   0.0000       1.582100        43.0511 
 231   0.0000       1.602882        43.6166 
 232   0.0000       1.607068        43.7305 
 233   0.0000       1.632276        44.4165 
 234   0.0000       1.679952        45.7138 
 235   0.0000       1.688099        45.9355 
 236   0.0000       1.700494        46.2728 
 237   0.0000       1.706973        46.4491 
 238   0.0000       1.734498        47.1981 
 239   0.0000       1.789508        48.6950 
 240   0.0000       1.798460        48.9386 
 241   0.0000       1.837478        50.0003 
 242   0.0000       1.850206        50.3467 
 243   0.0000       1.859697        50.6049 
 244   0.0000       1.876413        51.0598 
 245   0.0000       1.877586        51.0917 
 246   0.0000       1.889068        51.4042 
 247   0.0000       1.899058        51.6760 
 248   0.0000       1.900981        51.7283 
 249   0.0000       1.954204        53.1766 
 250   0.0000       1.967248        53.5315 
 251   0.0000       1.972036        53.6618 
 252   0.0000       1.973818        53.7103 
 253   0.0000       1.977300        53.8051 
 254   0.0000       1.984822        54.0098 
 255   0.0000       1.988054        54.0977 
 256   0.0000       1.992730        54.2249 
 257   0.0000       2.003631        54.5216 
 258   0.0000       2.019904        54.9644 
 259   0.0000       2.025471        55.1159 
 260   0.0000       2.028248        55.1914 
 261   0.0000       2.039236        55.4904 
 262   0.0000       2.045860        55.6707 
 263   0.0000       2.052172        55.8424 
 264   0.0000       2.115112        57.5551 
 265   0.0000       2.124370        57.8071 
 266   0.0000       2.161853        58.8270 
 267   0.0000       2.168990        59.0212 
 268   0.0000       2.171933        59.1013 
 269   0.0000       2.177719        59.2588 
 270   0.0000       2.182714        59.3947 
 271   0.0000       2.189869        59.5894 
 272   0.0000       2.194638        59.7191 
 273   0.0000       2.195645        59.7465 
 274   0.0000       2.202859        59.9428 
 275   0.0000       2.205190        60.0063 
 276   0.0000       2.206953        60.0543 
 277   0.0000       2.207595        60.0717 
 278   0.0000       2.214878        60.2699 
 279   0.0000       2.264549        61.6215 
 280   0.0000       2.275287        61.9137 
 281   0.0000       2.296737        62.4974 
 282   0.0000       2.328700        63.3672 
 283   0.0000       2.336411        63.5770 
 284   0.0000       2.340777        63.6958 
 285   0.0000       2.344568        63.7989 
 286   0.0000       2.350805        63.9687 
 287   0.0000       2.359301        64.1998 
 288   0.0000       2.368794        64.4581 
 289   0.0000       2.391868        65.0860 
 290   0.0000       2.407087        65.5002 
 291   0.0000       2.472595        67.2827 
 292   0.0000       2.485337        67.6294 
 293   0.0000       2.489769        67.7501 
 294   0.0000       2.503208        68.1157 
 295   0.0000       2.512512        68.3689 
 296   0.0000       2.531351        68.8816 
 297   0.0000       2.562576        69.7312 
 298   0.0000       2.616228        71.1912 
 299   0.0000       2.638339        71.7929 
 300   0.0000       2.650735        72.1302 
 301   0.0000       2.653384        72.2023 
 302   0.0000       2.664440        72.5031 
 303   0.0000       2.668538        72.6146 
 304   0.0000       2.670331        72.6634 
 305   0.0000       2.674561        72.7785 
 306   0.0000       2.687341        73.1263 
 307   0.0000       2.694909        73.3322 
 308   0.0000       2.703509        73.5662 
 309   0.0000       2.711506        73.7838 
 310   0.0000       2.723269        74.1039 
 311   0.0000       2.731250        74.3211 
 312   0.0000       2.745566        74.7107 
 313   0.0000       2.755566        74.9828 
 314   0.0000       2.759398        75.0870 
 315   0.0000       2.780516        75.6617 
 316   0.0000       2.788410        75.8765 
 317   0.0000       2.799438        76.1766 
 318   0.0000       2.861802        77.8736 
 319   0.0000       2.866502        78.0015 
 320   0.0000       2.874534        78.2200 
 321   0.0000       2.884806        78.4996 
 322   0.0000       2.889374        78.6239 
 323   0.0000       2.920423        79.4688 
 324   0.0000       2.928634        79.6922 
 325   0.0000       2.932522        79.7980 
 326   0.0000       2.975524        80.9681 
 327   0.0000       2.978002        81.0356 
 328   0.0000       2.992478        81.4295 
 329   0.0000       3.029663        82.4413 
 330   0.0000       3.031089        82.4801 
 331   0.0000       3.035578        82.6023 
 332   0.0000       3.053447        83.0885 
 333   0.0000       3.086936        83.9998 
 334   0.0000       3.088565        84.0441 
 335   0.0000       3.099261        84.3352 
 336   0.0000       3.121228        84.9329 
 337   0.0000       3.139285        85.4243 
 338   0.0000       3.155028        85.8527 
 339   0.0000       3.188730        86.7698 
 340   0.0000       3.203928        87.1833 
 341   0.0000       3.307810        90.0101 
 342   0.0000       3.315578        90.2215 
 343   0.0000       3.316751        90.2534 
 344   0.0000       3.318976        90.3139 
 345   0.0000       3.322972        90.4227 
 346   0.0000       3.332510        90.6822 
 347   0.0000       3.356016        91.3218 
 348   0.0000       3.373098        91.7867 
 349   0.0000       3.377804        91.9147 
 350   0.0000       3.388516        92.2062 
 351   0.0000       3.400856        92.5420 
 352   0.0000       3.424059        93.1734 
 353   0.0000       3.460696        94.1703 
 354   0.0000       3.518316        95.7382 
 355   0.0000       3.520815        95.8062 
 356   0.0000       3.525974        95.9466 
 357   0.0000       3.531650        96.1011 
 358   0.0000       3.533104        96.1406 
 359   0.0000       3.553160        96.6864 
 360   0.0000       3.557375        96.8011 
 361   0.0000       3.564012        96.9817 
 362   0.0000       3.603575        98.0583 
 363   0.0000       3.609479        98.2189 
 364   0.0000       3.624006        98.6142 
 365   0.0000       3.656152        99.4890 
 366   0.0000       3.797603       103.3380 
 367   0.0000       3.826115       104.1139 
 368   0.0000       3.837585       104.4260 
 369   0.0000       3.860965       105.0622 
 370   0.0000       3.864528       105.1591 
 371   0.0000       3.873628       105.4068 
 372   0.0000       3.985047       108.4386 
 373   0.0000       3.995714       108.7289 
 374   0.0000       4.004237       108.9608 
 375   0.0000       4.023376       109.4816 
 376   0.0000       4.025362       109.5357 
 377   0.0000       4.026940       109.5786 
 378   0.0000       4.043777       110.0368 
 379   0.0000       4.046395       110.1080 
 380   0.0000       4.050174       110.2108 
 381   0.0000       4.158742       113.1651 
 382   0.0000       4.165265       113.3426 
 383   0.0000       4.173709       113.5724 
 384   0.0000       4.345838       118.2563 
 385   0.0000       4.350673       118.3878 
 386   0.0000       4.363089       118.7257 
 387   0.0000       4.643429       126.3541 
 388   0.0000       4.672182       127.1365 
 389   0.0000       4.676794       127.2620 
 390   0.0000       4.867590       132.4539 
 391   0.0000       4.869306       132.5006 
 392   0.0000       4.875313       132.6640 
 393   0.0000       4.894965       133.1988 
 394   0.0000       4.896697       133.2459 
 395   0.0000       4.898121       133.2847 
 396   0.0000       4.921754       133.9277 
 397   0.0000       4.928597       134.1139 
 398   0.0000       4.955326       134.8413 
 399   0.0000       4.977590       135.4471 
 400   0.0000       5.001048       136.0854 
 401   0.0000       5.022022       136.6562 
 402   0.0000       5.141046       139.8950 
 403   0.0000       5.221084       142.0729 
 404   0.0000       5.222489       142.1112 
 405   0.0000       5.635476       153.3491 
 406   0.0000       5.649202       153.7226 
 407   0.0000       5.661094       154.0462 
 408   0.0000       5.879773       159.9967 
 409   0.0000       5.907057       160.7392 
 410   0.0000       5.922601       161.1622 
 411   0.0000       6.052733       164.7032 
 412   0.0000       6.061310       164.9366 
 413   0.0000       6.085369       165.5913 
 414   0.0000       6.335719       172.4037 
 415   0.0000       6.344524       172.6433 
 416   0.0000       6.358341       173.0193 
 417   0.0000       6.380599       173.6249 
 418   0.0000       6.396773       174.0651 
 419   0.0000       6.430412       174.9804 
 420   0.0000       6.678238       181.7241 
 421   0.0000       6.682628       181.8436 
 422   0.0000       6.716384       182.7621 
 423   0.0000      21.815956       593.6423 
 424   0.0000      21.826836       593.9384 
 425   0.0000      21.855738       594.7249 
 426   0.0000      22.046785       599.9235 
 427   0.0000      22.051145       600.0422 
 428   0.0000      22.052949       600.0913 
 429   0.0000      43.223804      1176.1795 
 430   0.0000      43.270288      1177.4444 
 431   0.0000      43.292189      1178.0404 

                 SPIN DOWN ORBITALS
  NO   OCC          E(Eh)            E(eV) 
   0   1.0000    -257.038874     -6994.3834 
   1   1.0000     -30.766879      -837.2093 
   2   1.0000     -26.601684      -723.8686 
   3   1.0000     -26.598908      -723.7931 
   4   1.0000     -26.598549      -723.7833 
   5   1.0000     -19.762362      -537.7612 
   6   1.0000     -19.760846      -537.7199 
   7   1.0000     -19.760110      -537.6999 
   8   1.0000     -10.730602      -291.9945 
   9   1.0000     -10.728735      -291.9437 
  10   1.0000     -10.728127      -291.9272 
  11   1.0000     -10.606515      -288.6179 
  12   1.0000     -10.605054      -288.5782 
  13   1.0000     -10.604687      -288.5682 
  14   1.0000      -4.059282      -110.4587 
  15   1.0000      -2.808806       -76.4315 
  16   1.0000      -2.800863       -76.2154 
  17   1.0000      -2.800670       -76.2101 
  18   1.0000      -1.557198       -42.3735 
  19   1.0000      -1.552142       -42.2359 
  20   1.0000      -1.548700       -42.1423 
  21   1.0000      -1.215181       -33.0667 
  22   1.0000      -1.214241       -33.0412 
  23   1.0000      -1.212777       -33.0014 
  24   1.0000      -1.083363       -29.4798 
  25   1.0000      -1.081477       -29.4285 
  26   1.0000      -1.076564       -29.2948 
  27   1.0000      -1.032040       -28.0832 
  28   1.0000      -1.019898       -27.7528 
  29   1.0000      -1.016737       -27.6668 
  30   1.0000      -0.949862       -25.8471 
  31   1.0000      -0.941155       -25.6101 
  32   1.0000      -0.938638       -25.5416 
  33   1.0000      -0.924723       -25.1630 
  34   1.0000      -0.922381       -25.0993 
  35   1.0000      -0.919492       -25.0207 
  36   1.0000      -0.856847       -23.3160 
  37   1.0000      -0.852706       -23.2033 
  38   1.0000      -0.842906       -22.9366 
  39   1.0000      -0.819866       -22.3097 
  40   1.0000      -0.817846       -22.2547 
  41   1.0000      -0.813036       -22.1238 
  42   1.0000      -0.787972       -21.4418 
  43   1.0000      -0.787320       -21.4241 
  44   1.0000      -0.784175       -21.3385 
  45   1.0000      -0.770847       -20.9758 
  46   1.0000      -0.769704       -20.9447 
  47   1.0000      -0.767683       -20.8897 
  48   0.0000      -0.666361       -18.1326 
  49   0.0000      -0.666077       -18.1249 
  50   0.0000      -0.659637       -17.9496 
  51   0.0000      -0.636420       -17.3179 
  52   0.0000      -0.633600       -17.2411 
  53   0.0000      -0.479651       -13.0520 
  54   0.0000      -0.417354       -11.3568 
  55   0.0000      -0.404798       -11.0151 
  56   0.0000      -0.394851       -10.7444 
  57   0.0000      -0.370467       -10.0809 
  58   0.0000      -0.361320        -9.8320 
  59   0.0000      -0.361073        -9.8253 
  60   0.0000      -0.340769        -9.2728 
  61   0.0000      -0.323074        -8.7913 
  62   0.0000      -0.302704        -8.2370 
  63   0.0000      -0.297328        -8.0907 
  64   0.0000      -0.291467        -7.9312 
  65   0.0000      -0.286516        -7.7965 
  66   0.0000      -0.275948        -7.5089 
  67   0.0000      -0.266534        -7.2528 
  68   0.0000      -0.252877        -6.8811 
  69   0.0000      -0.245413        -6.6780 
  70   0.0000      -0.232273        -6.3205 
  71   0.0000      -0.230195        -6.2639 
  72   0.0000      -0.227893        -6.2013 
  73   0.0000      -0.221830        -6.0363 
  74   0.0000      -0.221230        -6.0200 
  75   0.0000      -0.211153        -5.7458 
  76   0.0000      -0.207105        -5.6356 
  77   0.0000      -0.203659        -5.5418 
  78   0.0000      -0.193996        -5.2789 
  79   0.0000      -0.193784        -5.2731 
  80   0.0000      -0.184559        -5.0221 
  81   0.0000      -0.176537        -4.8038 
  82   0.0000      -0.159451        -4.3389 
  83   0.0000      -0.152358        -4.1459 
  84   0.0000      -0.149826        -4.0770 
  85   0.0000      -0.142185        -3.8690 
  86   0.0000      -0.120703        -3.2845 
  87   0.0000      -0.117136        -3.1874 
  88   0.0000      -0.111839        -3.0433 
  89   0.0000      -0.106827        -2.9069 
  90   0.0000      -0.098539        -2.6814 
  91   0.0000      -0.092752        -2.5239 
  92   0.0000      -0.082840        -2.2542 
  93   0.0000      -0.080044        -2.1781 
  94   0.0000      -0.079095        -2.1523 
  95   0.0000      -0.067148        -1.8272 
  96   0.0000      -0.059524        -1.6197 
  97   0.0000      -0.052945        -1.4407 
  98   0.0000      -0.049696        -1.3523 
  99   0.0000      -0.041371        -1.1258 
 100   0.0000      -0.031556        -0.8587 
 101   0.0000      -0.018458        -0.5023 
 102   0.0000       0.007318         0.1991 
 103   0.0000       0.010340         0.2814 
 104   0.0000       0.039577         1.0769 
 105   0.0000       0.041972         1.1421 
 106   0.0000       0.050089         1.3630 
 107   0.0000       0.060514         1.6467 
 108   0.0000       0.064986         1.7684 
 109   0.0000       0.066280         1.8036 
 110   0.0000       0.074421         2.0251 
 111   0.0000       0.081000         2.2041 
 112   0.0000       0.101293         2.7563 
 113   0.0000       0.103079         2.8049 
 114   0.0000       0.105138         2.8609 
 115   0.0000       0.107846         2.9346 
 116   0.0000       0.108726         2.9586 
 117   0.0000       0.112456         3.0601 
 118   0.0000       0.121635         3.3099 
 119   0.0000       0.124332         3.3832 
 120   0.0000       0.128460         3.4956 
 121   0.0000       0.136691         3.7196 
 122   0.0000       0.140323         3.8184 
 123   0.0000       0.145873         3.9694 
 124   0.0000       0.149973         4.0810 
 125   0.0000       0.159829         4.3492 
 126   0.0000       0.163164         4.4399 
 127   0.0000       0.179900         4.8953 
 128   0.0000       0.191160         5.2017 
 129   0.0000       0.198740         5.4080 
 130   0.0000       0.209628         5.7043 
 131   0.0000       0.210952         5.7403 
 132   0.0000       0.219657         5.9772 
 133   0.0000       0.240795         6.5524 
 134   0.0000       0.257647         7.0109 
 135   0.0000       0.263849         7.1797 
 136   0.0000       0.293497         7.9865 
 137   0.0000       0.307492         8.3673 
 138   0.0000       0.343212         9.3393 
 139   0.0000       0.354163         9.6373 
 140   0.0000       0.371059        10.0970 
 141   0.0000       0.384938        10.4747 
 142   0.0000       0.394298        10.7294 
 143   0.0000       0.403325        10.9750 
 144   0.0000       0.416561        11.3352 
 145   0.0000       0.432933        11.7807 
 146   0.0000       0.442859        12.0508 
 147   0.0000       0.447564        12.1788 
 148   0.0000       0.453625        12.3438 
 149   0.0000       0.472729        12.8636 
 150   0.0000       0.481060        13.0903 
 151   0.0000       0.484027        13.1710 
 152   0.0000       0.513798        13.9812 
 153   0.0000       0.519027        14.1234 
 154   0.0000       0.559707        15.2304 
 155   0.0000       0.567666        15.4470 
 156   0.0000       0.595087        16.1931 
 157   0.0000       0.604515        16.4497 
 158   0.0000       0.614955        16.7338 
 159   0.0000       0.625568        17.0226 
 160   0.0000       0.639284        17.3958 
 161   0.0000       0.648190        17.6381 
 162   0.0000       0.656549        17.8656 
 163   0.0000       0.658018        17.9056 
 164   0.0000       0.661704        18.0059 
 165   0.0000       0.669265        18.2116 
 166   0.0000       0.678199        18.4547 
 167   0.0000       0.703530        19.1440 
 168   0.0000       0.715027        19.4569 
 169   0.0000       0.741920        20.1887 
 170   0.0000       0.754774        20.5384 
 171   0.0000       0.756968        20.5981 
 172   0.0000       0.776561        21.1313 
 173   0.0000       0.780061        21.2265 
 174   0.0000       0.784305        21.3420 
 175   0.0000       0.801587        21.8123 
 176   0.0000       0.867257        23.5993 
 177   0.0000       0.878506        23.9054 
 178   0.0000       0.904415        24.6104 
 179   0.0000       0.943028        25.6611 
 180   0.0000       0.968115        26.3437 
 181   0.0000       1.008358        27.4388 
 182   0.0000       1.034337        28.1457 
 183   0.0000       1.068078        29.0639 
 184   0.0000       1.079765        29.3819 
 185   0.0000       1.099735        29.9253 
 186   0.0000       1.121583        30.5198 
 187   0.0000       1.124810        30.6076 
 188   0.0000       1.128104        30.6973 
 189   0.0000       1.140169        31.0256 
 190   0.0000       1.141679        31.0667 
 191   0.0000       1.155589        31.4452 
 192   0.0000       1.158730        31.5306 
 193   0.0000       1.161033        31.5933 
 194   0.0000       1.166289        31.7363 
 195   0.0000       1.170495        31.8508 
 196   0.0000       1.181056        32.1382 
 197   0.0000       1.181845        32.1596 
 198   0.0000       1.195669        32.5358 
 199   0.0000       1.207882        32.8682 
 200   0.0000       1.212350        32.9897 
 201   0.0000       1.215109        33.0648 
 202   0.0000       1.229241        33.4493 
 203   0.0000       1.230090        33.4724 
 204   0.0000       1.238476        33.7006 
 205   0.0000       1.250484        34.0274 
 206   0.0000       1.260189        34.2915 
 207   0.0000       1.265205        34.4280 
 208   0.0000       1.274062        34.6690 
 209   0.0000       1.312677        35.7198 
 210   0.0000       1.331908        36.2431 
 211   0.0000       1.342908        36.5424 
 212   0.0000       1.345634        36.6166 
 213   0.0000       1.354295        36.8522 
 214   0.0000       1.360361        37.0173 
 215   0.0000       1.370288        37.2874 
 216   0.0000       1.390694        37.8427 
 217   0.0000       1.392039        37.8793 
 218   0.0000       1.394531        37.9471 
 219   0.0000       1.463499        39.8238 
 220   0.0000       1.483132        40.3581 
 221   0.0000       1.505605        40.9696 
 222   0.0000       1.513958        41.1969 
 223   0.0000       1.519245        41.3408 
 224   0.0000       1.529506        41.6200 
 225   0.0000       1.539261        41.8854 
 226   0.0000       1.541354        41.9424 
 227   0.0000       1.547513        42.1100 
 228   0.0000       1.561835        42.4997 
 229   0.0000       1.586399        43.1681 
 230   0.0000       1.595925        43.4273 
 231   0.0000       1.608810        43.7779 
 232   0.0000       1.612461        43.8773 
 233   0.0000       1.646252        44.7968 
 234   0.0000       1.688808        45.9548 
 235   0.0000       1.693808        46.0909 
 236   0.0000       1.704226        46.3743 
 237   0.0000       1.711236        46.5651 
 238   0.0000       1.742713        47.4216 
 239   0.0000       1.793712        48.8094 
 240   0.0000       1.811527        49.2942 
 241   0.0000       1.843296        50.1586 
 242   0.0000       1.855414        50.4884 
 243   0.0000       1.863990        50.7217 
 244   0.0000       1.880143        51.1613 
 245   0.0000       1.883796        51.2607 
 246   0.0000       1.897131        51.6236 
 247   0.0000       1.903205        51.7888 
 248   0.0000       1.907418        51.9035 
 249   0.0000       1.958140        53.2837 
 250   0.0000       1.969234        53.5856 
 251   0.0000       1.973005        53.6882 
 252   0.0000       1.975468        53.7552 
 253   0.0000       1.978842        53.8470 
 254   0.0000       1.986431        54.0535 
 255   0.0000       1.990589        54.1667 
 256   0.0000       1.996468        54.3267 
 257   0.0000       2.006440        54.5980 
 258   0.0000       2.022505        55.0352 
 259   0.0000       2.027142        55.1613 
 260   0.0000       2.029939        55.2375 
 261   0.0000       2.040852        55.5344 
 262   0.0000       2.047625        55.7187 
 263   0.0000       2.053778        55.8861 
 264   0.0000       2.124967        57.8233 
 265   0.0000       2.132002        58.0147 
 266   0.0000       2.165474        58.9255 
 267   0.0000       2.172096        59.1057 
 268   0.0000       2.175017        59.1852 
 269   0.0000       2.180353        59.3304 
 270   0.0000       2.187068        59.5132 
 271   0.0000       2.193625        59.6916 
 272   0.0000       2.198085        59.8129 
 273   0.0000       2.201916        59.9172 
 274   0.0000       2.206663        60.0464 
 275   0.0000       2.207710        60.0748 
 276   0.0000       2.208413        60.0940 
 277   0.0000       2.210277        60.1447 
 278   0.0000       2.218111        60.3579 
 279   0.0000       2.269415        61.7539 
 280   0.0000       2.281098        62.0718 
 281   0.0000       2.304943        62.7207 
 282   0.0000       2.333082        63.4864 
 283   0.0000       2.343764        63.7771 
 284   0.0000       2.346007        63.8381 
 285   0.0000       2.352068        64.0030 
 286   0.0000       2.354395        64.0663 
 287   0.0000       2.369427        64.4754 
 288   0.0000       2.375007        64.6272 
 289   0.0000       2.403826        65.4114 
 290   0.0000       2.423549        65.9481 
 291   0.0000       2.484355        67.6027 
 292   0.0000       2.493500        67.8516 
 293   0.0000       2.499024        68.0019 
 294   0.0000       2.510227        68.3067 
 295   0.0000       2.524297        68.6896 
 296   0.0000       2.537377        69.0455 
 297   0.0000       2.591434        70.5165 
 298   0.0000       2.628671        71.5298 
 299   0.0000       2.640375        71.8483 
 300   0.0000       2.655295        72.2543 
 301   0.0000       2.662520        72.4509 
 302   0.0000       2.667619        72.5896 
 303   0.0000       2.670904        72.6790 
 304   0.0000       2.678644        72.8896 
 305   0.0000       2.679828        72.9218 
 306   0.0000       2.689085        73.1737 
 307   0.0000       2.699047        73.4448 
 308   0.0000       2.711126        73.7735 
 309   0.0000       2.719544        74.0026 
 310   0.0000       2.726694        74.1971 
 311   0.0000       2.735901        74.4476 
 312   0.0000       2.753555        74.9280 
 313   0.0000       2.761772        75.1517 
 314   0.0000       2.764361        75.2221 
 315   0.0000       2.781527        75.6892 
 316   0.0000       2.791542        75.9617 
 317   0.0000       2.801769        76.2400 
 318   0.0000       2.876615        78.2767 
 319   0.0000       2.879183        78.3466 
 320   0.0000       2.886156        78.5363 
 321   0.0000       2.917261        79.3827 
 322   0.0000       2.922578        79.5274 
 323   0.0000       2.925060        79.5949 
 324   0.0000       2.971136        80.8487 
 325   0.0000       2.975193        80.9591 
 326   0.0000       2.992640        81.4339 
 327   0.0000       3.010557        81.9214 
 328   0.0000       3.013695        82.0068 
 329   0.0000       3.034077        82.5614 
 330   0.0000       3.039618        82.7122 
 331   0.0000       3.041309        82.7582 
 332   0.0000       3.084775        83.9410 
 333   0.0000       3.088424        84.0403 
 334   0.0000       3.092411        84.1488 
 335   0.0000       3.107037        84.5468 
 336   0.0000       3.130429        85.1833 
 337   0.0000       3.145071        85.5817 
 338   0.0000       3.225041        87.7578 
 339   0.0000       3.270058        88.9828 
 340   0.0000       3.287075        89.4459 
 341   0.0000       3.312045        90.1253 
 342   0.0000       3.316996        90.2600 
 343   0.0000       3.319873        90.3383 
 344   0.0000       3.321746        90.3893 
 345   0.0000       3.333043        90.6967 
 346   0.0000       3.352503        91.2262 
 347   0.0000       3.395922        92.4077 
 348   0.0000       3.413339        92.8817 
 349   0.0000       3.427573        93.2690 
 350   0.0000       3.514208        95.6265 
 351   0.0000       3.519541        95.7716 
 352   0.0000       3.523815        95.8879 
 353   0.0000       3.542803        96.4046 
 354   0.0000       3.546403        96.5025 
 355   0.0000       3.549334        96.5823 
 356   0.0000       3.553077        96.6841 
 357   0.0000       3.556163        96.7681 
 358   0.0000       3.562443        96.9390 
 359   0.0000       3.602583        98.0313 
 360   0.0000       3.604669        98.0880 
 361   0.0000       3.608633        98.1959 
 362   0.0000       3.620525        98.5195 
 363   0.0000       3.692757       100.4850 
 364   0.0000       3.702070       100.7384 
 365   0.0000       3.788805       103.0986 
 366   0.0000       3.803921       103.5100 
 367   0.0000       3.831261       104.2539 
 368   0.0000       3.842195       104.5514 
 369   0.0000       3.863073       105.1195 
 370   0.0000       3.866337       105.2084 
 371   0.0000       3.875260       105.4512 
 372   0.0000       3.988663       108.5370 
 373   0.0000       3.999676       108.8367 
 374   0.0000       4.007150       109.0401 
 375   0.0000       4.024056       109.5001 
 376   0.0000       4.026115       109.5562 
 377   0.0000       4.027960       109.6064 
 378   0.0000       4.045302       110.0783 
 379   0.0000       4.047852       110.1477 
 380   0.0000       4.051767       110.2542 
 381   0.0000       4.159778       113.1933 
 382   0.0000       4.166416       113.3740 
 383   0.0000       4.174874       113.6041 
 384   0.0000       4.346966       118.2869 
 385   0.0000       4.351824       118.4192 
 386   0.0000       4.364280       118.7581 
 387   0.0000       4.654390       126.6524 
 388   0.0000       4.682286       127.4115 
 389   0.0000       4.687064       127.5415 
 390   0.0000       4.879245       132.7710 
 391   0.0000       4.881049       132.8201 
 392   0.0000       4.886895       132.9792 
 393   0.0000       4.907704       133.5454 
 394   0.0000       4.911126       133.6385 
 395   0.0000       4.912939       133.6879 
 396   0.0000       4.933430       134.2455 
 397   0.0000       4.940892       134.4485 
 398   0.0000       4.966925       135.1569 
 399   0.0000       4.986918       135.7010 
 400   0.0000       5.009278       136.3094 
 401   0.0000       5.030202       136.8788 
 402   0.0000       5.148418       140.0956 
 403   0.0000       5.228962       142.2873 
 404   0.0000       5.230361       142.3254 
 405   0.0000       5.647948       153.6885 
 406   0.0000       5.661438       154.0556 
 407   0.0000       5.672633       154.3602 
 408   0.0000       5.899203       160.5255 
 409   0.0000       5.925396       161.2382 
 410   0.0000       5.941749       161.6832 
 411   0.0000       6.072154       165.2317 
 412   0.0000       6.080150       165.4493 
 413   0.0000       6.103700       166.0901 
 414   0.0000       6.351349       172.8290 
 415   0.0000       6.361497       173.1051 
 416   0.0000       6.374792       173.4669 
 417   0.0000       6.391013       173.9083 
 418   0.0000       6.408631       174.3877 
[...]
      dxz     :     0.083604
      dyz     :     0.106816
      dx2y2   :     0.114442
      dxy     :     0.077600
      f0      :     0.004974  f :     0.046766
      f+1     :     0.002510
      f-1     :     0.006283
      f+2     :     0.005902
      f-2     :     0.009606
      f+3     :     0.010395
      f-3     :     0.007096
  8 H s       :     0.603001  s :     0.603001
      pz      :     0.056075  p :     0.152664
      px      :     0.039869
      py      :     0.056720
  9 C s       :     2.868775  s :     2.868775
      pz      :     0.992041  p :     2.788711
      px      :     1.134644
      py      :     0.662027
      dz2     :     0.039680  d :     0.423474
      dxz     :     0.110083
      dyz     :     0.086295
      dx2y2   :     0.104519
      dxy     :     0.082897
      f0      :     0.004591  f :     0.044883
      f+1     :     0.004032
      f-1     :     0.005232
      f+2     :     0.009006
      f-2     :     0.004141
      f+3     :     0.007255
      f-3     :     0.010626
 10 H s       :     0.774548  s :     0.774548
      pz      :     0.037744  p :     0.064045
      px      :     0.014165
      py      :     0.012136
 11 H s       :     0.780257  s :     0.780257
      pz      :     0.021450  p :     0.063346
      px      :     0.030384
      py      :     0.011512
 12 C s       :     2.833182  s :     2.833182
      pz      :     1.081841  p :     3.177208
      px      :     1.057591
      py      :     1.037776
      dz2     :     0.031533  d :     0.234668
      dxz     :     0.057186
      dyz     :     0.041282
      dx2y2   :     0.038352
      dxy     :     0.066314
      f0      :     0.003734  f :     0.024405
      f+1     :     0.001991
      f-1     :     0.002810
      f+2     :     0.001728
      f-2     :     0.005113
      f+3     :     0.004491
      f-3     :     0.004539
 13 H s       :     0.776814  s :     0.776814
      pz      :     0.022164  p :     0.064568
      px      :     0.028558
      py      :     0.013846
 14 H s       :     0.732855  s :     0.732855
      pz      :     0.019388  p :     0.064279
      px      :     0.016710
      py      :     0.028182
 15 H s       :     0.778014  s :     0.778014
      pz      :     0.034106  p :     0.064974
      px      :     0.014231
      py      :     0.016637
 16 H s       :     0.781441  s :     0.781441
      pz      :     0.025116  p :     0.063221
      px      :     0.019302
      py      :     0.018804
 17 C s       :     2.833108  s :     2.833108
      pz      :     1.077490  p :     3.175206
      px      :     1.030006
      py      :     1.067710
      dz2     :     0.026346  d :     0.234758
      dxz     :     0.080244
      dyz     :     0.028366
      dx2y2   :     0.058882
      dxy     :     0.040920
      f0      :     0.003389  f :     0.024373
      f+1     :     0.004435
      f-1     :     0.001448
      f+2     :     0.004132
      f-2     :     0.002266
      f+3     :     0.004214
      f-3     :     0.004488
 18 H s       :     0.770646  s :     0.770646
      pz      :     0.035263  p :     0.064484
      px      :     0.021767
      py      :     0.007454
 19 H s       :     0.778006  s :     0.778006
      pz      :     0.031451  p :     0.064972
      px      :     0.019491
      py      :     0.014030
 20 H s       :     0.775866  s :     0.775866
      pz      :     0.025315  p :     0.064601
      px      :     0.017369
      py      :     0.021916
 21 H s       :     0.729270  s :     0.729270
      pz      :     0.018259  p :     0.064070
      px      :     0.011487
      py      :     0.034324
 22 H s       :     0.771504  s :     0.771504
      pz      :     0.014189  p :     0.064258
      px      :     0.016797
      py      :     0.033272
 23 H s       :     0.783861  s :     0.783861
      pz      :     0.033616  p :     0.062840
      px      :     0.015114
      py      :     0.014110
 24 C s       :     2.833293  s :     2.833293
      pz      :     1.080233  p :     3.175757
      px      :     1.048006
      py      :     1.047518
      dz2     :     0.033281  d :     0.235185
      dxz     :     0.045932
      dyz     :     0.040446
      dx2y2   :     0.047691
      dxy     :     0.067835
      f0      :     0.002926  f :     0.024426
      f+1     :     0.002788
      f-1     :     0.002611
      f+2     :     0.002238
      f-2     :     0.004035
      f+3     :     0.005137
      f-3     :     0.004692
 25 H s       :     0.777733  s :     0.777733
      pz      :     0.032038  p :     0.064442
      px      :     0.019602
      py      :     0.012803
 26 H s       :     0.735339  s :     0.735339
      pz      :     0.024206  p :     0.064328
      px      :     0.026844
      py      :     0.013278
 27 H s       :     0.780442  s :     0.780442
      pz      :     0.017320  p :     0.064853
      px      :     0.017520
      py      :     0.030013

SPIN
  0 Fes       :     0.046810  s :     0.046810
      pz      :     0.010330  p :     0.049557
      px      :     0.023759
      py      :     0.015468
      dz2     :     0.783112  d :     4.105666
      dxz     :     0.824912
      dyz     :     0.878533
      dx2y2   :     0.825182
      dxy     :     0.793927
      f0      :     0.000023  f :     0.000003
      f+1     :     0.000001
      f-1     :    -0.000001
      f+2     :     0.000002
      f-2     :    -0.000012
      f+3     :    -0.000006
      f-3     :    -0.000004
  1 O s       :     0.011154  s :     0.011154
      pz      :     0.101741  p :     0.193098
      px      :     0.015323
      py      :     0.076035
      dz2     :     0.000182  d :     0.005481
      dxz     :     0.001037
      dyz     :     0.001252
      dx2y2   :     0.001298
      dxy     :     0.001712
      f0      :     0.000017  f :     0.000462
      f+1     :    -0.000000
      f-1     :     0.000094
      f+2     :     0.000063
      f-2     :     0.000089
      f+3     :     0.000132
      f-3     :     0.000067
  2 O s       :     0.011794  s :     0.011794
      pz      :     0.099077  p :     0.205315
      px      :     0.058656
      py      :     0.047582
      dz2     :     0.000017  d :     0.005621
      dxz     :     0.002026
      dyz     :     0.001196
      dx2y2   :     0.002275
      dxy     :     0.000107
      f0      :     0.000015  f :     0.000463
      f+1     :     0.000062
      f-1     :     0.000063
      f+2     :     0.000046
      f-2     :     0.000134
      f+3     :     0.000055
      f-3     :     0.000088
  3 O s       :     0.010638  s :     0.010638
      pz      :     0.047881  p :     0.185850
      px      :     0.055862
      py      :     0.082108
      dz2     :     0.000239  d :     0.005298
      dxz     :     0.002032
      dyz     :     0.000207
      dx2y2   :     0.001418
      dxy     :     0.001402
      f0      :     0.000025  f :     0.000459
      f+1     :     0.000120
      f-1     :     0.000010
      f+2     :     0.000047
      f-2     :     0.000041
      f+3     :     0.000093
      f-3     :     0.000123
  4 H s       :     0.003031  s :     0.003031
      pz      :     0.002608  p :     0.004717
      px      :     0.000550
      py      :     0.001559
  5 C s       :    -0.000521  s :    -0.000521
      pz      :     0.000583  p :     0.011038
      px      :     0.007809
      py      :     0.002646
      dz2     :     0.002465  d :     0.006088
      dxz     :     0.000498
      dyz     :     0.000098
      dx2y2   :     0.000121
      dxy     :     0.002906
      f0      :     0.000116  f :     0.001278
      f+1     :     0.000308
      f-1     :     0.000084
      f+2     :     0.000104
      f-2     :     0.000401
      f+3     :     0.000101
      f-3     :     0.000164
  6 H s       :     0.003127  s :     0.003127
      pz      :     0.002426  p :     0.005029
      px      :     0.001262
      py      :     0.001341
  7 C s       :    -0.000551  s :    -0.000551
      pz      :     0.005186  p :     0.010731
      px      :    -0.001815
      py      :     0.007360
      dz2     :     0.002346  d :     0.006241
      dxz     :     0.002181
      dyz     :     0.000300
      dx2y2   :     0.000096
      dxy     :     0.001317
      f0      :     0.000027  f :     0.001219
      f+1     :     0.000100
      f-1     :     0.000433
      f+2     :     0.000067
      f-2     :     0.000172
      f+3     :     0.000150
      f-3     :     0.000270
  8 H s       :     0.002783  s :     0.002783
      pz      :     0.001490  p :     0.004577
      px      :     0.001006
      py      :     0.002082
  9 C s       :    -0.000579  s :    -0.000579
      pz      :     0.005447  p :     0.010453
      px      :     0.001817
      py      :     0.003190
      dz2     :     0.001297  d :     0.005938
      dxz     :     0.001494
      dyz     :     0.001609
      dx2y2   :     0.001514
      dxy     :     0.000024
      f0      :     0.000037  f :     0.001206
      f+1     :     0.000061
      f-1     :     0.000375
      f+2     :     0.000139
      f-2     :     0.000080
      f+3     :     0.000365
      f-3     :     0.000150
 10 H s       :     0.005767  s :     0.005767
      pz      :    -0.000038  p :     0.000061
      px      :    -0.000040
      py      :     0.000139
 11 H s       :     0.002984  s :     0.002984
      pz      :    -0.000050  p :     0.000102
      px      :     0.000053
      py      :     0.000099
 12 C s       :     0.000269  s :     0.000269
      pz      :     0.001484  p :     0.010237
      px      :    -0.000570
      py      :     0.009323
      dz2     :     0.000075  d :     0.001855
      dxz     :     0.000390
      dyz     :     0.000536
      dx2y2   :     0.000643
      dxy     :     0.000212
      f0      :     0.000018  f :     0.000185
      f+1     :     0.000017
      f-1     :    -0.000010
      f+2     :     0.000006
      f-2     :     0.000062
      f+3     :     0.000026
      f-3     :     0.000065
 13 H s       :     0.000203  s :     0.000203
      pz      :     0.000056  p :     0.000181
      px      :     0.000029
      py      :     0.000096
 14 H s       :     0.005899  s :     0.005899
      pz      :     0.000018  p :     0.000037
      px      :     0.000110
      py      :    -0.000090
 15 H s       :     0.000252  s :     0.000252
      pz      :     0.000009  p :     0.000154
      px      :    -0.000013
      py      :     0.000158
 16 H s       :     0.002179  s :     0.002179
      pz      :    -0.000048  p :     0.000111
      px      :     0.000080
      py      :     0.000080
 17 C s       :     0.000290  s :     0.000290
      pz      :     0.001866  p :     0.011343
      px      :     0.001566
      py      :     0.007911
      dz2     :     0.000027  d :     0.002056
      dxz     :     0.000393
      dyz     :     0.000675
      dx2y2   :     0.000950
      dxy     :     0.000011
      f0      :     0.000020  f :     0.000204
      f+1     :     0.000023
      f-1     :    -0.000007
      f+2     :     0.000054
      f-2     :     0.000001
      f+3     :     0.000081
      f-3     :     0.000032
 18 H s       :     0.005719  s :     0.005719
      pz      :    -0.000030  p :     0.000068
      px      :     0.000022
      py      :     0.000076
 19 H s       :     0.000296  s :     0.000296
      pz      :     0.000009  p :     0.000171
      px      :     0.000046
      py      :     0.000116
 20 H s       :     0.000193  s :     0.000193
      pz      :     0.000085  p :     0.000205
      px      :     0.000071
      py      :     0.000049
 21 H s       :     0.006843  s :     0.006843
      pz      :     0.000004  p :     0.000042
      px      :     0.000053
      py      :    -0.000016
 22 H s       :     0.006409  s :     0.006409
      pz      :     0.000032  p :     0.000050
      px      :     0.000056
      py      :    -0.000038
 23 H s       :     0.002163  s :     0.002163
      pz      :     0.000065  p :     0.000130
      px      :    -0.000008
      py      :     0.000073
 24 C s       :     0.000327  s :     0.000327
      pz      :     0.003173  p :     0.011069
      px      :     0.007161
      py      :     0.000736
      dz2     :     0.000083  d :     0.001741
      dxz     :     0.000891
      dyz     :    -0.000039
      dx2y2   :     0.000585
      dxy     :     0.000221
      f0      :     0.000003  f :     0.000170
      f+1     :     0.000005
      f-1     :     0.000020
      f+2     :     0.000025
      f-2     :     0.000028
      f+3     :     0.000025
      f-3     :     0.000064
 25 H s       :     0.000107  s :     0.000107
      pz      :     0.000018  p :     0.000201
      px      :     0.000163
      py      :     0.000021
 26 H s       :     0.005729  s :     0.005729
      pz      :     0.000018  p :     0.000052
      px      :    -0.000067
      py      :     0.000101
 27 H s       :     0.000308  s :     0.000308
      pz      :     0.000052  p :     0.000161
      px      :     0.000079
      py      :     0.000030


                      *****************************
                      * MAYER POPULATION ANALYSIS *
                      *****************************

  NA   - Mulliken gross atomic population
  ZA   - Total nuclear charge
  QA   - Mulliken gross atomic charge
  VA   - Mayer's total valence
  BVA  - Mayer's bonded valence
  FA   - Mayer's free valence

  ATOM       NA         ZA         QA         VA         BVA        FA
  0 Fe    24.5931    26.0000     1.4069     6.2578     2.5955     3.6623
  1 O      8.4980     8.0000    -0.4980     2.1773     2.1533     0.0239
  2 O      8.5022     8.0000    -0.5022     2.1787     2.1519     0.0268
  3 O      8.4969     8.0000    -0.4969     2.1823     2.1598     0.0225
  4 H      0.5752     1.0000     0.4248     0.8379     0.8379    -0.0000
  5 C      6.0643     6.0000    -0.0643     3.6344     3.6342     0.0002
  6 H      0.5767     1.0000     0.4233     0.8396     0.8396    -0.0000
  7 C      6.0585     6.0000    -0.0585     3.6255     3.6253     0.0002
  8 H      0.5786     1.0000     0.4214     0.8420     0.8420    -0.0000
  9 C      6.0530     6.0000    -0.0530     3.6116     3.6114     0.0002
 10 H      0.7806     1.0000     0.2194     0.9377     0.9376     0.0001
 11 H      0.7979     1.0000     0.2021     0.9475     0.9475     0.0000
 12 C      6.4139     6.0000    -0.4139     3.9025     3.9024     0.0002
 13 H      0.7954     1.0000     0.2046     0.9530     0.9530     0.0000
 14 H      0.7577     1.0000     0.2423     0.9540     0.9540     0.0001
 15 H      0.7926     1.0000     0.2074     0.9531     0.9531     0.0000
 16 H      0.8014     1.0000     0.1986     0.9506     0.9506     0.0000
 17 C      6.4087     6.0000    -0.4087     3.9005     3.9003     0.0002
 18 H      0.7689     1.0000     0.2311     0.9337     0.9337     0.0001
 19 H      0.7954     1.0000     0.2046     0.9541     0.9541     0.0000
 20 H      0.7942     1.0000     0.2058     0.9540     0.9540     0.0000
 21 H      0.7547     1.0000     0.2453     0.9518     0.9517     0.0001
 22 H      0.7717     1.0000     0.2283     0.9353     0.9352     0.0001
 23 H      0.8103     1.0000     0.1897     0.9525     0.9525     0.0000
 24 C      6.4014     6.0000    -0.4014     3.8986     3.8984     0.0002
 25 H      0.7978     1.0000     0.2022     0.9554     0.9554    -0.0000
 26 H      0.7596     1.0000     0.2404     0.9547     0.9546     0.0001
 27 H      0.8011     1.0000     0.1989     0.9557     0.9557     0.0000

  Mayer bond orders larger than 0.100000
B(  0-Fe,  1-O ) :   0.7598 B(  0-Fe,  2-O ) :   0.7793 B(  0-Fe,  3-O ) :   0.7429 
B(  1-O ,  4-H ) :   0.7980 B(  1-O ,  7-C ) :   0.5663 B(  2-O ,  6-H ) :   0.8006 
B(  2-O ,  9-C ) :   0.5438 B(  3-O ,  5-C ) :   0.5809 B(  3-O ,  8-H ) :   0.8011 
B(  5-C , 22-H ) :   0.9142 B(  5-C , 23-H ) :   0.9367 B(  5-C , 24-C ) :   1.0910 
B(  7-C , 10-H ) :   0.9177 B(  7-C , 11-H ) :   0.9321 B(  7-C , 12-C ) :   1.0986 
B(  9-C , 16-H ) :   0.9340 B(  9-C , 17-C ) :   1.1059 B(  9-C , 18-H ) :   0.9130 
B( 12-C , 13-H ) :   0.9299 B( 12-C , 14-H ) :   0.8757 B( 12-C , 15-H ) :   0.9402 
B( 17-C , 19-H ) :   0.9384 B( 17-C , 20-H ) :   0.9296 B( 17-C , 21-H ) :   0.8694 
B( 24-C , 25-H ) :   0.9325 B( 24-C , 26-H ) :   0.8805 B( 24-C , 27-H ) :   0.9398 


-------
TIMINGS
-------

Total SCF time: 0 days 0 hours 0 min 26 sec 

Total time                  ....      26.862 sec
Sum of individual times     ....      25.619 sec  ( 95.4%)

Fock matrix formation       ....      19.132 sec  ( 71.2%)
  Split-RI-J                ....       2.250 sec  ( 11.8% of F)
  Chain of spheres X        ....      11.669 sec  ( 61.0% of F)
  XC integration            ....       3.839 sec  ( 20.1% of F)
    Basis function eval.    ....       0.310 sec  (  8.1% of XC)
    Density eval.           ....       0.643 sec  ( 16.8% of XC)
    XC-Functional eval.     ....       0.086 sec  (  2.2% of XC)
    XC-Potential eval.      ....       0.591 sec  ( 15.4% of XC)
Diagonalization             ....       2.604 sec  (  9.7%)
Density matrix formation    ....       0.111 sec  (  0.4%)
Population analysis         ....       0.141 sec  (  0.5%)
Initial guess               ....       0.218 sec  (  0.8%)
Orbital Transformation      ....       0.000 sec  (  0.0%)
Orbital Orthonormalization  ....       0.000 sec  (  0.0%)
DIIS solution               ....       1.423 sec  (  5.3%)
Grid generation             ....       1.990 sec  (  7.4%)

Maximum memory used throughout the entire SCF-calculation: 101.4 MB

-------------------------   --------------------
FINAL SINGLE POINT ENERGY     -1727.100046830094
-------------------------   --------------------


                            ***************************************
                            *     ORCA property calculations      *
                            ***************************************

                                    ---------------------
                                    Active property flags
                                    ---------------------
   (+) Dipole Moment


------------------------------------------------------------------------------
                       ORCA ELECTRIC PROPERTIES CALCULATION
------------------------------------------------------------------------------

Dipole Moment Calculation                       ... on
Quadrupole Moment Calculation                   ... off
Polarizability Calculation                      ... off
GBWName                                         ... Fe_EtOH_3_HighSpin.gbw
Electron density                                ... Fe_EtOH_3_HighSpin.scfp
The origin for moment calculation is the CENTER OF MASS  = ( 1.191276, -1.150363 -0.586594)

-------------
DIPOLE MOMENT
-------------
                                X             Y             Z
Electronic contribution:     -1.81546       0.54036       2.65410
Nuclear contribution   :      1.67306      -0.57656      -2.48837
                        -----------------------------------------
Total Dipole Moment    :     -0.14240      -0.03620       0.16573
                        -----------------------------------------
Magnitude (a.u.)       :      0.22148
Magnitude (Debye)      :      0.56297



--------------------
Rotational spectrum 
--------------------
 
Rotational constants in cm-1:     0.026147     0.019114     0.011309 
Rotational constants in MHz :   783.866561   573.011123   339.024038 

 Dipole components along the rotational axes: 
x,y,z [a.u.] :    -0.173363    -0.119087     0.069419 
x,y,z [Debye]:    -0.440653    -0.302695     0.176449 

 

Timings for individual modules:

Sum of individual times         ...       51.034 sec (=   0.851 min)
GTO integral calculation        ...       14.853 sec (=   0.248 min)  29.1 %
SCF iterations                  ...       36.180 sec (=   0.603 min)  70.9 %
                             ****ORCA TERMINATED NORMALLY****
TOTAL RUN TIME: 0 days 0 hours 1 minutes 4 seconds 358 msec
