
                                 *****************
                                 * O   R   C   A *
                                 *****************

                                            #,                                       
                                            ###                                      
                                            ####                                     
                                            #####                                    
                                            ######                                   
                                           ########,                                 
                                     ,,################,,,,,                         
                               ,,#################################,,                 
                          ,,##########################################,,             
                       ,#########################################, ''#####,          
                    ,#############################################,,   '####,        
                  ,##################################################,,,,####,       
                ,###########''''           ''''###############################       
              ,#####''   ,,,,##########,,,,          '''####'''          '####       
            ,##' ,,,,###########################,,,                        '##       
           ' ,,###''''                  '''############,,,                           
         ,,##''                                '''############,,,,        ,,,,,,###''
      ,#''                                            '''#######################'''  
     '                                                          ''''####''''         
             ,#######,   #######,   ,#######,      ##                                
            ,#'     '#,  ##    ##  ,#'     '#,    #''#        ######   ,####,        
            ##       ##  ##   ,#'  ##            #'  '#       #        #'  '#        
            ##       ##  #######   ##           ,######,      #####,   #    #        
            '#,     ,#'  ##    ##  '#,     ,#' ,#      #,         ##   #,  ,#        
             '#######'   ##     ##  '#######'  #'      '#     #####' # '####'        



                  #######################################################
                  #                        -***-                        #
                  #          Department of theory and spectroscopy      #
                  #    Directorship and core code : Frank Neese         #
                  #        Max Planck Institute fuer Kohlenforschung    #
                  #                Kaiser Wilhelm Platz 1               #
                  #                 D-45470 Muelheim/Ruhr               #
                  #                      Germany                        #
                  #                                                     #
                  #                  All rights reserved                #
                  #                        -***-                        #
                  #######################################################


                         Program Version 5.0.3 -  RELEASE  -


 With contributions from (in alphabetic order):
   Daniel Aravena         : Magnetic Suceptibility
   Michael Atanasov       : Ab Initio Ligand Field Theory (pilot matlab implementation)
   Alexander A. Auer      : GIAO ZORA, VPT2 properties, NMR spectrum
   Ute Becker             : Parallelization
   Giovanni Bistoni       : ED, misc. LED, open-shell LED, HFLD
   Martin Brehm           : Molecular dynamics
   Dmytro Bykov           : SCF Hessian
   Vijay G. Chilkuri      : MRCI spin determinant printing, contributions to CSF-ICE
   Dipayan Datta          : RHF DLPNO-CCSD density
   Achintya Kumar Dutta   : EOM-CC, STEOM-CC
   Dmitry Ganyushin       : Spin-Orbit,Spin-Spin,Magnetic field MRCI
   Miquel Garcia          : C-PCM and meta-GGA Hessian, CC/C-PCM, Gaussian charge scheme
   Yang Guo               : DLPNO-NEVPT2, F12-NEVPT2, CIM, IAO-localization
   Andreas Hansen         : Spin unrestricted coupled pair/coupled cluster methods
   Benjamin Helmich-Paris : MC-RPA, TRAH-SCF, COSX integrals
   Lee Huntington         : MR-EOM, pCC
   Robert Izsak           : Overlap fitted RIJCOSX, COSX-SCS-MP3, EOM
   Marcus Kettner         : VPT2
   Christian Kollmar      : KDIIS, OOCD, Brueckner-CCSD(T), CCSD density, CASPT2, CASPT2-K
   Simone Kossmann        : Meta GGA functionals, TD-DFT gradient, OOMP2, MP2 Hessian
   Martin Krupicka        : Initial AUTO-CI
   Lucas Lang             : DCDCAS
   Marvin Lechner         : AUTO-CI (C++ implementation), FIC-MRCC
   Dagmar Lenk            : GEPOL surface, SMD
   Dimitrios Liakos       : Extrapolation schemes; Compound Job, initial MDCI parallelization
   Dimitrios Manganas     : Further ROCIS development; embedding schemes
   Dimitrios Pantazis     : SARC Basis sets
   Anastasios Papadopoulos: AUTO-CI, single reference methods and gradients
   Taras Petrenko         : DFT Hessian,TD-DFT gradient, ASA, ECA, R-Raman, ABS, FL, XAS/XES, NRVS
   Peter Pinski           : DLPNO-MP2, DLPNO-MP2 Gradient
   Christoph Reimann      : Effective Core Potentials
   Marius Retegan         : Local ZFS, SOC
   Christoph Riplinger    : Optimizer, TS searches, QM/MM, DLPNO-CCSD(T), (RO)-DLPNO pert. Triples
   Tobias Risthaus        : Range-separated hybrids, TD-DFT gradient, RPA, STAB
   Michael Roemelt        : Original ROCIS implementation
   Masaaki Saitow         : Open-shell DLPNO-CCSD energy and density
   Barbara Sandhoefer     : DKH picture change effects
   Avijit Sen             : IP-ROCIS
   Kantharuban Sivalingam : CASSCF convergence, NEVPT2, FIC-MRCI
   Bernardo de Souza      : ESD, SOC TD-DFT
   Georgi Stoychev        : AutoAux, RI-MP2 NMR, DLPNO-MP2 response
   Willem Van den Heuvel  : Paramagnetic NMR
   Boris Wezisla          : Elementary symmetry handling
   Frank Wennmohs         : Technical directorship


 We gratefully acknowledge several colleagues who have allowed us to
 interface, adapt or use parts of their codes:
   Stefan Grimme, W. Hujo, H. Kruse, P. Pracht,  : VdW corrections, initial TS optimization,
                  C. Bannwarth, S. Ehlert          DFT functionals, gCP, sTDA/sTD-DF
   Ed Valeev, F. Pavosevic, A. Kumar             : LibInt (2-el integral package), F12 methods
   Garnet Chan, S. Sharma, J. Yang, R. Olivares  : DMRG
   Ulf Ekstrom                                   : XCFun DFT Library
   Mihaly Kallay                                 : mrcc  (arbitrary order and MRCC methods)
   Jiri Pittner, Ondrej Demel                    : Mk-CCSD
   Frank Weinhold                                : gennbo (NPA and NBO analysis)
   Christopher J. Cramer and Donald G. Truhlar   : smd solvation model
   Lars Goerigk                                  : TD-DFT with DH, B97 family of functionals
   V. Asgeirsson, H. Jonsson                     : NEB implementation
   FAccTs GmbH                                   : IRC, NEB, NEB-TS, DLPNO-Multilevel, CI-OPT
                                                   MM, QMMM, 2- and 3-layer-ONIOM, Crystal-QMMM,
                                                   LR-CPCM, SF, NACMEs, symmetry and pop. for TD-DFT,
                                                   nearIR, NL-DFT gradient (VV10), updates on ESD,
                                                   ML-optimized integration grids
   S Lehtola, MJT Oliveira, MAL Marques          : LibXC Library
   Liviu Ungur et al                             : ANISO software


 Your calculation uses the libint2 library for the computation of 2-el integrals
 For citations please refer to: http://libint.valeyev.net

 Your ORCA version has been built with support for libXC version: 5.1.0
 For citations please refer to: https://tddft.org/programs/libxc/

 This ORCA versions uses:
   CBLAS   interface :  Fast vector & matrix operations
   LAPACKE interface :  Fast linear algebra routines
   SCALAPACK package :  Parallel linear algebra routines
   Shared memory     :  Shared parallel matrices
   BLAS/LAPACK       :  OpenBLAS 0.3.15  USE64BITINT DYNAMIC_ARCH NO_AFFINITY Zen SINGLE_THREADED
        Core in use  :  Zen
   Copyright (c) 2011-2014, The OpenBLAS Project


================================================================================

----- Orbital basis set information -----
Your calculation utilizes the basis: def2-TZVP
   F. Weigend and R. Ahlrichs, Phys. Chem. Chem. Phys. 7, 3297 (2005).

----- AuxJ basis set information -----
Your calculation utilizes the auxiliary basis: def2/J
   F. Weigend, Phys. Chem. Chem. Phys. 8, 1057 (2006).

================================================================================
                                        WARNINGS
                       Please study these warnings very carefully!
================================================================================


WARNING: your system is open-shell and RHF/RKS was chosen
  ===> : WILL SWITCH to UHF/UKS


INFO   : the flag for use of the SHARK integral package has been found!

================================================================================
                                       INPUT FILE
================================================================================
NAME = Fe_H2O_6_HighSpin.inp
|  1> ! PBE0 def2-TZVP
|  2> %pal nprocs 32 end
|  3> %maxcore 3000
|  4> 
|  5> * xyz 3 6
|  6>   Fe  -0.53345467379034     -0.13972428601702      0.19467954751068
|  7>   O   -1.86636985774973     -0.33993919519690     -1.33287515485831
|  8>   O   0.79901556787826      0.05967187952804      1.72310797863500
|  9>   O   0.10284777075836      1.63382192533203     -0.58328395829054
| 10>   O   -1.16833640172203     -1.91408060795558      0.97190504758513
| 11>   O   -1.93344836855219      0.85308157047666      1.28982199983232
| 12>   O   0.86752769917186     -1.13144117502669     -0.89999188289860
| 13>   H   -2.08782918668048      1.81413133239339      1.29283912384981
| 14>   H   -0.22342004115951      2.06197901983926     -1.39428558457959
| 15>   H   -2.78428821761137     -0.01641344189538     -1.34543767981406
| 16>   H   -1.86533291175979     -2.48690717725355      0.60659261629753
| 17>   H   0.63779909817178      0.49720486206886      2.57752069742519
| 18>   H   1.51354392482665     -0.73449137659448     -1.51039676488872
| 19>   H   -0.84237129877907     -2.34102896116233      1.78359528862189
| 20>   H   -2.57687612112853      0.45749799267505      1.90386125351672
| 21>   H   -1.70325196537550     -0.77329696674690     -2.18905266612349
| 22>   H   1.01890178384440     -2.09293583930621     -0.90752215264246
| 23>   H   0.79737524129788      2.20816850239779     -0.21563581277146
| 24>   H   1.71595795835937     -0.26654805755604      1.73639810359295
| 25> *
| 26> 
| 27>                          ****END OF INPUT****
================================================================================

                       ****************************
                       * Single Point Calculation *
                       ****************************

---------------------------------
CARTESIAN COORDINATES (ANGSTROEM)
---------------------------------
  Fe    -0.533455   -0.139724    0.194680
  O     -1.866370   -0.339939   -1.332875
  O      0.799016    0.059672    1.723108
  O      0.102848    1.633822   -0.583284
  O     -1.168336   -1.914081    0.971905
  O     -1.933448    0.853082    1.289822
  O      0.867528   -1.131441   -0.899992
  H     -2.087829    1.814131    1.292839
  H     -0.223420    2.061979   -1.394286
  H     -2.784288   -0.016413   -1.345438
  H     -1.865333   -2.486907    0.606593
  H      0.637799    0.497205    2.577521
  H      1.513544   -0.734491   -1.510397
  H     -0.842371   -2.341029    1.783595
  H     -2.576876    0.457498    1.903861
  H     -1.703252   -0.773297   -2.189053
  H      1.018902   -2.092936   -0.907522
  H      0.797375    2.208169   -0.215636
  H      1.715958   -0.266548    1.736398

----------------------------
CARTESIAN COORDINATES (A.U.)
----------------------------
  NO LB      ZA    FRAG     MASS         X           Y           Z
   0 Fe   26.0000    0    55.850   -1.008083   -0.264041    0.367891
   1 O     8.0000    0    15.999   -3.526928   -0.642392   -2.518769
   2 O     8.0000    0    15.999    1.509921    0.112764    3.256202
   3 O     8.0000    0    15.999    0.194354    3.087476   -1.102247
   4 O     8.0000    0    15.999   -2.207836   -3.617088    1.836634
   5 O     8.0000    0    15.999   -3.653688    1.612091    2.437410
   6 O     8.0000    0    15.999    1.639390   -2.138114   -1.700738
   7 H     1.0000    0     1.008   -3.945425    3.428211    2.443112
   8 H     1.0000    0     1.008   -0.422203    3.896576   -2.634818
   9 H     1.0000    0     1.008   -5.261542   -0.031017   -2.542509
  10 H     1.0000    0     1.008   -3.524968   -4.699573    1.146294
  11 H     1.0000    0     1.008    1.205266    0.939581    4.870808
  12 H     1.0000    0     1.008    2.860184   -1.387988   -2.854236
  13 H     1.0000    0     1.008   -1.591851   -4.423904    3.370507
  14 H     1.0000    0     1.008   -4.869590    0.864546    3.597776
  15 H     1.0000    0     1.008   -3.218680   -1.461319   -4.136710
  16 H     1.0000    0     1.008    1.925445   -3.955076   -1.714968
  17 H     1.0000    0     1.008    1.506821    4.172834   -0.407493
  18 H     1.0000    0     1.008    3.242691   -0.503703    3.281317

--------------------------------
INTERNAL COORDINATES (ANGSTROEM)
--------------------------------
 Fe     0   0   0     0.000000000000     0.00000000     0.00000000
 O      1   0   0     2.037197159388     0.00000000     0.00000000
 O      1   2   0     2.037481102940   179.96497500     0.00000000
 O      1   2   3     2.038522548585    90.20482255   197.83384400
 O      1   2   4     2.038503039888    89.80351094   180.04973462
 O      1   2   5     2.035923084239    90.07724510   269.70222591
 O      1   2   5     2.035819131910    89.95390878    89.73239276
 H      6   1   2     0.973375151174   126.31326172   270.37057450
 H      4   1   2     0.973392428835   126.58570523   359.66474318
 H      2   1   7     0.973345183095   126.44433455   179.91497926
 H      5   1   2     0.973338371766   126.31196092   359.45299639
 H      3   1   7     0.973368868901   126.45221843   180.03218976
 H      7   1   2     0.973396232909   126.53067145    90.32659991
 H      5   1   2     0.973334059836   126.54532096   180.45745738
 H      6   1   2     0.973411446859   126.56128108    89.98380025
 H      2   1   7     0.973368550844   126.41738187   359.58483557
 H      7   1   2     0.973366738650   126.32560532   270.04643385
 H      4   1   2     0.973348630669   126.29549992   180.24052307
 H      3   1   7     0.973334178088   126.40810495   359.89575865

---------------------------
INTERNAL COORDINATES (A.U.)
---------------------------
 Fe     0   0   0     0.000000000000     0.00000000     0.00000000
 O      1   0   0     3.849744712045     0.00000000     0.00000000
 O      1   2   0     3.850281287595   179.96497500     0.00000000
 O      1   2   3     3.852249334648    90.20482255   197.83384400
 O      1   2   4     3.852212468553    89.80351094   180.04973462
 O      1   2   5     3.847337058940    90.07724510   269.70222591
 O      1   2   5     3.847140617508    89.95390878    89.73239276
 H      6   1   2     1.839412461284   126.31326172   270.37057450
 H      4   1   2     1.839445111331   126.58570523   359.66474318
 H      2   1   7     1.839355829820   126.44433455   179.91497926
 H      5   1   2     1.839342958274   126.31196092   359.45299639
 H      3   1   7     1.839400589508   126.45221843   180.03218976
 H      7   1   2     1.839452299989   126.53067145    90.32659991
 H      5   1   2     1.839334809908   126.54532096   180.45745738
 H      6   1   2     1.839481050188   126.56128108    89.98380025
 H      2   1   7     1.839399988466   126.41738187   359.58483557
 H      7   1   2     1.839396563917   126.32560532   270.04643385
 H      4   1   2     1.839362344791   126.29549992   180.24052307
 H      3   1   7     1.839335033371   126.40810495   359.89575865

---------------------
BASIS SET INFORMATION
---------------------
There are 3 groups of distinct atoms

 Group   1 Type Fe  : 17s11p7d1f contracted to 6s4p4d1f pattern {842111/6311/4111/1}
 Group   2 Type O   : 11s6p2d1f contracted to 5s3p2d1f pattern {62111/411/11/1}
 Group   3 Type H   : 5s1p contracted to 3s1p pattern {311/1}

Atom   0Fe   basis set group =>   1
Atom   1O    basis set group =>   2
Atom   2O    basis set group =>   2
Atom   3O    basis set group =>   2
Atom   4O    basis set group =>   2
Atom   5O    basis set group =>   2
Atom   6O    basis set group =>   2
Atom   7H    basis set group =>   3
Atom   8H    basis set group =>   3
Atom   9H    basis set group =>   3
Atom  10H    basis set group =>   3
Atom  11H    basis set group =>   3
Atom  12H    basis set group =>   3
Atom  13H    basis set group =>   3
Atom  14H    basis set group =>   3
Atom  15H    basis set group =>   3
Atom  16H    basis set group =>   3
Atom  17H    basis set group =>   3
Atom  18H    basis set group =>   3
---------------------------------
AUXILIARY/J BASIS SET INFORMATION
---------------------------------
There are 3 groups of distinct atoms

 Group   1 Type Fe  : 19s5p5d3f3g contracted to 8s5p5d2f3g pattern {121111111/11111/11111/21/111}
 Group   2 Type O   : 12s5p4d2f1g contracted to 6s4p3d1f1g pattern {711111/2111/211/2/1}
 Group   3 Type H   : 5s2p1d contracted to 3s1p1d pattern {311/2/1}

Atom   0Fe   basis set group =>   1
Atom   1O    basis set group =>   2
Atom   2O    basis set group =>   2
Atom   3O    basis set group =>   2
Atom   4O    basis set group =>   2
Atom   5O    basis set group =>   2
Atom   6O    basis set group =>   2
Atom   7H    basis set group =>   3
Atom   8H    basis set group =>   3
Atom   9H    basis set group =>   3
Atom  10H    basis set group =>   3
Atom  11H    basis set group =>   3
Atom  12H    basis set group =>   3
Atom  13H    basis set group =>   3
Atom  14H    basis set group =>   3
Atom  15H    basis set group =>   3
Atom  16H    basis set group =>   3
Atom  17H    basis set group =>   3
Atom  18H    basis set group =>   3


           ************************************************************
           *        Program running with 32 parallel MPI-processes    *
           *              working on a common directory               *
           ************************************************************
------------------------------------------------------------------------------
                           ORCA GTO INTEGRAL CALCULATION
                           -- RI-GTO INTEGRALS CHOSEN --
------------------------------------------------------------------------------
------------------------------------------------------------------------------
                   ___                                                        
                  /   \      - P O W E R E D   B Y -                         
                 /     \                                                     
                 |  |  |   _    _      __       _____    __    __             
                 |  |  |  | |  | |    /  \     |  _  \  |  |  /  |          
                  \  \/   | |  | |   /    \    | | | |  |  | /  /          
                 / \  \   | |__| |  /  /\  \   | |_| |  |  |/  /          
                |  |  |   |  __  | /  /__\  \  |    /   |      \           
                |  |  |   | |  | | |   __   |  |    \   |  |\   \          
                \     /   | |  | | |  |  |  |  | |\  \  |  | \   \       
                 \___/    |_|  |_| |__|  |__|  |_| \__\ |__|  \__/        
                                                                              
                      - O R C A' S   B I G   F R I E N D -                    
                                      &                                       
                       - I N T E G R A L  F E E D E R -                       
                                                                              
 v1 FN, 2020, v2 2021                                                         
------------------------------------------------------------------------------


Reading SHARK input file Fe_H2O_6_HighSpin.SHARKINP.tmp ... ok
----------------------
SHARK INTEGRAL PACKAGE
----------------------

Number of atoms                             ...     19
Number of basis functions                   ...    303
Number of shells                            ...    129
Maximum angular momentum                    ...      3
Integral batch strategy                     ... SHARK/LIBINT Hybrid
RI-J (if used) integral strategy            ... SPLIT-RIJ (Revised 2003 algorithm where possible)
Printlevel                                  ...      1
Contraction scheme used                     ... SEGMENTED contraction
Coulomb Range Separation                    ... NOT USED
Exchange Range Separation                   ... NOT USED
Finite Nucleus Model                        ... NOT USED
Auxiliary Coulomb fitting basis             ... AVAILABLE
   # of basis functions in Aux-J            ...    515
   # of shells in Aux-J                     ...    173
   Maximum angular momentum in Aux-J        ...      4
Auxiliary J/K fitting basis                 ... NOT available
Auxiliary Correlation fitting basis         ... NOT available
Auxiliary 'external' fitting basis          ... NOT available
Integral threshold                          ...     1.000000e-10
Primitive cut-off                           ...     1.000000e-11
Primitive pair pre-selection threshold      ...     1.000000e-11

Calculating pre-screening integrals         ... done (  0.0 sec) Dimension = 129
Organizing shell pair data                  ... done (  0.1 sec)
Shell pair information
Total number of shell pairs                 ...      8385
Shell pairs after pre-screening             ...      7281
Total number of primitive shell pairs       ...     26333
Primitive shell pairs kept                  ...     15982
          la=0 lb=0:   2205 shell pairs
          la=1 lb=0:   2106 shell pairs
          la=1 lb=1:    568 shell pairs
          la=2 lb=0:   1002 shell pairs
          la=2 lb=1:    514 shell pairs
          la=2 lb=2:    121 shell pairs
          la=3 lb=0:    414 shell pairs
          la=3 lb=1:    220 shell pairs
          la=3 lb=2:    106 shell pairs
          la=3 lb=3:     25 shell pairs

Calculating one electron integrals          ... done (  0.0 sec)
Calculating RI/J V-Matrix + Cholesky decomp.... done (  0.1 sec)
Calculating Nuclear repulsion               ... done (  0.0 sec) ENN=    684.144581832795 Eh

SHARK setup successfully completed in   0.4 seconds

Maximum memory used throughout the entire GTOINT-calculation: 24.0 MB


           ************************************************************
           *        Program running with 32 parallel MPI-processes    *
           *              working on a common directory               *
           ************************************************************
-------------------------------------------------------------------------------
                                 ORCA SCF
-------------------------------------------------------------------------------

------------
SCF SETTINGS
------------
Hamiltonian:
 Density Functional     Method          .... DFT(GTOs)
 Exchange Functional    Exchange        .... PBE
   PBE kappa parameter   XKappa         ....  0.804000
   PBE mue parameter    XMuePBE         ....  0.219520
 Correlation Functional Correlation     .... PBE
   PBE beta parameter  CBetaPBE         ....  0.066725
 LDA part of GGA corr.  LDAOpt          .... PW91-LDA
 Gradients option       PostSCFGGA      .... off
 Hybrid DFT is turned on
   Fraction HF Exchange ScalHFX         ....  0.250000
   Scaling of DF-GGA-X  ScalDFX         ....  0.750000
   Scaling of DF-GGA-C  ScalDFC         ....  1.000000
   Scaling of DF-LDA-C  ScalLDAC        ....  1.000000
   Perturbative correction              ....  0.000000
   Density functional embedding theory  .... OFF
   NL short-range parameter             ....  6.900000
 RI-approximation to the Coulomb term is turned on
   Number of AuxJ basis functions       .... 515
   RIJ-COSX (HFX calculated with COS-X)).... on


General Settings:
 Integral files         IntName         .... Fe_H2O_6_HighSpin
 Hartree-Fock type      HFTyp           .... UHF
 Total Charge           Charge          ....    3
 Multiplicity           Mult            ....    6
 Number of Electrons    NEL             ....   83
 Basis Dimension        Dim             ....  303
 Nuclear Repulsion      ENuc            ....    684.1445818328 Eh

Convergence Acceleration:
 DIIS                   CNVDIIS         .... on
   Start iteration      DIISMaxIt       ....    12
   Startup error        DIISStart       ....  0.200000
   # of expansion vecs  DIISMaxEq       ....     5
   Bias factor          DIISBfac        ....   1.050
   Max. coefficient     DIISMaxC        ....  10.000
 Trust-Rad. Augm. Hess. CNVTRAH         .... auto
   Auto Start mean grad. ratio tolernc. ....  1.125000
   Auto Start start iteration           ....    20
   Auto Start num. interpolation iter.  ....    10
   Max. Number of Micro iterations      ....    16
   Max. Number of Macro iterations      .... Maxiter - #DIIS iter
   Number of Davidson start vectors     ....     2
   Converg. threshold I  (grad. norm)   ....   5.000e-05
   Converg. threshold II (energy diff.) ....   1.000e-06
   Grad. Scal. Fac. for Micro threshold ....   0.100
   Minimum threshold for Micro iter.    ....   0.010
   NR start threshold (gradient norm)   ....   0.001
   Initial trust radius                 ....   0.400
   Minimum AH scaling param. (alpha)    ....   1.000
   Maximum AH scaling param. (alpha)    .... 1000.000
   Orbital update algorithm             .... Taylor
   White noise on init. David. guess    .... on
   Maximum white noise                  ....   0.010
   Quad. conv. algorithm                .... NR
 SOSCF                  CNVSOSCF        .... off
 Level Shifting         CNVShift        .... on
   Level shift para.    LevelShift      ....    0.2500
   Turn off err/grad.   ShiftErr        ....    0.0010
 Zerner damping         CNVZerner       .... off
 Static damping         CNVDamp         .... on
   Fraction old density DampFac         ....    0.7000
   Max. Damping (<1)    DampMax         ....    0.9800
   Min. Damping (>=0)   DampMin         ....    0.0000
   Turn off err/grad.   DampErr         ....    0.1000
 Fernandez-Rico         CNVRico         .... off

SCF Procedure:
 Maximum # iterations   MaxIter         ....   125
 SCF integral mode      SCFMode         .... Direct
   Integral package                     .... SHARK and LIBINT hybrid scheme
 Reset frequency        DirectResetFreq ....    20
 Integral Threshold     Thresh          ....  1.000e-10 Eh
 Primitive CutOff       TCut            ....  1.000e-11 Eh

Convergence Tolerance:
 Convergence Check Mode ConvCheckMode   .... Total+1el-Energy
 Convergence forced     ConvForced      .... 0
 Energy Change          TolE            ....  1.000e-06 Eh
 1-El. energy change                    ....  1.000e-03 Eh
 DIIS Error             TolErr          ....  1.000e-06


Diagonalization of the overlap matrix:
Smallest eigenvalue                        ... 1.628e-03
Time for diagonalization                   ...    0.013 sec
Threshold for overlap eigenvalues          ... 1.000e-08
Number of eigenvalues below threshold      ... 0
Time for construction of square roots      ...    0.018 sec
Total time needed                          ...    0.033 sec

Time for model grid setup =    1.012 sec

------------------------------
INITIAL GUESS: MODEL POTENTIAL
------------------------------
Loading Hartree-Fock densities                     ... done
Calculating cut-offs                               ... done
Initializing the effective Hamiltonian             ... done
Setting up the integral package (SHARK)            ... done
Starting the Coulomb interaction                   ... done (   0.1 sec)
Reading the grid                                   ... done
Mapping shells                                     ... done
Starting the XC term evaluation                    ... done (   0.0 sec)
  promolecular density results
     # of electrons  =     85.990723750
     EX              =   -106.731013212
     EC              =     -3.136188831
     EX+EC           =   -109.867202043
Transforming the Hamiltonian                       ... done (   0.0 sec)
Diagonalizing the Hamiltonian                      ... done (   0.0 sec)
Back transforming the eigenvectors                 ... done (   0.0 sec)
Now organizing SCF variables                       ... done
                      ------------------
                      INITIAL GUESS DONE (   1.1 sec)
                      ------------------
-------------------
DFT GRID GENERATION
-------------------

General Integration Accuracy     IntAcc      ... 4.388
Radial Grid Type                 RadialGrid  ... OptM3 with GC (2021)
Angular Grid (max. ang.)         AngularGrid ... 4 (Lebedev-302)
Angular grid pruning method      GridPruning ... 4 (adaptive)
Weight generation scheme         WeightScheme... Becke
Basis function cutoff            BFCut       ... 1.0000e-10
Integration weight cutoff        WCut        ... 1.0000e-14
Angular grids for H and He will be reduced by one unit
Partially contracted basis set               ... off
Rotationally invariant grid construction     ... off

Total number of grid points                  ...    86444
Total number of batches                      ...     1360
Average number of points per batch           ...       63
Average number of grid points per atom       ...     4550
Time for grid setup =    0.379 sec

--------------------
COSX GRID GENERATION
--------------------

GRIDX 1
-------
General Integration Accuracy     IntAcc      ... 3.816
Radial Grid Type                 RadialGrid  ... OptM3 with GC (2021)
Angular Grid (max. ang.)         AngularGrid ... 1 (Lebedev-50)
Angular grid pruning method      GridPruning ... 4 (adaptive)
Weight generation scheme         WeightScheme... Becke
Basis function cutoff            BFCut       ... 1.0000e-10
Integration weight cutoff        WCut        ... 1.0000e-14
Angular grids for H and He will be reduced by one unit
Partially contracted basis set               ... on
Rotationally invariant grid construction     ... off

Total number of grid points                  ...    10885
Total number of batches                      ...      183
Average number of points per batch           ...       59
Average number of grid points per atom       ...      573
UseSFitting                                  ... on

GRIDX 2
-------
General Integration Accuracy     IntAcc      ... 4.020
Radial Grid Type                 RadialGrid  ... OptM3 with GC (2021)
Angular Grid (max. ang.)         AngularGrid ... 2 (Lebedev-110)
Angular grid pruning method      GridPruning ... 4 (adaptive)
Weight generation scheme         WeightScheme... Becke
Basis function cutoff            BFCut       ... 1.0000e-10
Integration weight cutoff        WCut        ... 1.0000e-14
Angular grids for H and He will be reduced by one unit
Partially contracted basis set               ... on
Rotationally invariant grid construction     ... off

Total number of grid points                  ...    22813
Total number of batches                      ...      368
Average number of points per batch           ...       61
Average number of grid points per atom       ...     1201
UseSFitting                                  ... on

GRIDX 3
-------
General Integration Accuracy     IntAcc      ... 4.338
Radial Grid Type                 RadialGrid  ... OptM3 with GC (2021)
Angular Grid (max. ang.)         AngularGrid ... 3 (Lebedev-194)
Angular grid pruning method      GridPruning ... 4 (adaptive)
Weight generation scheme         WeightScheme... Becke
Basis function cutoff            BFCut       ... 1.0000e-10
Integration weight cutoff        WCut        ... 1.0000e-14
Angular grids for H and He will be reduced by one unit
Partially contracted basis set               ... on
Rotationally invariant grid construction     ... off

Total number of grid points                  ...    49989
Total number of batches                      ...      790
Average number of points per batch           ...       63
Average number of grid points per atom       ...     2631
UseSFitting                                  ... on

Time for X-Grid setup             =    0.316 sec

--------------
SCF ITERATIONS
--------------
ITER       Energy         Delta-E        Max-DP      RMS-DP      [F,P]     Damp
               ***  Starting incremental Fock matrix formation  ***
  0  -1720.2138223673   0.000000000000 0.09147288  0.00090617  0.2493416 0.7000
  1  -1720.3672234663  -0.153401098940 0.01285934  0.00025818  0.0712293 0.7000
                               ***Turning on DIIS***
  2  -1720.4707314886  -0.103508022349 0.05563384  0.00057653  0.0533165 0.0000
  3  -1720.6656088320  -0.194877343401 0.00952066  0.00010639  0.1398830 0.7000
  4  -1720.6871623851  -0.021553553062 0.01144970  0.00010551  0.1155104 0.7000
  5  -1720.7044103408  -0.017247955669 0.04224483  0.00032923  0.0928995 0.0000
  6  -1720.7429430731  -0.038532732295 0.02130668  0.00013100  0.0259149 0.0000
  7  -1720.7461511056  -0.003208032563 0.00344627  0.00003257  0.0066504 0.0000
  8  -1720.7464234292  -0.000272323586 0.00103196  0.00001091  0.0014481 0.0000
  9  -1720.7464729314  -0.000049502201 0.00077957  0.00001327  0.0003920 0.0000
               *** Restarting incremental Fock matrix formation ***
                                   *** Resetting DIIS ***
 10  -1720.7465788613  -0.000105929851 0.00118659  0.00000899  0.0007576 0.0000
 11  -1720.7465702891   0.000008572195 0.00058832  0.00000448  0.0015235 0.0000
 12  -1720.7465830623  -0.000012773282 0.00029083  0.00000296  0.0003044 0.0000
 13  -1720.7465845011  -0.000001438808 0.00022458  0.00000135  0.0001661 0.0000
 14  -1720.7465848549  -0.000000353771 0.00001803  0.00000038  0.0000536 0.0000
 15  -1720.7465850404  -0.000000185510 0.00001449  0.00000012  0.0000125 0.0000
                 **** Energy Check signals convergence ****

               *****************************************************
               *                     SUCCESS                       *
               *           SCF CONVERGED AFTER  16 CYCLES          *
               *****************************************************

Old exchange energy                            =    -26.830920280 Eh
New exchange energy                            =    -26.830957438 Eh
Exchange energy change after final integration =     -0.000037158 Eh
Total energy after final integration           =  -1720.746622335 Eh
Final COS-X integration done in                =     0.694 sec

----------------
TOTAL SCF ENERGY
----------------

Total Energy       :        -1720.74662233 Eh          -46823.89607 eV

Components:
Nuclear Repulsion  :          684.14458183 Eh           18616.52052 eV
Electronic Energy  :        -2404.89120417 Eh          -65440.41659 eV
One Electron Energy:        -3691.77093789 Eh         -100458.19442 eV
Two Electron Energy:         1286.87973372 Eh           35017.77782 eV
Max COSX asymmetry :            0.00000102 Eh               0.00003 eV

Virial components:
Potential Energy   :        -3438.25487537 Eh          -93559.67164 eV
Kinetic Energy     :         1717.50825303 Eh           46735.77557 eV
Virial Ratio       :            2.00188550


DFT components:
N(Alpha)           :       44.000001889249 electrons
N(Beta)            :       38.999997186421 electrons
N(Total)           :       82.999999075670 electrons
E(X)               :      -80.368867457544 Eh       
E(C)               :       -3.064407132987 Eh       
E(XC)              :      -83.433274590531 Eh       
DFET-embed. en.    :        0.000000000000 Eh       

---------------
SCF CONVERGENCE
---------------

  Last Energy change         ...   -1.3604e-07  Tolerance :   1.0000e-06
  Last MAX-Density change    ...    0.0000e+00  Tolerance :   1.0000e-05
  Last RMS-Density change    ...    0.0000e+00  Tolerance :   1.0000e-06
  Last DIIS Error            ...    8.1625e-06  Tolerance :   1.0000e-06

             **** THE GBW FILE WAS UPDATED (Fe_H2O_6_HighSpin.gbw) ****
             **** DENSITY Fe_H2O_6_HighSpin.scfp WAS UPDATED ****
             **** ENERGY FILE WAS UPDATED (Fe_H2O_6_HighSpin.en.tmp) ****
----------------------
UHF SPIN CONTAMINATION
----------------------

Warning: in a DFT calculation there is little theoretical justification to 
         calculate <S**2> as in Hartree-Fock theory. We will do it anyways
         but you should keep in mind that the values have only limited relevance

Expectation value of <S**2>     :     8.754964
Ideal value S*(S+1) for S=2.5   :     8.750000
Deviation                       :     0.004964

             **** THE GBW FILE WAS UPDATED (Fe_H2O_6_HighSpin.gbw) ****
             **** DENSITY Fe_H2O_6_HighSpin.scfp WAS UPDATED ****
----------------
ORBITAL ENERGIES
----------------
                 SPIN UP ORBITALS
  NO   OCC          E(Eh)            E(eV) 
   0   1.0000    -257.067661     -6995.1667 
   1   1.0000     -30.897403      -840.7611 
   2   1.0000     -26.714344      -726.9343 
   3   1.0000     -26.714316      -726.9335 
   4   1.0000     -26.714308      -726.9333 
   5   1.0000     -19.761522      -537.7384 
   6   1.0000     -19.761490      -537.7375 
   7   1.0000     -19.761304      -537.7324 
   8   1.0000     -19.761240      -537.7307 
   9   1.0000     -19.761138      -537.7279 
  10   1.0000     -19.761104      -537.7270 
  11   1.0000      -4.322762      -117.6283 
  12   1.0000      -3.082655       -83.8833 
  13   1.0000      -3.082624       -83.8825 
  14   1.0000      -3.082607       -83.8820 
  15   1.0000      -1.595859       -43.4255 
  16   1.0000      -1.585313       -43.1386 
  17   1.0000      -1.585056       -43.1316 
  18   1.0000      -1.584840       -43.1257 
  19   1.0000      -1.583389       -43.0862 
  20   1.0000      -1.583142       -43.0795 
  21   1.0000      -1.115338       -30.3499 
  22   1.0000      -1.115066       -30.3425 
  23   1.0000      -1.103084       -30.0164 
  24   1.0000      -1.102892       -30.0112 
  25   1.0000      -1.102678       -30.0054 
  26   1.0000      -1.087767       -29.5996 
  27   1.0000      -1.087543       -29.5936 
  28   1.0000      -1.087352       -29.5884 
  29   1.0000      -1.065513       -28.9941 
  30   1.0000      -1.051684       -28.6178 
  31   1.0000      -1.051654       -28.6170 
  32   1.0000      -1.051634       -28.6164 
  33   1.0000      -1.003422       -27.3045 
  34   1.0000      -1.002997       -27.2929 
  35   1.0000      -1.002674       -27.2842 
  36   1.0000      -0.904398       -24.6099 
  37   1.0000      -0.904232       -24.6054 
  38   1.0000      -0.885331       -24.0911 
  39   1.0000      -0.885116       -24.0852 
  40   1.0000      -0.884832       -24.0775 
  41   1.0000      -0.880120       -23.9493 
  42   1.0000      -0.879872       -23.9425 
  43   1.0000      -0.879734       -23.9388 
  44   0.0000      -0.471813       -12.8387 
  45   0.0000      -0.411266       -11.1911 
  46   0.0000      -0.411152       -11.1880 
  47   0.0000      -0.411111       -11.1869 
  48   0.0000      -0.372473       -10.1355 
  49   0.0000      -0.372391       -10.1333 
  50   0.0000      -0.329387        -8.9631 
  51   0.0000      -0.329259        -8.9596 
  52   0.0000      -0.329151        -8.9567 
  53   0.0000      -0.329079        -8.9547 
  54   0.0000      -0.328878        -8.9492 
  55   0.0000      -0.328811        -8.9474 
  56   0.0000      -0.311040        -8.4638 
  57   0.0000      -0.224158        -6.0996 
  58   0.0000      -0.224125        -6.0988 
  59   0.0000      -0.223774        -6.0892 
  60   0.0000      -0.221176        -6.0185 
  61   0.0000      -0.220273        -5.9939 
  62   0.0000      -0.218910        -5.9568 
  63   0.0000      -0.209588        -5.7032 
  64   0.0000      -0.174151        -4.7389 
  65   0.0000      -0.173982        -4.7343 
  66   0.0000      -0.093958        -2.5567 
  67   0.0000      -0.093770        -2.5516 
  68   0.0000      -0.093510        -2.5445 
  69   0.0000      -0.065430        -1.7804 
  70   0.0000      -0.065232        -1.7751 
  71   0.0000      -0.064977        -1.7681 
  72   0.0000      -0.030240        -0.8229 
  73   0.0000       0.040140         1.0923 
  74   0.0000       0.040295         1.0965 
  75   0.0000       0.046965         1.2780 
  76   0.0000       0.047054         1.2804 
  77   0.0000       0.047745         1.2992 
  78   0.0000       0.053016         1.4426 
  79   0.0000       0.053275         1.4497 
  80   0.0000       0.053550         1.4572 
  81   0.0000       0.090644         2.4665 
  82   0.0000       0.090661         2.4670 
  83   0.0000       0.090711         2.4684 
  84   0.0000       0.119314         3.2467 
  85   0.0000       0.120065         3.2671 
  86   0.0000       0.120345         3.2747 
  87   0.0000       0.162092         4.4108 
  88   0.0000       0.162171         4.4129 
  89   0.0000       0.162280         4.4159 
  90   0.0000       0.167546         4.5592 
  91   0.0000       0.179220         4.8768 
  92   0.0000       0.179892         4.8951 
  93   0.0000       0.181241         4.9318 
  94   0.0000       0.202553         5.5117 
  95   0.0000       0.202690         5.5155 
  96   0.0000       0.209812         5.7093 
  97   0.0000       0.327144         8.9020 
  98   0.0000       0.328399         8.9362 
  99   0.0000       0.329404         8.9635 
 100   0.0000       0.426812        11.6141 
 101   0.0000       0.427548        11.6342 
 102   0.0000       0.427938        11.6448 
 103   0.0000       0.505961        13.7679 
 104   0.0000       0.507326        13.8050 
 105   0.0000       0.640435        17.4271 
 106   0.0000       0.640482        17.4284 
 107   0.0000       0.660375        17.9697 
 108   0.0000       0.668254        18.1841 
 109   0.0000       0.668448        18.1894 
 110   0.0000       0.755945        20.5703 
 111   0.0000       0.756422        20.5833 
 112   0.0000       0.756737        20.5919 
 113   0.0000       0.763757        20.7829 
 114   0.0000       0.763924        20.7874 
 115   0.0000       0.764448        20.8017 
 116   0.0000       1.007959        27.4280 
 117   0.0000       1.008335        27.4382 
 118   0.0000       1.009040        27.4574 
 119   0.0000       1.009287        27.4641 
 120   0.0000       1.009589        27.4723 
 121   0.0000       1.010314        27.4920 
 122   0.0000       1.054936        28.7063 
 123   0.0000       1.072452        29.1829 
 124   0.0000       1.072701        29.1897 
 125   0.0000       1.120913        30.5016 
 126   0.0000       1.121561        30.5192 
 127   0.0000       1.122594        30.5473 
 128   0.0000       1.162735        31.6396 
 129   0.0000       1.163236        31.6533 
 130   0.0000       1.163423        31.6584 
 131   0.0000       1.213922        33.0325 
 132   0.0000       1.264936        34.4207 
 133   0.0000       1.265107        34.4253 
 134   0.0000       1.265309        34.4308 
 135   0.0000       1.299760        35.3683 
 136   0.0000       1.300795        35.3964 
 137   0.0000       1.302515        35.4432 
 138   0.0000       1.316764        35.8310 
 139   0.0000       1.316795        35.8318 
 140   0.0000       1.316840        35.8330 
 141   0.0000       1.481012        40.3004 
 142   0.0000       1.481396        40.3108 
 143   0.0000       1.481634        40.3173 
 144   0.0000       1.490918        40.5700 
 145   0.0000       1.491366        40.5821 
 146   0.0000       1.552802        42.2539 
 147   0.0000       1.553462        42.2719 
 148   0.0000       1.554934        42.3119 
 149   0.0000       1.561824        42.4994 
 150   0.0000       1.562119        42.5074 
 151   0.0000       1.562579        42.5199 
 152   0.0000       1.570849        42.7450 
 153   0.0000       1.593065        43.3495 
 154   0.0000       1.593235        43.3541 
 155   0.0000       1.615479        43.9594 
 156   0.0000       1.616423        43.9851 
 157   0.0000       1.616928        43.9988 
 158   0.0000       1.617396        44.0116 
 159   0.0000       1.640894        44.6510 
 160   0.0000       1.641635        44.6712 
 161   0.0000       1.642286        44.6889 
 162   0.0000       1.795360        48.8542 
 163   0.0000       1.796043        48.8728 
 164   0.0000       1.872899        50.9642 
 165   0.0000       1.873551        50.9819 
 166   0.0000       1.874111        50.9971 
 167   0.0000       1.930293        52.5259 
 168   0.0000       1.931175        52.5499 
 169   0.0000       1.931755        52.5657 
 170   0.0000       1.982443        53.9450 
 171   0.0000       2.024385        55.0863 
 172   0.0000       2.024931        55.1012 
 173   0.0000       2.048180        55.7338 
 174   0.0000       2.048959        55.7550 
 175   0.0000       2.049580        55.7719 
 176   0.0000       2.113860        57.5211 
 177   0.0000       2.114470        57.5377 
 178   0.0000       2.115268        57.5594 
 179   0.0000       2.130887        57.9844 
 180   0.0000       2.131080        57.9896 
 181   0.0000       2.131257        57.9945 
 182   0.0000       2.184583        59.4455 
 183   0.0000       2.214259        60.2531 
 184   0.0000       2.214414        60.2573 
 185   0.0000       2.215064        60.2750 
 186   0.0000       2.303999        62.6950 
 187   0.0000       2.304726        62.7148 
 188   0.0000       2.305981        62.7489 
 189   0.0000       2.320036        63.1314 
 190   0.0000       2.320435        63.1422 
 191   0.0000       2.321012        63.1580 
 192   0.0000       2.355161        64.0872 
 193   0.0000       2.356144        64.1139 
 194   0.0000       2.373119        64.5758 
 195   0.0000       2.432163        66.1825 
 196   0.0000       2.433864        66.2288 
 197   0.0000       2.436650        66.3046 
 198   0.0000       2.850545        77.5673 
 199   0.0000       2.851954        77.6056 
 200   0.0000       3.024479        82.3003 
 201   0.0000       3.025140        82.3183 
 202   0.0000       3.025891        82.3387 
 203   0.0000       3.072286        83.6011 
 204   0.0000       3.120856        84.9228 
 205   0.0000       3.121565        84.9421 
 206   0.0000       3.122176        84.9587 
 207   0.0000       3.185193        86.6735 
 208   0.0000       3.212432        87.4147 
 209   0.0000       3.213151        87.4343 
 210   0.0000       3.322274        90.4037 
 211   0.0000       3.322638        90.4136 
 212   0.0000       3.322845        90.4192 
 213   0.0000       3.329363        90.5966 
 214   0.0000       3.442908        93.6863 
 215   0.0000       3.443236        93.6952 
 216   0.0000       3.444480        93.7291 
 217   0.0000       3.451845        93.9295 
 218   0.0000       3.452073        93.9357 
 219   0.0000       3.452538        93.9483 
 220   0.0000       3.493692        95.0682 
 221   0.0000       3.494276        95.0841 
 222   0.0000       3.495146        95.1078 
 223   0.0000       3.611598        98.2766 
 224   0.0000       3.613200        98.3202 
 225   0.0000       4.555295       123.9559 
 226   0.0000       4.555584       123.9637 
 227   0.0000       4.555898       123.9723 
 228   0.0000       4.606055       125.3371 
 229   0.0000       4.606364       125.3455 
 230   0.0000       4.606581       125.3514 
 231   0.0000       4.699379       127.8766 
 232   0.0000       4.699682       127.8849 
 233   0.0000       4.700474       127.9064 
 234   0.0000       4.735139       128.8497 
 235   0.0000       4.817858       131.1006 
 236   0.0000       4.818714       131.1239 
 237   0.0000       4.841679       131.7488 
 238   0.0000       4.842081       131.7597 
 239   0.0000       4.842533       131.7720 
 240   0.0000       4.845323       131.8479 
 241   0.0000       4.845591       131.8552 
 242   0.0000       4.845727       131.8589 
 243   0.0000       4.858618       132.2097 
 244   0.0000       4.858853       132.2161 
 245   0.0000       4.859134       132.2238 
 246   0.0000       4.894254       133.1794 
 247   0.0000       4.894484       133.1857 
 248   0.0000       4.894696       133.1915 
 249   0.0000       4.943911       134.5306 
 250   0.0000       4.944335       134.5422 
 251   0.0000       4.944387       134.5436 
 252   0.0000       4.945373       134.5705 
 253   0.0000       4.945785       134.5816 
 254   0.0000       4.945912       134.5851 
 255   0.0000       5.455452       148.4504 
 256   0.0000       5.455919       148.4631 
 257   0.0000       5.456117       148.4685 
 258   0.0000       5.476796       149.0312 
 259   0.0000       5.476893       149.0338 
 260   0.0000       5.477389       149.0473 
 261   0.0000       5.677854       154.5023 
 262   0.0000       5.694676       154.9600 
 263   0.0000       5.695164       154.9733 
 264   0.0000       5.696115       154.9992 
 265   0.0000       5.766303       156.9091 
 266   0.0000       5.766438       156.9127 
 267   0.0000       5.818029       158.3166 
 268   0.0000       5.837474       158.8457 
 269   0.0000       5.837629       158.8500 
 270   0.0000       5.837950       158.8587 
 271   0.0000       5.838189       158.8652 
 272   0.0000       5.838514       158.8740 
 273   0.0000       5.872171       159.7899 
 274   0.0000       5.872746       159.8055 
 275   0.0000       5.873734       159.8324 
 276   0.0000       5.971357       162.4889 
 277   0.0000       5.972047       162.5077 
 278   0.0000       5.972644       162.5239 
 279   0.0000       6.078701       165.4099 
 280   0.0000       6.079134       165.4217 
 281   0.0000       6.080285       165.4530 
 282   0.0000       6.216916       169.1709 
 283   0.0000       6.316616       171.8839 
 284   0.0000       6.317094       171.8969 
 285   0.0000       6.380666       173.6267 
 286   0.0000       6.381358       173.6456 
 287   0.0000       6.382394       173.6738 
 288   0.0000       6.404649       174.2794 
 289   0.0000       6.433077       175.0529 
 290   0.0000       6.433472       175.0637 
 291   0.0000       6.496692       176.7840 
 292   0.0000       6.497414       176.8036 
 293   0.0000       6.498266       176.8268 
 294   0.0000       6.567603       178.7136 
 295   0.0000       6.568292       178.7323 
 296   0.0000       6.569979       178.7782 
 297   0.0000      42.815822      1165.0778 
 298   0.0000      42.954075      1168.8398 
 299   0.0000      42.955245      1168.8716 
 300   0.0000      42.956012      1168.8925 
 301   0.0000      43.439621      1182.0522 
 302   0.0000      43.439812      1182.0574 

                 SPIN DOWN ORBITALS
  NO   OCC          E(Eh)            E(eV) 
   0   1.0000    -257.066104     -6995.1243 
   1   1.0000     -30.794320      -837.9560 
   2   1.0000     -26.627667      -724.5757 
   3   1.0000     -26.627645      -724.5751 
   4   1.0000     -26.627631      -724.5747 
   5   1.0000     -19.758091      -537.6450 
   6   1.0000     -19.758057      -537.6441 
   7   1.0000     -19.757874      -537.6391 
   8   1.0000     -19.757811      -537.6374 
   9   1.0000     -19.757714      -537.6347 
  10   1.0000     -19.757678      -537.6338 
  11   1.0000      -4.077626      -110.9579 
  12   1.0000      -2.819238       -76.7154 
  13   1.0000      -2.819209       -76.7146 
  14   1.0000      -2.819175       -76.7137 
  15   1.0000      -1.588618       -43.2285 
  16   1.0000      -1.578066       -42.9413 
  17   1.0000      -1.577818       -42.9346 
  18   1.0000      -1.577614       -42.9291 
  19   1.0000      -1.575689       -42.8767 
  20   1.0000      -1.575459       -42.8704 
  21   1.0000      -1.085530       -29.5388 
  22   1.0000      -1.085316       -29.5330 
  23   1.0000      -1.085113       -29.5274 
  24   1.0000      -1.084418       -29.5085 
  25   1.0000      -1.084201       -29.5026 
  26   1.0000      -1.084017       -29.4976 
  27   1.0000      -1.050957       -28.5980 
  28   1.0000      -1.006862       -27.3981 
  29   1.0000      -1.006468       -27.3874 
  30   1.0000      -0.990075       -26.9413 
  31   1.0000      -0.989630       -26.9292 
  32   1.0000      -0.989303       -26.9203 
  33   1.0000      -0.883992       -24.0547 
  34   1.0000      -0.883664       -24.0457 
  35   1.0000      -0.883467       -24.0404 
  36   1.0000      -0.872719       -23.7479 
  37   1.0000      -0.872549       -23.7433 
  38   1.0000      -0.872251       -23.7352 
  39   0.0000      -0.673269       -18.3206 
  40   0.0000      -0.673238       -18.3197 
  41   0.0000      -0.673169       -18.3179 
  42   0.0000      -0.626574       -17.0500 
  43   0.0000      -0.626308       -17.0427 
  44   0.0000      -0.465286       -12.6611 
  45   0.0000      -0.408305       -11.1106 
  46   0.0000      -0.408201       -11.1077 
  47   0.0000      -0.408142       -11.1061 
  48   0.0000      -0.368663       -10.0318 
  49   0.0000      -0.368593       -10.0299 
  50   0.0000      -0.327050        -8.8995 
  51   0.0000      -0.326919        -8.8959 
  52   0.0000      -0.326791        -8.8924 
  53   0.0000      -0.325972        -8.8702 
  54   0.0000      -0.325790        -8.8652 
  55   0.0000      -0.325702        -8.8628 
  56   0.0000      -0.271646        -7.3919 
  57   0.0000      -0.211047        -5.7429 
  58   0.0000      -0.210949        -5.7402 
  59   0.0000      -0.210609        -5.7310 
  60   0.0000      -0.207359        -5.6425 
  61   0.0000      -0.206152        -5.6097 
  62   0.0000      -0.205265        -5.5855 
  63   0.0000      -0.203887        -5.5481 
  64   0.0000      -0.173289        -4.7154 
  65   0.0000      -0.173117        -4.7108 
  66   0.0000      -0.091749        -2.4966 
  67   0.0000      -0.091541        -2.4910 
  68   0.0000      -0.091276        -2.4837 
  69   0.0000      -0.053240        -1.4487 
  70   0.0000      -0.053054        -1.4437 
  71   0.0000      -0.052788        -1.4364 
  72   0.0000      -0.027913        -0.7596 
  73   0.0000       0.042190         1.1480 
  74   0.0000       0.042340         1.1521 
  75   0.0000       0.049327         1.3423 
  76   0.0000       0.049415         1.3447 
  77   0.0000       0.050137         1.3643 
  78   0.0000       0.056789         1.5453 
  79   0.0000       0.057079         1.5532 
  80   0.0000       0.057401         1.5620 
  81   0.0000       0.097332         2.6485 
  82   0.0000       0.097398         2.6503 
  83   0.0000       0.097415         2.6508 
  84   0.0000       0.126768         3.4495 
  85   0.0000       0.127561         3.4711 
  86   0.0000       0.127856         3.4791 
  87   0.0000       0.165449         4.5021 
  88   0.0000       0.165479         4.5029 
  89   0.0000       0.165572         4.5054 
  90   0.0000       0.177129         4.8199 
  91   0.0000       0.195160         5.3106 
  92   0.0000       0.195899         5.3307 
  93   0.0000       0.197351         5.3702 
  94   0.0000       0.205789         5.5998 
  95   0.0000       0.205909         5.6031 
  96   0.0000       0.213069         5.7979 
  97   0.0000       0.329420         8.9640 
  98   0.0000       0.330645         8.9973 
  99   0.0000       0.331662         9.0250 
 100   0.0000       0.462407        12.5827 
 101   0.0000       0.462965        12.5979 
 102   0.0000       0.463326        12.6077 
 103   0.0000       0.556178        15.1344 
 104   0.0000       0.557520        15.1709 
 105   0.0000       0.643473        17.5098 
 106   0.0000       0.643487        17.5102 
 107   0.0000       0.662522        18.0281 
 108   0.0000       0.670417        18.2430 
 109   0.0000       0.670604        18.2481 
 110   0.0000       0.766294        20.8519 
 111   0.0000       0.766433        20.8557 
 112   0.0000       0.766973        20.8704 
 113   0.0000       0.772194        21.0125 
 114   0.0000       0.772514        21.0212 
 115   0.0000       0.772908        21.0319 
 116   0.0000       1.011753        27.5312 
 117   0.0000       1.012656        27.5558 
 118   0.0000       1.013106        27.5680 
 119   0.0000       1.014569        27.6078 
 120   0.0000       1.015687        27.6382 
 121   0.0000       1.016670        27.6650 
 122   0.0000       1.061565        28.8867 
 123   0.0000       1.076790        29.3010 
 124   0.0000       1.077042        29.3078 
 125   0.0000       1.124262        30.5927 
 126   0.0000       1.124887        30.6097 
 127   0.0000       1.125842        30.6357 
 128   0.0000       1.166115        31.7316 
 129   0.0000       1.166641        31.7459 
 130   0.0000       1.166796        31.7501 
 131   0.0000       1.230328        33.4789 
 132   0.0000       1.268549        34.5190 
 133   0.0000       1.268721        34.5237 
 134   0.0000       1.268934        34.5295 
 135   0.0000       1.308132        35.5961 
 136   0.0000       1.309069        35.6216 
 137   0.0000       1.310723        35.6666 
 138   0.0000       1.321537        35.9609 
 139   0.0000       1.321626        35.9633 
 140   0.0000       1.321702        35.9653 
 141   0.0000       1.507846        41.0306 
 142   0.0000       1.508265        41.0420 
 143   0.0000       1.527916        41.5767 
 144   0.0000       1.528106        41.5819 
 145   0.0000       1.528487        41.5922 
 146   0.0000       1.562194        42.5095 
 147   0.0000       1.562779        42.5254 
 148   0.0000       1.564109        42.5616 
 149   0.0000       1.564244        42.5652 
 150   0.0000       1.564584        42.5745 
 151   0.0000       1.565013        42.5862 
 152   0.0000       1.572924        42.8014 
 153   0.0000       1.595099        43.4049 
 154   0.0000       1.595267        43.4094 
 155   0.0000       1.617700        44.0199 
 156   0.0000       1.619764        44.0760 
 157   0.0000       1.620513        44.0964 
 158   0.0000       1.621066        44.1115 
 159   0.0000       1.643808        44.7303 
 160   0.0000       1.644551        44.7505 
 161   0.0000       1.645061        44.7644 
 162   0.0000       1.800262        48.9876 
 163   0.0000       1.800954        49.0064 
 164   0.0000       1.876061        51.0502 
 165   0.0000       1.876707        51.0678 
 166   0.0000       1.877299        51.0839 
 167   0.0000       1.944995        52.9260 
 168   0.0000       1.945917        52.9511 
 169   0.0000       1.946568        52.9688 
 170   0.0000       1.985625        54.0316 
 171   0.0000       2.028437        55.1966 
 172   0.0000       2.028954        55.2107 
 173   0.0000       2.065253        56.1984 
 174   0.0000       2.066061        56.2204 
 175   0.0000       2.066752        56.2392 
 176   0.0000       2.116925        57.6045 
 177   0.0000       2.117541        57.6212 
 178   0.0000       2.118353        57.6433 
 179   0.0000       2.140700        58.2514 
 180   0.0000       2.140937        58.2579 
 181   0.0000       2.141086        58.2619 
 182   0.0000       2.196331        59.7652 
 183   0.0000       2.218737        60.3749 
 184   0.0000       2.218899        60.3793 
 185   0.0000       2.219552        60.3971 
 186   0.0000       2.307588        62.7927 
 187   0.0000       2.308310        62.8123 
 188   0.0000       2.309587        62.8471 
 189   0.0000       2.338429        63.6319 
 190   0.0000       2.338821        63.6426 
 191   0.0000       2.339341        63.6567 
 192   0.0000       2.368513        64.4505 
 193   0.0000       2.369438        64.4757 
 194   0.0000       2.387566        64.9690 
 195   0.0000       2.440877        66.4196 
 196   0.0000       2.442589        66.4662 
 197   0.0000       2.445506        66.5456 
 198   0.0000       2.884154        78.4818 
 199   0.0000       2.885515        78.5189 
 200   0.0000       3.108502        84.5866 
 201   0.0000       3.127918        85.1150 
 202   0.0000       3.128683        85.1358 
 203   0.0000       3.129309        85.1528 
 204   0.0000       3.150048        85.7172 
 205   0.0000       3.150584        85.7318 
 206   0.0000       3.151233        85.7494 
 207   0.0000       3.231859        87.9434 
 208   0.0000       3.232542        87.9619 
 209   0.0000       3.244488        88.2870 
 210   0.0000       3.405372        92.6649 
 211   0.0000       3.405996        92.6819 
 212   0.0000       3.406168        92.6865 
 213   0.0000       3.448006        93.8250 
 214   0.0000       3.448352        93.8344 
 215   0.0000       3.449757        93.8727 
 216   0.0000       3.519883        95.7809 
 217   0.0000       3.561578        96.9155 
 218   0.0000       3.561890        96.9239 
 219   0.0000       3.562254        96.9339 
 220   0.0000       3.650110        99.3245 
 221   0.0000       3.650801        99.3434 
 222   0.0000       3.651714        99.3682 
 223   0.0000       3.690479       100.4230 
 224   0.0000       3.691993       100.4642 
 225   0.0000       4.559919       124.0817 
 226   0.0000       4.560206       124.0895 
 227   0.0000       4.560524       124.0982 
 228   0.0000       4.611580       125.4875 
 229   0.0000       4.611894       125.4960 
 230   0.0000       4.612116       125.5021 
 231   0.0000       4.706181       128.0617 
 232   0.0000       4.706491       128.0701 
 233   0.0000       4.707262       128.0911 
 234   0.0000       4.740925       129.0071 
 235   0.0000       4.824294       131.2757 
 236   0.0000       4.825180       131.2998 
 237   0.0000       4.845526       131.8535 
 238   0.0000       4.845921       131.8642 
 239   0.0000       4.846367       131.8764 
 240   0.0000       4.849615       131.9647 
 241   0.0000       4.849889       131.9722 
 242   0.0000       4.850020       131.9758 
 243   0.0000       4.863499       132.3425 
 244   0.0000       4.863725       132.3487 
 245   0.0000       4.863996       132.3561 
 246   0.0000       4.898986       133.3082 
 247   0.0000       4.899216       133.3145 
 248   0.0000       4.899435       133.3204 
 249   0.0000       4.946755       134.6081 
 250   0.0000       4.947178       134.6195 
 251   0.0000       4.947229       134.6209 
 252   0.0000       4.948356       134.6516 
 253   0.0000       4.948766       134.6628 
 254   0.0000       4.948894       134.6663 
 255   0.0000       5.459711       148.5663 
 256   0.0000       5.460174       148.5789 
 257   0.0000       5.460370       148.5842 
 258   0.0000       5.481451       149.1579 
 259   0.0000       5.481547       149.1605 
 260   0.0000       5.482052       149.1742 
 261   0.0000       5.682858       154.6384 
 262   0.0000       5.699853       155.1009 
 263   0.0000       5.700336       155.1140 
 264   0.0000       5.701267       155.1393 
 265   0.0000       5.771506       157.0507 
 266   0.0000       5.771632       157.0541 
 267   0.0000       5.825327       158.5152 
 268   0.0000       5.844726       159.0431 
 269   0.0000       5.844874       159.0471 
 270   0.0000       5.846094       159.0803 
 271   0.0000       5.846316       159.0864 
 272   0.0000       5.846641       159.0952 
 273   0.0000       5.881599       160.0464 
 274   0.0000       5.882162       160.0618 
 275   0.0000       5.883130       160.0881 
 276   0.0000       5.980037       162.7251 
 277   0.0000       5.980738       162.7442 
 278   0.0000       5.981330       162.7603 
 279   0.0000       6.089039       165.6912 
 280   0.0000       6.089478       165.7031 
 281   0.0000       6.090609       165.7339 
 282   0.0000       6.225973       169.4173 
 283   0.0000       6.323725       172.0773 
 284   0.0000       6.324220       172.0908 
 285   0.0000       6.385670       173.7629 
 286   0.0000       6.386365       173.7818 
 287   0.0000       6.387403       173.8101 
 288   0.0000       6.409651       174.4155 
 289   0.0000       6.439520       175.2282 
 290   0.0000       6.439936       175.2396 
 291   0.0000       6.502683       176.9470 
 292   0.0000       6.503400       176.9665 
 293   0.0000       6.504261       176.9899 
 294   0.0000       6.573897       178.8848 
 295   0.0000       6.574579       178.9034 
 296   0.0000       6.576278       178.9496 
 297   0.0000      42.819068      1165.1661 
 298   0.0000      42.957310      1168.9278 
 299   0.0000      42.958481      1168.9597 
 300   0.0000      42.959246      1168.9805 
 301   0.0000      43.442839      1182.1398 
 302   0.0000      43.443033      1182.1450 

                    ********************************
                    * MULLIKEN POPULATION ANALYSIS *
                    ********************************

--------------------------------------------
MULLIKEN ATOMIC CHARGES AND SPIN POPULATIONS
--------------------------------------------
   0 Fe:    0.970670    4.470073
   1 O :   -0.544541    0.083178
   2 O :   -0.544622    0.083140
   3 O :   -0.545332    0.082938
   4 O :   -0.545210    0.083028
   5 O :   -0.544391    0.083218
   6 O :   -0.544334    0.083304
   7 H :    0.441528    0.002599
   8 H :    0.441580    0.002598
   9 H :    0.441398    0.002591
  10 H :    0.441352    0.002584
  11 H :    0.441481    0.002597
  12 H :    0.441554    0.002598
  13 H :    0.441555    0.002590
  14 H :    0.441556    0.002604
  15 H :    0.441486    0.002595
  16 H :    0.441579    0.002596
  17 H :    0.441318    0.002585
  18 H :    0.441373    0.002583
Sum of atomic charges         :    3.0000000
Sum of atomic spin populations:    5.0000000

-----------------------------------------------------
MULLIKEN REDUCED ORBITAL CHARGES AND SPIN POPULATIONS
-----------------------------------------------------
CHARGE
  0 Fes       :     6.549875  s :     6.549875
      pz      :     4.203237  p :    12.611687
      px      :     4.203625
      py      :     4.204825
      dz2     :     1.139556  d :     5.866144
      dxz     :     1.221519
      dyz     :     1.169424
      dx2y2   :     1.164399
      dxy     :     1.171245
      f0      :     0.000184  f :     0.001625
      f+1     :     0.000295
      f-1     :     0.000100
      f+2     :     0.000297
      f-2     :     0.000365
      f+3     :     0.000165
      f-3     :     0.000220
  1 O s       :     3.719777  s :     3.719777
      pz      :     1.537203  p :     4.810204
      px      :     1.494432
      py      :     1.778569
      dz2     :     0.004763  d :     0.013111
      dxz     :     0.000887
      dyz     :     0.002726
      dx2y2   :     0.003158
      dxy     :     0.001577
      f0      :     0.000091  f :     0.001449
      f+1     :     0.000124
      f-1     :     0.000466
      f+2     :     0.000091
      f-2     :     0.000114
      f+3     :     0.000199
      f-3     :     0.000363
  2 O s       :     3.719833  s :     3.719833
      pz      :     1.538318  p :     4.810228
      px      :     1.495538
      py      :     1.776371
      dz2     :     0.004721  d :     0.013113
      dxz     :     0.000881
      dyz     :     0.002768
      dx2y2   :     0.003150
      dxy     :     0.001594
      f0      :     0.000088  f :     0.001448
      f+1     :     0.000123
      f-1     :     0.000470
      f+2     :     0.000092
      f-2     :     0.000115
      f+3     :     0.000196
      f-3     :     0.000365
  3 O s       :     3.720061  s :     3.720061
      pz      :     1.556210  p :     4.810710
      px      :     1.646308
      py      :     1.608192
      dz2     :     0.002463  d :     0.013113
      dxz     :     0.001773
      dyz     :     0.004075
      dx2y2   :     0.000595
      dxy     :     0.004207
      f0      :     0.000119  f :     0.001447
      f+1     :     0.000271
      f-1     :     0.000268
      f+2     :     0.000116
      f-2     :     0.000340
      f+3     :     0.000135
      f-3     :     0.000199
  4 O s       :     3.720035  s :     3.720035
      pz      :     1.556583  p :     4.810615
      px      :     1.645131
      py      :     1.608901
      dz2     :     0.002501  d :     0.013113
      dxz     :     0.001761
      dyz     :     0.004042
      dx2y2   :     0.000604
      dxy     :     0.004205
      f0      :     0.000119  f :     0.001448
      f+1     :     0.000271
      f-1     :     0.000269
      f+2     :     0.000117
      f-2     :     0.000337
      f+3     :     0.000133
      f-3     :     0.000202
  5 O s       :     3.719578  s :     3.719578
      pz      :     1.713865  p :     4.810248
      px      :     1.669748
      py      :     1.426635
      dz2     :     0.001722  d :     0.013115
      dxz     :     0.003738
      dyz     :     0.001131
      dx2y2   :     0.004399
      dxy     :     0.002124
      f0      :     0.000176  f :     0.001449
      f+1     :     0.000228
      f-1     :     0.000247
      f+2     :     0.000145
      f-2     :     0.000283
      f+3     :     0.000084
      f-3     :     0.000286
  6 O s       :     3.719599  s :     3.719599
      pz      :     1.715694  p :     4.810171
      px      :     1.668493
      py      :     1.425983
      dz2     :     0.001708  d :     0.013116
      dxz     :     0.003727
      dyz     :     0.001140
      dx2y2   :     0.004423
      dxy     :     0.002117
      f0      :     0.000179  f :     0.001449
      f+1     :     0.000224
      f-1     :     0.000246
      f+2     :     0.000145
      f-2     :     0.000284
      f+3     :     0.000081
      f-3     :     0.000290
  7 H s       :     0.513711  s :     0.513711
      pz      :     0.011648  p :     0.044762
      px      :     0.011491
      py      :     0.021623
  8 H s       :     0.513663  s :     0.513663
      pz      :     0.019245  p :     0.044756
      px      :     0.012434
      py      :     0.013077
  9 H s       :     0.513824  s :     0.513824
      pz      :     0.009730  p :     0.044778
      px      :     0.021209
      py      :     0.013838
 10 H s       :     0.513884  s :     0.513884
      pz      :     0.011853  p :     0.044764
      px      :     0.017772
      py      :     0.015140
 11 H s       :     0.513756  s :     0.513756
      pz      :     0.020061  p :     0.044763
      px      :     0.009656
      py      :     0.015047
 12 H s       :     0.513679  s :     0.513679
      pz      :     0.016939  p :     0.044766
      px      :     0.017047
      py      :     0.010780
 13 H s       :     0.513685  s :     0.513685
      pz      :     0.019262  p :     0.044760
      px      :     0.012420
      py      :     0.013078
 14 H s       :     0.513676  s :     0.513676
      pz      :     0.016986  p :     0.044769
      px      :     0.017011
      py      :     0.010772
 15 H s       :     0.513749  s :     0.513749
      pz      :     0.020091  p :     0.044765
      px      :     0.009654
      py      :     0.015020
 16 H s       :     0.513661  s :     0.513661
      pz      :     0.011667  p :     0.044760
      px      :     0.011463
      py      :     0.021629
 17 H s       :     0.513918  s :     0.513918
      pz      :     0.011873  p :     0.044764
      px      :     0.017741
      py      :     0.015149
 18 H s       :     0.513851  s :     0.513851
      pz      :     0.009745  p :     0.044776
      px      :     0.021191
      py      :     0.013840

SPIN
  0 Fes       :     0.048246  s :     0.048246
      pz      :     0.006846  p :     0.020528
      px      :     0.006850
      py      :     0.006832
      dz2     :     0.904267  d :     4.401307
      dxz     :     0.845661
      dyz     :     0.882916
      dx2y2   :     0.886684
      dxy     :     0.881779
      f0      :    -0.000001  f :    -0.000009
      f+1     :    -0.000002
      f-1     :     0.000000
      f+2     :    -0.000000
      f-2     :    -0.000004
      f+3     :     0.000001
      f-3     :    -0.000002
  1 O s       :     0.007285  s :     0.007285
      pz      :     0.025379  p :     0.074646
      px      :     0.019191
      py      :     0.030076
      dz2     :     0.000315  d :     0.001249
      dxz     :     0.000484
      dyz     :     0.000164
      dx2y2   :     0.000200
      dxy     :     0.000086
      f0      :     0.000001  f :    -0.000002
      f+1     :     0.000011
      f-1     :    -0.000006
      f+2     :     0.000004
      f-2     :    -0.000002
      f+3     :    -0.000003
      f-3     :    -0.000007
  2 O s       :     0.007281  s :     0.007281
      pz      :     0.025474  p :     0.074613
      px      :     0.019249
      py      :     0.029890
      dz2     :     0.000313  d :     0.001247
      dxz     :     0.000485
      dyz     :     0.000164
      dx2y2   :     0.000199
      dxy     :     0.000086
      f0      :     0.000000  f :    -0.000002
      f+1     :     0.000011
      f-1     :    -0.000006
      f+2     :     0.000004
      f-2     :    -0.000002
      f+3     :    -0.000003
      f-3     :    -0.000007
  3 O s       :     0.007267  s :     0.007267
      pz      :     0.016938  p :     0.074431
      px      :     0.022360
      py      :     0.035134
      dz2     :     0.000145  d :     0.001242
      dxz     :    -0.000014
      dyz     :     0.000404
      dx2y2   :     0.000347
      dxy     :     0.000361
      f0      :     0.000004  f :    -0.000002
      f+1     :    -0.000004
      f-1     :     0.000001
      f+2     :     0.000001
      f-2     :    -0.000003
      f+3     :     0.000001
      f-3     :    -0.000002
  4 O s       :     0.007268  s :     0.007268
      pz      :     0.016944  p :     0.074521
      px      :     0.022259
      py      :     0.035318
      dz2     :     0.000145  d :     0.001241
      dxz     :    -0.000014
      dyz     :     0.000404
      dx2y2   :     0.000346
      dxy     :     0.000360
      f0      :     0.000004  f :    -0.000002
      f+1     :    -0.000004
      f-1     :     0.000001
      f+2     :     0.000001
      f-2     :    -0.000003
      f+3     :     0.000001
      f-3     :    -0.000002
  5 O s       :     0.007294  s :     0.007294
      pz      :     0.031968  p :     0.074666
      px      :     0.032866
      py      :     0.009832
      dz2     :     0.000180  d :     0.001259
      dxz     :     0.000440
      dyz     :     0.000166
      dx2y2   :     0.000178
      dxy     :     0.000296
      f0      :    -0.000004  f :    -0.000001
      f+1     :    -0.000009
      f-1     :     0.000003
      f+2     :    -0.000002
      f-2     :     0.000002
      f+3     :     0.000005
      f-3     :     0.000004
  6 O s       :     0.007297  s :     0.007297
      pz      :     0.032120  p :     0.074751
      px      :     0.032853
      py      :     0.009778
      dz2     :     0.000180  d :     0.001258
      dxz     :     0.000440
      dyz     :     0.000167
      dx2y2   :     0.000178
      dxy     :     0.000294
      f0      :    -0.000004  f :    -0.000001
      f+1     :    -0.000009
      f-1     :     0.000003
      f+2     :    -0.000002
      f-2     :     0.000002
      f+3     :     0.000005
      f-3     :     0.000004
  7 H s       :     0.002196  s :     0.002196
      pz      :     0.000233  p :     0.000402
      px      :     0.000192
      py      :    -0.000022
  8 H s       :     0.002198  s :     0.002198
      pz      :     0.000066  p :     0.000401
      px      :     0.000243
      py      :     0.000092
  9 H s       :     0.002188  s :     0.002188
      pz      :     0.000202  p :     0.000403
      px      :    -0.000044
      py      :     0.000244
 10 H s       :     0.002181  s :     0.002181
      pz      :     0.000238  p :     0.000404
      px      :     0.000119
      py      :     0.000046
 11 H s       :     0.002194  s :     0.002194
      pz      :    -0.000041  p :     0.000403
      px      :     0.000229
      py      :     0.000214
 12 H s       :     0.002194  s :     0.002194
      pz      :     0.000107  p :     0.000403
      px      :     0.000061
      py      :     0.000235
 13 H s       :     0.002188  s :     0.002188
      pz      :     0.000065  p :     0.000401
      px      :     0.000242
      py      :     0.000094
 14 H s       :     0.002201  s :     0.002201
      pz      :     0.000106  p :     0.000403
      px      :     0.000062
      py      :     0.000235
 15 H s       :     0.002192  s :     0.002192
      pz      :    -0.000042  p :     0.000403
      px      :     0.000230
      py      :     0.000215
 16 H s       :     0.002193  s :     0.002193
      pz      :     0.000233  p :     0.000403
      px      :     0.000192
      py      :    -0.000022
 17 H s       :     0.002182  s :     0.002182
      pz      :     0.000239  p :     0.000403
      px      :     0.000119
      py      :     0.000045
 18 H s       :     0.002181  s :     0.002181
      pz      :     0.000203  p :     0.000403
      px      :    -0.000043
      py      :     0.000243


                     *******************************
                     * LOEWDIN POPULATION ANALYSIS *
                     *******************************

-------------------------------------------
LOEWDIN ATOMIC CHARGES AND SPIN POPULATIONS
-------------------------------------------
   0 Fe:    0.464132    4.415496
   1 O :   -0.053420    0.089864
   2 O :   -0.053504    0.089821
   3 O :   -0.053891    0.089639
   4 O :   -0.053776    0.089717
   5 O :   -0.053218    0.089902
   6 O :   -0.053121    0.089980
   7 H :    0.238121    0.003802
   8 H :    0.238089    0.003803
   9 H :    0.238032    0.003798
  10 H :    0.237942    0.003782
  11 H :    0.238063    0.003799
  12 H :    0.238173    0.003810
  13 H :    0.238032    0.003799
  14 H :    0.238198    0.003813
  15 H :    0.238085    0.003799
  16 H :    0.238137    0.003802
  17 H :    0.237934    0.003781
  18 H :    0.237992    0.003791

----------------------------------------------------
LOEWDIN REDUCED ORBITAL CHARGES AND SPIN POPULATIONS
----------------------------------------------------
CHARGE
  0 Fes       :     6.273650  s :     6.273650
      pz      :     4.218676  p :    12.656585
      px      :     4.218808
      py      :     4.219100
      dz2     :     1.245043  d :     6.603456
      dxz     :     1.429488
      dyz     :     1.311967
      dx2y2   :     1.301453
      dxy     :     1.315504
      f0      :     0.000247  f :     0.002177
      f+1     :     0.000398
      f-1     :     0.000125
      f+2     :     0.000401
      f-2     :     0.000493
      f+3     :     0.000220
      f-3     :     0.000293
  1 O s       :     3.347865  s :     3.347865
      pz      :     1.510398  p :     4.678025
      px      :     1.463371
      py      :     1.704256
      dz2     :     0.008782  d :     0.025457
      dxz     :     0.003651
      dyz     :     0.004668
      dx2y2   :     0.005346
      dxy     :     0.003010
      f0      :     0.000186  f :     0.002073
      f+1     :     0.000334
      f-1     :     0.000644
      f+2     :     0.000135
      f-2     :     0.000096
      f+3     :     0.000208
      f-3     :     0.000471
  2 O s       :     3.347902  s :     3.347902
      pz      :     1.511485  p :     4.678074
      px      :     1.464373
      py      :     1.702216
      dz2     :     0.008716  d :     0.025455
      dxz     :     0.003630
      dyz     :     0.004733
      dx2y2   :     0.005334
      dxy     :     0.003042
      f0      :     0.000180  f :     0.002073
      f+1     :     0.000332
      f-1     :     0.000649
      f+2     :     0.000139
      f-2     :     0.000095
      f+3     :     0.000202
      f-3     :     0.000475
  3 O s       :     3.348073  s :     3.348073
      pz      :     1.505376  p :     4.678322
      px      :     1.586250
      py      :     1.586696
      dz2     :     0.004819  d :     0.025426
      dxz     :     0.003561
      dyz     :     0.007673
      dx2y2   :     0.001967
      dxy     :     0.007406
      f0      :     0.000175  f :     0.002071
      f+1     :     0.000266
      f-1     :     0.000548
      f+2     :     0.000098
      f-2     :     0.000441
      f+3     :     0.000218
      f-3     :     0.000326
  4 O s       :     3.348023  s :     3.348023
      pz      :     1.505728  p :     4.678253
      px      :     1.585135
      py      :     1.587391
      dz2     :     0.004872  d :     0.025428
      dxz     :     0.003546
      dyz     :     0.007617
      dx2y2   :     0.001989
      dxy     :     0.007404
      f0      :     0.000175  f :     0.002071
      f+1     :     0.000267
      f-1     :     0.000550
      f+2     :     0.000098
      f-2     :     0.000437
      f+3     :     0.000214
      f-3     :     0.000331
  5 O s       :     3.347739  s :     3.347739
      pz      :     1.659363  p :     4.677924
      px      :     1.628539
      py      :     1.390022
      dz2     :     0.003129  d :     0.025481
      dxz     :     0.006114
      dyz     :     0.003023
      dx2y2   :     0.008343
      dxy     :     0.004872
      f0      :     0.000169  f :     0.002075
      f+1     :     0.000257
      f-1     :     0.000368
      f+2     :     0.000169
      f-2     :     0.000465
      f+3     :     0.000170
      f-3     :     0.000477
  6 O s       :     3.347701  s :     3.347701
      pz      :     1.661080  p :     4.677862
      px      :     1.627421
      py      :     1.389361
      dz2     :     0.003100  d :     0.025484
      dxz     :     0.006094
      dyz     :     0.003027
      dx2y2   :     0.008389
      dxy     :     0.004873
      f0      :     0.000173  f :     0.002074
      f+1     :     0.000249
      f-1     :     0.000367
      f+2     :     0.000171
      f-2     :     0.000468
      f+3     :     0.000164
      f-3     :     0.000482
  7 H s       :     0.607679  s :     0.607679
      pz      :     0.033268  p :     0.154200
      px      :     0.033628
      py      :     0.087304
  8 H s       :     0.607701  s :     0.607701
      pz      :     0.073309  p :     0.154210
      px      :     0.037837
      py      :     0.043063
  9 H s       :     0.607751  s :     0.607751
      pz      :     0.027113  p :     0.154216
      px      :     0.084539
      py      :     0.042564
 10 H s       :     0.607834  s :     0.607834
      pz      :     0.036441  p :     0.154224
      px      :     0.064488
      py      :     0.053294
 11 H s       :     0.607731  s :     0.607731
      pz      :     0.078543  p :     0.154206
      px      :     0.027073
      py      :     0.048591
 12 H s       :     0.607635  s :     0.607635
      pz      :     0.059576  p :     0.154191
      px      :     0.061287
      py      :     0.033328
 13 H s       :     0.607737  s :     0.607737
      pz      :     0.073413  p :     0.154231
      px      :     0.037792
      py      :     0.043025
 14 H s       :     0.607615  s :     0.607615
      pz      :     0.059815  p :     0.154187
      px      :     0.061096
      py      :     0.033277
 15 H s       :     0.607711  s :     0.607711
      pz      :     0.078708  p :     0.154204
      px      :     0.027075
      py      :     0.048421
 16 H s       :     0.607660  s :     0.607660
      pz      :     0.033339  p :     0.154202
      px      :     0.033516
      py      :     0.087347
 17 H s       :     0.607843  s :     0.607843
      pz      :     0.036543  p :     0.154223
      px      :     0.064294
      py      :     0.053386
 18 H s       :     0.607786  s :     0.607786
      pz      :     0.027159  p :     0.154222
      px      :     0.084454
      py      :     0.042609

SPIN
  0 Fes       :     0.008880  s :     0.008880
      pz      :     0.001834  p :     0.005510
      px      :     0.001838
      py      :     0.001838
      dz2     :     0.903469  d :     4.401143
      dxz     :     0.846681
      dyz     :     0.882836
      dx2y2   :     0.886431
      dxy     :     0.881725
      f0      :    -0.000004  f :    -0.000036
      f+1     :    -0.000007
      f-1     :    -0.000001
      f+2     :    -0.000006
      f-2     :    -0.000010
      f+3     :    -0.000002
      f-3     :    -0.000006
  1 O s       :     0.011357  s :     0.011357
      pz      :     0.025886  p :     0.074549
      px      :     0.019604
      py      :     0.029059
      dz2     :     0.000836  d :     0.003753
      dxz     :     0.001424
      dyz     :     0.000524
      dx2y2   :     0.000734
      dxy     :     0.000235
      f0      :     0.000019  f :     0.000205
      f+1     :     0.000101
      f-1     :     0.000003
      f+2     :     0.000048
      f-2     :     0.000025
      f+3     :     0.000001
      f-3     :     0.000010
  2 O s       :     0.011353  s :     0.011353
      pz      :     0.025976  p :     0.074515
      px      :     0.019654
      py      :     0.028884
      dz2     :     0.000833  d :     0.003748
      dxz     :     0.001427
      dyz     :     0.000525
      dx2y2   :     0.000729
      dxy     :     0.000235
      f0      :     0.000019  f :     0.000205
      f+1     :     0.000101
      f-1     :     0.000003
      f+2     :     0.000048
      f-2     :     0.000025
      f+3     :     0.000001
      f-3     :     0.000010
  3 O s       :     0.011350  s :     0.011350
      pz      :     0.016749  p :     0.074349
      px      :     0.021848
      py      :     0.035752
      dz2     :     0.000351  d :     0.003736
      dxz     :     0.000035
      dyz     :     0.001243
      dx2y2   :     0.000949
      dxy     :     0.001158
      f0      :     0.000038  f :     0.000204
      f+1     :     0.000003
      f-1     :     0.000021
      f+2     :     0.000020
      f-2     :     0.000060
      f+3     :     0.000024
      f-3     :     0.000038
  4 O s       :     0.011349  s :     0.011349
      pz      :     0.016759  p :     0.074430
      px      :     0.021753
      py      :     0.035917
      dz2     :     0.000351  d :     0.003734
      dxz     :     0.000035
      dyz     :     0.001243
      dx2y2   :     0.000946
      dxy     :     0.001158
      f0      :     0.000038  f :     0.000204
      f+1     :     0.000003
      f-1     :     0.000021
      f+2     :     0.000020
      f-2     :     0.000060
      f+3     :     0.000024
      f-3     :     0.000038
  5 O s       :     0.011357  s :     0.011357
      pz      :     0.031557  p :     0.074563
      px      :     0.032888
      py      :     0.010118
      dz2     :     0.000451  d :     0.003776
      dxz     :     0.001680
      dyz     :     0.000408
      dx2y2   :     0.000420
      dxy     :     0.000817
      f0      :     0.000008  f :     0.000207
      f+1     :     0.000013
      f-1     :     0.000021
      f+2     :     0.000014
      f-2     :     0.000074
      f+3     :     0.000013
      f-3     :     0.000064
  6 O s       :     0.011357  s :     0.011357
      pz      :     0.031704  p :     0.074641
      px      :     0.032874
      py      :     0.010063
      dz2     :     0.000451  d :     0.003775
      dxz     :     0.001680
      dyz     :     0.000411
      dx2y2   :     0.000421
      dxy     :     0.000811
      f0      :     0.000008  f :     0.000207
      f+1     :     0.000013
      f-1     :     0.000021
      f+2     :     0.000014
      f-2     :     0.000074
      f+3     :     0.000013
      f-3     :     0.000064
  7 H s       :     0.001828  s :     0.001828
      pz      :     0.000891  p :     0.001974
      px      :     0.000894
      py      :     0.000189
  8 H s       :     0.001837  s :     0.001837
      pz      :     0.000393  p :     0.001967
      px      :     0.000711
      py      :     0.000862
  9 H s       :     0.001824  s :     0.001824
      pz      :     0.000814  p :     0.001973
      px      :     0.000350
      py      :     0.000809
 10 H s       :     0.001813  s :     0.001813
      pz      :     0.000632  p :     0.001969
      px      :     0.000536
      py      :     0.000801
 11 H s       :     0.001828  s :     0.001828
      pz      :     0.000482  p :     0.001972
      px      :     0.000724
      py      :     0.000766
 12 H s       :     0.001834  s :     0.001834
      pz      :     0.000722  p :     0.001976
      px      :     0.000715
      py      :     0.000539
 13 H s       :     0.001829  s :     0.001829
      pz      :     0.000393  p :     0.001969
      px      :     0.000709
      py      :     0.000867
 14 H s       :     0.001839  s :     0.001839
      pz      :     0.000718  p :     0.001974
      px      :     0.000716
      py      :     0.000540
 15 H s       :     0.001826  s :     0.001826
      pz      :     0.000479  p :     0.001973
      px      :     0.000723
      py      :     0.000771
 16 H s       :     0.001827  s :     0.001827
      pz      :     0.000893  p :     0.001976
      px      :     0.000895
      py      :     0.000188
 17 H s       :     0.001814  s :     0.001814
      pz      :     0.000632  p :     0.001967
      px      :     0.000539
      py      :     0.000796
 18 H s       :     0.001818  s :     0.001818
      pz      :     0.000816  p :     0.001972
      px      :     0.000351
      py      :     0.000805


                      *****************************
                      * MAYER POPULATION ANALYSIS *
                      *****************************

  NA   - Mulliken gross atomic population
  ZA   - Total nuclear charge
  QA   - Mulliken gross atomic charge
  VA   - Mayer's total valence
  BVA  - Mayer's bonded valence
  FA   - Mayer's free valence

  ATOM       NA         ZA         QA         VA         BVA        FA
  0 Fe    25.0293    26.0000     0.9707     7.3358     3.3136     4.0222
  1 O      8.5445     8.0000    -0.5445     2.0732     2.0684     0.0047
  2 O      8.5446     8.0000    -0.5446     2.0730     2.0682     0.0047
  3 O      8.5453     8.0000    -0.5453     2.0721     2.0674     0.0047
  4 O      8.5452     8.0000    -0.5452     2.0723     2.0676     0.0047
  5 O      8.5444     8.0000    -0.5444     2.0733     2.0686     0.0047
  6 O      8.5443     8.0000    -0.5443     2.0734     2.0687     0.0047
  7 H      0.5585     1.0000     0.4415     0.8239     0.8239     0.0000
  8 H      0.5584     1.0000     0.4416     0.8238     0.8238     0.0000
  9 H      0.5586     1.0000     0.4414     0.8240     0.8240     0.0000
 10 H      0.5586     1.0000     0.4414     0.8240     0.8240     0.0000
 11 H      0.5585     1.0000     0.4415     0.8239     0.8239     0.0000
 12 H      0.5584     1.0000     0.4416     0.8239     0.8238     0.0000
 13 H      0.5584     1.0000     0.4416     0.8239     0.8239     0.0000
 14 H      0.5584     1.0000     0.4416     0.8239     0.8238     0.0000
 15 H      0.5585     1.0000     0.4415     0.8239     0.8239     0.0000
 16 H      0.5584     1.0000     0.4416     0.8238     0.8238     0.0000
 17 H      0.5587     1.0000     0.4413     0.8241     0.8241     0.0000
 18 H      0.5586     1.0000     0.4414     0.8240     0.8240     0.0000

  Mayer bond orders larger than 0.100000
B(  0-Fe,  1-O ) :   0.5333 B(  0-Fe,  2-O ) :   0.5331 B(  0-Fe,  3-O ) :   0.5322 
B(  0-Fe,  4-O ) :   0.5325 B(  0-Fe,  5-O ) :   0.5336 B(  0-Fe,  6-O ) :   0.5340 
B(  1-O ,  9-H ) :   0.8052 B(  1-O , 15-H ) :   0.8051 B(  2-O , 11-H ) :   0.8051 
B(  2-O , 18-H ) :   0.8053 B(  3-O ,  8-H ) :   0.8051 B(  3-O , 17-H ) :   0.8053 
B(  4-O , 10-H ) :   0.8053 B(  4-O , 13-H ) :   0.8051 B(  5-O ,  7-H ) :   0.8051 
B(  5-O , 14-H ) :   0.8050 B(  6-O , 12-H ) :   0.8050 B(  6-O , 16-H ) :   0.8050 


-------
TIMINGS
-------

Total SCF time: 0 days 0 hours 0 min 13 sec 

Total time                  ....      13.259 sec
Sum of individual times     ....      12.450 sec  ( 93.9%)

Fock matrix formation       ....       8.768 sec  ( 66.1%)
  Split-RI-J                ....       1.168 sec  ( 13.3% of F)
  Chain of spheres X        ....       4.696 sec  ( 53.6% of F)
  XC integration            ....       2.136 sec  ( 24.4% of F)
    Basis function eval.    ....       0.148 sec  (  6.9% of XC)
    Density eval.           ....       0.289 sec  ( 13.5% of XC)
    XC-Functional eval.     ....       0.049 sec  (  2.3% of XC)
    XC-Potential eval.      ....       0.224 sec  ( 10.5% of XC)
Diagonalization             ....       1.110 sec  (  8.4%)
Density matrix formation    ....       0.047 sec  (  0.4%)
Population analysis         ....       0.090 sec  (  0.7%)
Initial guess               ....       0.134 sec  (  1.0%)
Orbital Transformation      ....       0.000 sec  (  0.0%)
Orbital Orthonormalization  ....       0.000 sec  (  0.0%)
DIIS solution               ....       0.594 sec  (  4.5%)
Grid generation             ....       1.706 sec  ( 12.9%)

Maximum memory used throughout the entire SCF-calculation: 82.4 MB

-------------------------   --------------------
FINAL SINGLE POINT ENERGY     -1720.746622334692
-------------------------   --------------------


                            ***************************************
                            *     ORCA property calculations      *
                            ***************************************

                                    ---------------------
                                    Active property flags
                                    ---------------------
   (+) Dipole Moment


------------------------------------------------------------------------------
                       ORCA ELECTRIC PROPERTIES CALCULATION
------------------------------------------------------------------------------

Dipole Moment Calculation                       ... on
Quadrupole Moment Calculation                   ... off
Polarizability Calculation                      ... off
GBWName                                         ... Fe_H2O_6_HighSpin.gbw
Electron density                                ... Fe_H2O_6_HighSpin.scfp
The origin for moment calculation is the CENTER OF MASS  = (-1.007702, -0.264093  0.368030)

-------------
DIPOLE MOMENT
-------------
                                X             Y             Z
Electronic contribution:     -0.00207      -0.00070      -0.00122
Nuclear contribution   :      0.00002       0.00401       0.00162
                        -----------------------------------------
Total Dipole Moment    :     -0.00205       0.00331       0.00040
                        -----------------------------------------
Magnitude (a.u.)       :      0.00391
Magnitude (Debye)      :      0.00994



--------------------
Rotational spectrum 
--------------------
 
Rotational constants in cm-1:     0.051909     0.051724     0.051638 
Rotational constants in MHz :  1556.204518  1550.654754  1548.070129 

 Dipole components along the rotational axes: 
x,y,z [a.u.] :    -0.002760    -0.002661    -0.000768 
x,y,z [Debye]:    -0.007016    -0.006763    -0.001953 

 

Timings for individual modules:

Sum of individual times         ...       37.864 sec (=   0.631 min)
GTO integral calculation        ...       15.138 sec (=   0.252 min)  40.0 %
SCF iterations                  ...       22.726 sec (=   0.379 min)  60.0 %
                             ****ORCA TERMINATED NORMALLY****
TOTAL RUN TIME: 0 days 0 hours 0 minutes 51 seconds 700 msec
