
     Program PWSCF v.7.3 starts on 26Sep2025 at 22:24:33 

     This program is part of the open-source Quantum ESPRESSO suite
     for quantum simulation of materials; please cite
         "P. Giannozzi et al., J. Phys.:Condens. Matter 21 395502 (2009);
         "P. Giannozzi et al., J. Phys.:Condens. Matter 29 465901 (2017);
         "P. Giannozzi et al., J. Chem. Phys. 152 154105 (2020);
          URL http://www.quantum-espresso.org", 
     in publications or presentations arising from this work. More details at
     http://www.quantum-espresso.org/quote

     Parallel version (MPI & OpenMP), running on     256 processor cores
     Number of MPI processes:               128
     Threads/MPI process:                     2

     MPI processes distributed on     2 nodes
     434781 MiB available memory on the printing compute node when the environment starts

     Reading input from Cr_0_-0.2.in
Warning: card &CELL ignored
Warning: card / ignored
Warning: card &FCP ignored
Warning: card / ignored
Warning: card &RISM ignored
Warning: card / ignored

     Current dimensions of program PWSCF are:
     Max number of different atomic species (ntypx) = 10
     Max number of k-points (npk) =  40000
     Max angular momentum in pseudopotentials (lmaxx) =  4
read_pp_mesh; mismatch in mesh size, discarding the one in header
read_pp_mesh; mismatch in mesh size, discarding the one in header
read_pp_mesh; mismatch in mesh size, discarding the one in header
     file Cr.GGA-PBE-paw.UPF: wavefunction(s)  3S 4S 3P 4P 3D 4D renormalized
     file I.GGA-PBE-paw.UPF: wavefunction(s)  6S 6P renormalized
     file Cr.GGA-PBE-paw.UPF: wavefunction(s)  3S 4S 3P 4P 3D 4D renormalized

     IMPORTANT: XC functional enforced from input :
     Exchange-correlation= PBE
                           (   1   4   3   4   0   0   0)
     Any further DFT definition will be discarded
     Please, verify this is what you really want


     R & G space division:  proc/nbgrp/npool/nimage =     128
     Subspace diagonalization in iterative solution of the eigenvalue problem:
     one sub-group per band group will be used
     ELPA distributed-memory algorithm (size of sub-group:  3*  3 procs)


     Parallelization info
     --------------------
     sticks:   dense  smooth     PW     G-vecs:    dense   smooth      PW
     Min         509     305     78               140391    65241    8388
     Max         510     306     79               140404    65254    8400
     Sum       65263   39121   9985             17971031  8351671 1074593

     Using Slab Decomposition



     bravais-lattice index     =            0
     lattice parameter (alat)  =      39.7293  a.u.
     unit-cell volume          =   72410.5124 (a.u.)^3
     number of atoms/cell      =           72
     number of atomic types    =            3
     number of electrons       =       630.00 (up: 342.00, down: 288.00)
     number of Kohn-Sham states=          342
     kinetic-energy cutoff     =      90.0000  Ry
     charge density cutoff     =     600.0000  Ry
     scf convergence threshold =      1.0E-10
     mixing beta               =       0.3000
     number of iterations used =            8  plain     mixing
     Exchange-correlation= PBE
                           (   1   4   3   4   0   0   0)
     Hubbard projectors: ortho-atomic
     Hubbard parameters of DFT+U (Dudarev formulation) in eV:
     U(Cr1-3d) =  0.0000
     J0(Cr1-3d) =  0.0000
     beta(Cr1-3d) = -0.2000

     Internal variables: lda_plus_u =T, lda_plus_u_kind = 0

     celldm(1)=  39.729285  celldm(2)=   0.000000  celldm(3)=   0.000000
     celldm(4)=   0.000000  celldm(5)=   0.000000  celldm(6)=   0.000000

     crystal axes: (cart. coord. in units of alat)
               a(1) = (   1.000000   0.000000   0.000000 )  
               a(2) = (  -0.500000   0.866025   0.000000 )  
               a(3) = (   0.000000   0.000000   1.333333 )  

     reciprocal axes: (cart. coord. in units 2 pi/alat)
               b(1) = (  1.000000  0.577350 -0.000000 )  
               b(2) = (  0.000000  1.154701  0.000000 )  
               b(3) = (  0.000000 -0.000000  0.750000 )  


     PseudoPot. # 1 for Cr read from file:
     ./Cr.GGA-PBE-paw.UPF
     MD5 check sum: 389087661106aa6caf57455f2e439c97
     Pseudo is Projector augmented-wave + core cor, Zval = 14.0
     Generated using ATOMPAW code
     Shape of augmentation charge: SINC**2
     Using radial grid of 2342 points,  6 beta functions with: 
                l(1) =   0
                l(2) =   0
                l(3) =   1
                l(4) =   1
                l(5) =   2
                l(6) =   2
     Q(r) pseudized with 0 coefficients 


     PseudoPot. # 2 for I  read from file:
     ./I.GGA-PBE-paw.UPF
     MD5 check sum: 736bb4145856fa7ed29d0984862794a4
     Pseudo is Projector augmented-wave + core cor, Zval =  7.0
     Generated using ATOMPAW code
     Shape of augmentation charge: SINC**2
     Using radial grid of 2342 points,  4 beta functions with: 
                l(1) =   0
                l(2) =   0
                l(3) =   1
                l(4) =   1
     Q(r) pseudized with 0 coefficients 


     PseudoPot. # 3 for Cr read from file:
     ./Cr.GGA-PBE-paw.UPF
     MD5 check sum: 389087661106aa6caf57455f2e439c97
     Pseudo is Projector augmented-wave + core cor, Zval = 14.0
     Generated using ATOMPAW code
     Shape of augmentation charge: SINC**2
     Using radial grid of 2342 points,  6 beta functions with: 
                l(1) =   0
                l(2) =   0
                l(3) =   1
                l(4) =   1
                l(5) =   2
                l(6) =   2
     Q(r) pseudized with 0 coefficients 


     atomic species   valence    mass     pseudopotential
     Cr1              14.00    51.99610     Cr( 1.00)
     I                 7.00   126.90447     I ( 1.00)
     Cr               14.00    51.99610     Cr( 1.00)

     Starting magnetic structure 
     atomic species   magnetization
     Cr1             0.214
     I               0.000
     Cr              0.214

     No symmetry found



   Cartesian axes

     site n.     atom                  positions (alat units)
         1        Cr1    tau(   1) = (   0.3271041   0.3777073   0.4295967  )
         2        Cr     tau(   2) = (   0.1635521   0.0944268   0.4295967  )
         3        Cr     tau(   3) = (   0.0000000   0.1888536   0.4295967  )
         4        I      tau(   4) = (   0.2103614  -0.0000006   0.3558127  )
         5        I      tau(   5) = (   0.0583708   0.1011024   0.3558127  )
         6        I      tau(   6) = (  -0.1051802   0.1821787   0.3558127  )
         7        I      tau(   7) = (   0.1167427  -0.0000005   0.5033806  )
         8        I      tau(   8) = (   0.1051802   0.1821786   0.5033806  )
         9        I      tau(   9) = (  -0.0583709   0.1011024   0.5033806  )
        10        Cr     tau(  10) = (  -0.0000000   0.3777073   0.4295967  )
        11        Cr     tau(  11) = (  -0.1635521   0.4721341   0.4295967  )
        12        I      tau(  12) = (   0.0468094   0.2832798   0.3558127  )
        13        I      tau(  13) = (  -0.1051813   0.3843829   0.3558127  )
        14        I      tau(  14) = (  -0.2687322   0.4654591   0.3558127  )
        15        I      tau(  15) = (  -0.0468094   0.2832799   0.5033806  )
        16        I      tau(  16) = (  -0.0583718   0.4654591   0.5033806  )
        17        I      tau(  17) = (  -0.2219229   0.3843829   0.5033806  )
        18        Cr     tau(  18) = (  -0.1635521   0.6609878   0.4295967  )
        19        Cr     tau(  19) = (  -0.3271041   0.7554146   0.4295967  )
        20        I      tau(  20) = (  -0.1167427   0.5665603   0.3558127  )
        21        I      tau(  21) = (  -0.2687333   0.6676634   0.3558127  )
        22        I      tau(  22) = (  -0.4322843   0.7487396   0.3558127  )
        23        I      tau(  23) = (  -0.2103614   0.5665604   0.5033806  )
        24        I      tau(  24) = (  -0.2219239   0.7487396   0.5033806  )
        25        I      tau(  25) = (  -0.3854750   0.6676633   0.5033806  )
        26        Cr     tau(  26) = (   0.4906562   0.0944268   0.4295967  )
        27        Cr     tau(  27) = (   0.3271041   0.1888536   0.4295967  )
        28        I      tau(  28) = (   0.5374655  -0.0000006   0.3558127  )
        29        I      tau(  29) = (   0.3854749   0.1011024   0.3558127  )
        30        I      tau(  30) = (   0.2219239   0.1821787   0.3558127  )
        31        I      tau(  31) = (   0.4438468  -0.0000005   0.5033806  )
        32        I      tau(  32) = (   0.4322844   0.1821786   0.5033806  )
        33        I      tau(  33) = (   0.2687332   0.1011024   0.5033806  )
        34        Cr     tau(  34) = (   0.1635521   0.4721341   0.4295967  )
        35        I      tau(  35) = (   0.3739135   0.2832798   0.3558127  )
        36        I      tau(  36) = (   0.2219229   0.3843829   0.3558127  )
        37        I      tau(  37) = (   0.0583719   0.4654591   0.3558127  )
        38        I      tau(  38) = (   0.2802947   0.2832799   0.5033806  )
        39        I      tau(  39) = (   0.2687323   0.4654591   0.5033806  )
        40        I      tau(  40) = (   0.1051812   0.3843829   0.5033806  )
        41        Cr     tau(  41) = (   0.1635521   0.6609878   0.4295967  )
        42        Cr     tau(  42) = (   0.0000000   0.7554146   0.4295967  )
        43        I      tau(  43) = (   0.2103614   0.5665603   0.3558127  )
        44        I      tau(  44) = (   0.0583708   0.6676634   0.3558127  )
        45        I      tau(  45) = (  -0.1051802   0.7487396   0.3558127  )
        46        I      tau(  46) = (   0.1167427   0.5665604   0.5033806  )
        47        I      tau(  47) = (   0.1051802   0.7487396   0.5033806  )
        48        I      tau(  48) = (  -0.0583709   0.6676633   0.5033806  )
        49        Cr     tau(  49) = (   0.8177603   0.0944268   0.4295967  )
        50        Cr     tau(  50) = (   0.6542082   0.1888536   0.4295967  )
        51        I      tau(  51) = (   0.8645697  -0.0000006   0.3558127  )
        52        I      tau(  52) = (   0.7125790   0.1011024   0.3558127  )
        53        I      tau(  53) = (   0.5490281   0.1821787   0.3558127  )
        54        I      tau(  54) = (   0.7709509  -0.0000005   0.5033806  )
        55        I      tau(  55) = (   0.7593885   0.1821786   0.5033806  )
        56        I      tau(  56) = (   0.5958374   0.1011024   0.5033806  )
        57        Cr     tau(  57) = (   0.6542082   0.3777073   0.4295967  )
        58        Cr     tau(  58) = (   0.4906562   0.4721341   0.4295967  )
        59        I      tau(  59) = (   0.7010176   0.2832798   0.3558127  )
        60        I      tau(  60) = (   0.5490270   0.3843829   0.3558127  )
        61        I      tau(  61) = (   0.3854760   0.4654591   0.3558127  )
        62        I      tau(  62) = (   0.6073989   0.2832799   0.5033806  )
        63        I      tau(  63) = (   0.5958364   0.4654591   0.5033806  )
        64        I      tau(  64) = (   0.4322853   0.3843829   0.5033806  )
        65        Cr     tau(  65) = (   0.4906562   0.6609878   0.4295967  )
        66        Cr     tau(  66) = (   0.3271041   0.7554146   0.4295967  )
        67        I      tau(  67) = (   0.5374655   0.5665603   0.3558127  )
        68        I      tau(  68) = (   0.3854749   0.6676634   0.3558127  )
        69        I      tau(  69) = (   0.2219239   0.7487396   0.3558127  )
        70        I      tau(  70) = (   0.4438468   0.5665604   0.5033806  )
        71        I      tau(  71) = (   0.4322844   0.7487396   0.5033806  )
        72        I      tau(  72) = (   0.2687332   0.6676633   0.5033806  )

     number of k points=     4
                       cart. coord. in units 2pi/alat
        k(    1) = (   0.0000000   0.0000000   0.0000000), wk =   0.2500000
        k(    2) = (   0.0000000  -0.5773503   0.0000000), wk =   0.2500000
        k(    3) = (   0.5000000  -0.2886751   0.0000000), wk =   0.2500000
        k(    4) = (  -0.5000000  -0.2886751   0.0000000), wk =   0.2500000

     Dense  grid: 17971031 G-vectors     FFT dimensions: ( 320, 320, 432)

     Smooth grid:  8351671 G-vectors     FFT dimensions: ( 240, 240, 320)

     Estimated max dynamical RAM per process >       1.67 GB

     Estimated total dynamical RAM >     213.14 GB
     Generating pointlists ...
     new r_m :   0.0531 (alat units)  2.1084 (a.u.) for type    1
     new r_m :   0.0531 (alat units)  2.1084 (a.u.) for type    2
     new r_m :   0.0531 (alat units)  2.1084 (a.u.) for type    3

     The initial density is read from file :
     ./Cr_0_-0.2/Cr_0_0.save/charge-density


     negative rho (up, down):  1.304E-01 1.474E-01

     STARTING HUBBARD OCCUPATIONS:

     =================== HUBBARD OCCUPATIONS ===================
     ------------------------ ATOM    1 ------------------------
     Tr[ns(  1)] (up, down, total) =   3.59974  0.76815  4.36789
     Atomic magnetic moment for atom   1 =   2.83159
     SPIN  1
     eigenvalues:
       0.445  0.446  0.901  0.901  0.907
     eigenvectors (columns):
      -0.000  0.000 -0.031 -0.030  0.999
      -0.800  0.188  0.535  0.197  0.022
      -0.188 -0.801  0.197 -0.534 -0.010
       0.556 -0.130  0.770  0.283  0.032
      -0.130 -0.554 -0.284  0.772  0.014
     occupation matrix ns (before diag.):
       0.907  0.000 -0.000  0.000  0.000
       0.000  0.593 -0.000  0.214 -0.000
      -0.000 -0.000  0.594  0.000 -0.213
       0.000  0.214  0.000  0.752  0.000
       0.000 -0.000 -0.213  0.000  0.754
     SPIN  2
     eigenvalues:
       0.078  0.086  0.087  0.258  0.259
     eigenvectors (columns):
      -0.999  0.034 -0.028  0.001 -0.000
      -0.022 -0.542  0.133  0.800 -0.218
       0.011 -0.133 -0.540  0.218  0.802
      -0.033 -0.805  0.197 -0.539  0.146
      -0.016  0.198  0.807  0.146  0.537
     occupation matrix ns (before diag.):
       0.078 -0.000  0.000 -0.000 -0.000
      -0.000  0.204 -0.000 -0.080 -0.000
       0.000 -0.000  0.206 -0.000  0.080
      -0.000 -0.080 -0.000  0.140  0.000
      -0.000 -0.000  0.080  0.000  0.140

     Number of occupied Hubbard levels =    4.3679

     Atomic wfc used for Hubbard projectors are orthogonalized

     Starting wfcs are  756 atomic wfcs
     Checking if some PAW data can be deallocated... 

     total cpu time spent up to now is      128.1 secs

     Self-consistent Calculation

     iteration #  1     ecut=    90.00 Ry     beta= 0.30
     Davidson diagonalization with overlap
     ethr =  1.00E-05,  avg # of iterations =  8.6

     =================== HUBBARD OCCUPATIONS ===================
     ------------------------ ATOM    1 ------------------------
     Tr[ns(  1)] (up, down, total) =   3.64758  0.72398  4.37156
     Atomic magnetic moment for atom   1 =   2.92359
     SPIN  1
     eigenvalues:
       0.466  0.467  0.903  0.903  0.909
     eigenvectors (columns):
      -0.000  0.000 -0.026 -0.025  0.999
      -0.800  0.185  0.534  0.201  0.019
      -0.184 -0.801  0.201 -0.533 -0.008
       0.556 -0.128  0.768  0.289  0.027
      -0.128 -0.555 -0.289  0.769  0.012
     occupation matrix ns (before diag.):
       0.909  0.000 -0.000  0.000  0.000
       0.000  0.608 -0.000  0.205 -0.000
      -0.000 -0.000  0.609  0.000 -0.204
       0.000  0.205  0.000  0.760  0.000
       0.000 -0.000 -0.204  0.000  0.762
     SPIN  2
     eigenvalues:
       0.073  0.079  0.080  0.245  0.246
     eigenvectors (columns):
      -0.999  0.032 -0.026  0.001 -0.000
      -0.020 -0.544  0.131  0.799 -0.218
       0.010 -0.132 -0.542  0.218  0.801
      -0.031 -0.805  0.194 -0.540  0.147
      -0.015  0.195  0.807  0.147  0.538
     occupation matrix ns (before diag.):
       0.073 -0.000  0.000 -0.000 -0.000
      -0.000  0.193 -0.000 -0.077 -0.000
       0.000 -0.000  0.195 -0.000  0.077
      -0.000 -0.077 -0.000  0.131  0.000
      -0.000 -0.000  0.077  0.000  0.132

     Number of occupied Hubbard levels =    4.3716

     Threshold (ethr) on eigenvalues was too large:
     Diagonalizing with lowered threshold

     Davidson diagonalization with overlap
     ethr =  3.15E-08,  avg # of iterations =  4.0

     negative rho (up, down):  1.304E-01 1.475E-01

     total cpu time spent up to now is      641.8 secs

     total energy              =  -24931.22098254 Ry
     estimated scf accuracy    <       0.00019818 Ry

     total magnetization       =    54.00 Bohr mag/cell
     absolute magnetization    =    65.52 Bohr mag/cell

     iteration #  2     ecut=    90.00 Ry     beta= 0.30
     Davidson diagonalization with overlap
     ethr =  3.15E-08,  avg # of iterations =  4.8

     negative rho (up, down):  1.304E-01 1.475E-01

     total cpu time spent up to now is      756.6 secs

     total energy              =  -24931.22101819 Ry
     estimated scf accuracy    <       0.00020089 Ry

     total magnetization       =    54.00 Bohr mag/cell
     absolute magnetization    =    65.52 Bohr mag/cell

     iteration #  3     ecut=    90.00 Ry     beta= 0.30
     Davidson diagonalization with overlap
     ethr =  3.15E-08,  avg # of iterations =  3.6

     negative rho (up, down):  1.303E-01 1.476E-01

     total cpu time spent up to now is      859.5 secs

     total energy              =  -24931.22112679 Ry
     estimated scf accuracy    <       0.00007087 Ry

     total magnetization       =    54.00 Bohr mag/cell
     absolute magnetization    =    65.53 Bohr mag/cell

     iteration #  4     ecut=    90.00 Ry     beta= 0.30
     Davidson diagonalization with overlap
     ethr =  1.12E-08,  avg # of iterations =  5.1

     negative rho (up, down):  1.303E-01 1.476E-01

     total cpu time spent up to now is      977.8 secs

     total energy              =  -24931.22116298 Ry
     estimated scf accuracy    <       0.00002948 Ry

     total magnetization       =    54.00 Bohr mag/cell
     absolute magnetization    =    65.56 Bohr mag/cell

     iteration #  5     ecut=    90.00 Ry     beta= 0.30
     Davidson diagonalization with overlap
     ethr =  4.68E-09,  avg # of iterations =  4.9

     negative rho (up, down):  1.302E-01 1.477E-01

     total cpu time spent up to now is     1098.2 secs

     total energy              =  -24931.22117598 Ry
     estimated scf accuracy    <       0.00000453 Ry

     total magnetization       =    54.00 Bohr mag/cell
     absolute magnetization    =    65.58 Bohr mag/cell

     iteration #  6     ecut=    90.00 Ry     beta= 0.30
     Davidson diagonalization with overlap
     ethr =  7.18E-10,  avg # of iterations =  4.1

     negative rho (up, down):  1.302E-01 1.477E-01

     total cpu time spent up to now is     1216.3 secs

     total energy              =  -24931.22117726 Ry
     estimated scf accuracy    <       0.00000086 Ry

     total magnetization       =    54.00 Bohr mag/cell
     absolute magnetization    =    65.58 Bohr mag/cell

     iteration #  7     ecut=    90.00 Ry     beta= 0.30
     Davidson diagonalization with overlap
     ethr =  1.36E-10,  avg # of iterations =  5.5

     negative rho (up, down):  1.302E-01 1.477E-01

     total cpu time spent up to now is     1342.2 secs

     total energy              =  -24931.22117761 Ry
     estimated scf accuracy    <       0.00000018 Ry

     total magnetization       =    54.00 Bohr mag/cell
     absolute magnetization    =    65.58 Bohr mag/cell

     iteration #  8     ecut=    90.00 Ry     beta= 0.30
     Davidson diagonalization with overlap
     ethr =  2.88E-11,  avg # of iterations =  5.0

     negative rho (up, down):  1.302E-01 1.477E-01

     total cpu time spent up to now is     1471.2 secs

     total energy              =  -24931.22117773 Ry
     estimated scf accuracy    <       0.00000013 Ry

     total magnetization       =    54.00 Bohr mag/cell
     absolute magnetization    =    65.59 Bohr mag/cell

     iteration #  9     ecut=    90.00 Ry     beta= 0.30
     Davidson diagonalization with overlap
     ethr =  2.05E-11,  avg # of iterations =  3.9

     negative rho (up, down):  1.302E-01 1.477E-01

     total cpu time spent up to now is     1589.2 secs

     total energy              =  -24931.22117778 Ry
     estimated scf accuracy    <       0.00000002 Ry

     total magnetization       =    54.00 Bohr mag/cell
     absolute magnetization    =    65.59 Bohr mag/cell

     iteration # 10     ecut=    90.00 Ry     beta= 0.30
     Davidson diagonalization with overlap
     ethr =  3.44E-12,  avg # of iterations =  4.8

     negative rho (up, down):  1.302E-01 1.477E-01

     total cpu time spent up to now is     1726.3 secs

     total energy              =  -24931.22117779 Ry
     estimated scf accuracy    <          9.8E-09 Ry

     total magnetization       =    54.00 Bohr mag/cell
     absolute magnetization    =    65.59 Bohr mag/cell

     iteration # 11     ecut=    90.00 Ry     beta= 0.30
     Davidson diagonalization with overlap
     ethr =  1.55E-12,  avg # of iterations =  3.0

     negative rho (up, down):  1.302E-01 1.477E-01

     total cpu time spent up to now is     1837.0 secs

     total energy              =  -24931.22117780 Ry
     estimated scf accuracy    <          5.0E-09 Ry

     total magnetization       =    54.00 Bohr mag/cell
     absolute magnetization    =    65.59 Bohr mag/cell

     iteration # 12     ecut=    90.00 Ry     beta= 0.30
     Davidson diagonalization with overlap
     ethr =  7.87E-13,  avg # of iterations =  4.0

     negative rho (up, down):  1.302E-01 1.477E-01

     total cpu time spent up to now is     1952.3 secs

     total energy              =  -24931.22117780 Ry
     estimated scf accuracy    <          8.6E-10 Ry

     total magnetization       =    54.00 Bohr mag/cell
     absolute magnetization    =    65.59 Bohr mag/cell

     iteration # 13     ecut=    90.00 Ry     beta= 0.30
     Davidson diagonalization with overlap
     ethr =  1.36E-13,  avg # of iterations =  5.0

     negative rho (up, down):  1.302E-01 1.477E-01

     total cpu time spent up to now is     2103.1 secs

     total energy              =  -24931.22117780 Ry
     estimated scf accuracy    <          4.4E-10 Ry

     total magnetization       =    54.00 Bohr mag/cell
     absolute magnetization    =    65.59 Bohr mag/cell

     iteration # 14     ecut=    90.00 Ry     beta= 0.30
     Davidson diagonalization with overlap
     ethr =  1.00E-13,  avg # of iterations =  2.4

     negative rho (up, down):  1.302E-01 1.477E-01

     total cpu time spent up to now is     2207.2 secs

     total energy              =  -24931.22117780 Ry
     estimated scf accuracy    <          1.1E-10 Ry

     total magnetization       =    54.00 Bohr mag/cell
     absolute magnetization    =    65.59 Bohr mag/cell

     iteration # 15     ecut=    90.00 Ry     beta= 0.30
     Davidson diagonalization with overlap
     ethr =  1.00E-13,  avg # of iterations =  3.1

     negative rho (up, down):  1.302E-01 1.477E-01

     Magnetic moment per site  (integrated on atomic sphere of radius R)
     atom   1 (R=0.053)  charge= 12.4152  magn=  3.0380
     atom   2 (R=0.053)  charge= 12.4086  magn=  2.9134
     atom   3 (R=0.053)  charge= 12.4086  magn=  2.9135
     atom   4 (R=0.053)  charge=  4.0328  magn= -0.0667
     atom   5 (R=0.053)  charge=  4.0497  magn= -0.0522
     atom   6 (R=0.053)  charge=  4.0328  magn= -0.0666
     atom   7 (R=0.053)  charge=  4.0249  magn= -0.0724
     atom   8 (R=0.053)  charge=  4.0501  magn= -0.0560
     atom   9 (R=0.053)  charge=  4.0248  magn= -0.0724
     atom  10 (R=0.053)  charge= 12.4124  magn=  2.9201
     atom  11 (R=0.053)  charge= 12.4091  magn=  2.9162
     atom  12 (R=0.053)  charge=  4.0513  magn= -0.0517
     atom  13 (R=0.053)  charge=  4.0498  magn= -0.0517
     atom  14 (R=0.053)  charge=  4.0336  magn= -0.0638
     atom  15 (R=0.053)  charge=  4.0499  magn= -0.0523
     atom  16 (R=0.053)  charge=  4.0513  magn= -0.0523
     atom  17 (R=0.053)  charge=  4.0253  magn= -0.0710
     atom  18 (R=0.053)  charge= 12.4122  magn=  2.9227
     atom  19 (R=0.053)  charge= 12.3252  magn=  3.0168
     atom  20 (R=0.053)  charge=  4.0507  magn= -0.0525
     atom  21 (R=0.053)  charge=  4.0444  magn= -0.0604
     atom  22 (R=0.053)  charge=  4.0303  magn= -0.0695
     atom  23 (R=0.053)  charge=  4.0499  magn= -0.0520
     atom  24 (R=0.053)  charge=  4.0486  magn= -0.0515
     atom  25 (R=0.053)  charge=  4.0214  magn= -0.0769
     atom  26 (R=0.053)  charge= 12.4090  magn=  2.9160
     atom  27 (R=0.053)  charge= 12.4123  magn=  2.9200
     atom  28 (R=0.053)  charge=  4.0336  magn= -0.0638
     atom  29 (R=0.053)  charge=  4.0497  magn= -0.0526
     atom  30 (R=0.053)  charge=  4.0513  magn= -0.0518
     atom  31 (R=0.053)  charge=  4.0253  magn= -0.0710
     atom  32 (R=0.053)  charge=  4.0513  magn= -0.0525
     atom  33 (R=0.053)  charge=  4.0499  magn= -0.0533
     atom  34 (R=0.053)  charge= 12.4126  magn=  2.9230
     atom  35 (R=0.053)  charge=  4.0524  magn= -0.0611
     atom  36 (R=0.053)  charge=  4.0504  magn= -0.0625
     atom  37 (R=0.053)  charge=  4.0519  magn= -0.0503
     atom  38 (R=0.053)  charge=  4.0510  magn= -0.0625
     atom  39 (R=0.053)  charge=  4.0529  magn= -0.0597
     atom  40 (R=0.053)  charge=  4.0506  magn= -0.0509
     atom  41 (R=0.053)  charge= 12.4124  magn=  2.9256
     atom  42 (R=0.053)  charge= 12.3292  magn=  3.0258
     atom  43 (R=0.053)  charge=  4.0514  magn= -0.0506
     atom  44 (R=0.053)  charge=  4.0448  magn= -0.0597
     atom  45 (R=0.053)  charge=  4.0486  magn= -0.0544
     atom  46 (R=0.053)  charge=  4.0506  magn= -0.0512
     atom  47 (R=0.053)  charge=  4.0495  magn= -0.0482
     atom  48 (R=0.053)  charge=  4.0467  magn= -0.0568
     atom  49 (R=0.053)  charge= 12.3252  magn=  3.0168
     atom  50 (R=0.053)  charge= 12.4122  magn=  2.9226
     atom  51 (R=0.053)  charge=  4.0302  magn= -0.0695
     atom  52 (R=0.053)  charge=  4.0444  magn= -0.0604
     atom  53 (R=0.053)  charge=  4.0507  magn= -0.0526
     atom  54 (R=0.053)  charge=  4.0214  magn= -0.0769
     atom  55 (R=0.053)  charge=  4.0486  magn= -0.0515
     atom  56 (R=0.053)  charge=  4.0499  magn= -0.0520
     atom  57 (R=0.053)  charge= 12.3291  magn=  3.0256
     atom  58 (R=0.053)  charge= 12.4123  magn=  2.9255
     atom  59 (R=0.053)  charge=  4.0486  magn= -0.0544
     atom  60 (R=0.053)  charge=  4.0448  magn= -0.0599
     atom  61 (R=0.053)  charge=  4.0519  magn= -0.0611
     atom  62 (R=0.053)  charge=  4.0466  magn= -0.0569
     atom  63 (R=0.053)  charge=  4.0494  magn= -0.0490
     atom  64 (R=0.053)  charge=  4.0511  magn= -0.0614
     atom  65 (R=0.053)  charge= 12.3290  magn=  3.0296
     atom  66 (R=0.053)  charge= 12.3290  magn=  3.0298
     atom  67 (R=0.053)  charge=  4.0479  magn= -0.0563
     atom  68 (R=0.053)  charge=  4.0397  magn= -0.0676
     atom  69 (R=0.053)  charge=  4.0479  magn= -0.0555
     atom  70 (R=0.053)  charge=  4.0471  magn= -0.0561
     atom  71 (R=0.053)  charge=  4.0465  magn= -0.0471
     atom  72 (R=0.053)  charge=  4.0471  magn= -0.0560

     total cpu time spent up to now is     2300.8 secs

     End of self-consistent calculation

     =================== HUBBARD OCCUPATIONS ===================
     ------------------------ ATOM    1 ------------------------
     Tr[ns(  1)] (up, down, total) =   3.65880  0.70319  4.36200
     Atomic magnetic moment for atom   1 =   2.95561
     SPIN  1
     eigenvalues:
       0.472  0.473  0.902  0.903  0.909
     eigenvectors (columns):
      -0.000  0.000 -0.026 -0.025  0.999
      -0.800  0.183  0.536  0.197  0.019
      -0.183 -0.801  0.197 -0.534 -0.008
       0.557 -0.126  0.770  0.283  0.027
      -0.127 -0.555 -0.283  0.771  0.012
     occupation matrix ns (before diag.):
       0.909  0.000 -0.000  0.000  0.000
       0.000  0.612 -0.000  0.202 -0.000
      -0.000 -0.000  0.613  0.000 -0.201
       0.000  0.202  0.000  0.762  0.000
       0.000 -0.000 -0.201  0.000  0.763
     SPIN  2
     eigenvalues:
       0.071  0.078  0.079  0.237  0.238
     eigenvectors (columns):
      -0.999  0.031 -0.025  0.001 -0.000
      -0.020 -0.544  0.130  0.798 -0.223
       0.010 -0.131 -0.543  0.223  0.799
      -0.030 -0.805  0.193 -0.540  0.150
      -0.014  0.193  0.807  0.150  0.538
     occupation matrix ns (before diag.):
       0.071 -0.000  0.000 -0.000 -0.000
      -0.000  0.187 -0.000 -0.074 -0.000
       0.000 -0.000  0.188 -0.000  0.074
      -0.000 -0.074 -0.000  0.128  0.000
      -0.000 -0.000  0.074  0.000  0.128

     Number of occupied Hubbard levels =    4.3620

 ------ SPIN UP ------------


          k = 0.0000 0.0000 0.0000 (****** PWs)   bands (ev):

   -76.1373 -76.1372 -76.0612 -76.0611 -76.0139 -76.0128 -75.9810 -75.9810
   -75.9399 -75.9339 -75.9304 -75.9303 -75.8519 -75.8511 -75.8510 -75.8507
   -75.7729 -75.7727 -47.4878 -47.4869 -47.4635 -47.4623 -47.4580 -47.4577
   -47.4087 -47.4086 -47.3884 -47.3882 -47.3827 -47.3825 -47.3532 -47.3522
   -47.3468 -47.3457 -47.3406 -47.3396 -47.3275 -47.3275 -47.3062 -47.3062
   -47.3016 -47.3016 -47.2814 -47.2746 -47.2723 -47.2720 -47.2700 -47.2699
   -47.2656 -47.2635 -47.2634 -47.2629 -47.2563 -47.2562 -47.1901 -47.1891
   -47.1891 -47.1887 -47.1842 -47.1838 -47.1827 -47.1818 -47.1808 -47.1799
   -47.1767 -47.1765 -47.1107 -47.1103 -47.1068 -47.1048 -47.0976 -47.0974
   -16.2032 -16.0671 -16.0164 -15.9893 -15.9549 -15.8947 -15.8617 -15.7099
   -15.6635 -15.6333 -15.6066 -15.4950 -15.4789 -15.4538 -15.4237 -15.4086
   -15.3801 -15.3552 -15.3451 -15.3325 -15.3302 -15.3091 -15.2944 -15.2745
   -15.2695 -15.2470 -15.2377 -15.2359 -15.2032 -15.1890 -15.1759 -15.1714
   -15.1649 -15.1536 -15.1268 -15.1216 -15.1127 -15.1058 -15.0985 -15.0831
   -15.0767 -15.0639 -15.0315 -15.0222 -15.0069 -14.9960 -14.9863 -14.9103
   -14.8810 -14.8796 -14.8186 -14.8161 -14.7423 -14.7138  -7.9500  -7.8764
    -7.8383  -7.7915  -7.7827  -7.7429  -7.6959  -7.4081  -7.3818  -7.3764
    -7.3666  -7.3322  -7.2922  -7.2651  -7.2350  -7.2205  -7.1433  -7.1364
    -6.9831  -6.9471  -6.9449  -6.9015  -6.8829  -6.8631  -6.8539  -6.8456
    -6.8167  -6.8124  -6.7750  -6.7503  -6.7303  -6.7275  -6.7095  -6.6937
    -6.6862  -6.6755  -6.6513  -6.6432  -6.6319  -6.6056  -6.5902  -6.5893
    -6.5675  -6.5408  -6.5070  -6.4960  -6.4764  -6.4727  -6.4401  -6.4059
    -6.3985  -6.3809  -6.3478  -6.3422  -6.3375  -6.3070  -6.2847  -6.2772
    -6.2560  -6.2397  -6.1953  -6.1718  -6.1537  -6.1242  -6.1187  -6.0985
    -6.0575  -6.0344  -6.0301  -6.0002  -5.9918  -5.9893  -5.9786  -5.9416
    -5.9315  -5.9222  -5.8904  -5.8867  -5.8617  -5.8446  -5.8070  -5.7750
    -5.6883  -5.6542  -5.6327  -5.6271  -5.5892  -5.5197  -5.5024  -5.4750
    -5.4651  -5.4333  -5.3911  -5.3692  -5.3502  -5.3250  -5.2944  -5.2712
    -5.2576  -5.2434  -5.2146  -5.2009  -5.1772  -5.1758  -5.1521  -5.1427
    -5.1295  -5.1230  -5.0679  -5.0498  -5.0309  -5.0221  -5.0214  -5.0095
    -4.9951  -4.9819  -4.9555  -4.9507  -4.9323  -4.9167  -4.8780  -4.8676
    -4.8578  -4.8421  -4.8197  -4.7886  -4.7843  -4.7666  -4.7400  -4.7276
    -4.7096  -4.6941  -4.6865  -4.6812  -4.6793  -4.6260  -4.6122  -4.5569
    -4.5419  -4.5177  -4.4992  -4.4591  -4.4482  -4.4345  -4.4065  -4.3961
    -4.3790  -4.3712  -4.3578  -4.3544  -4.3477  -4.3308  -4.3174  -4.2916
    -4.2884  -4.2511  -4.2225  -4.2210  -4.2043  -4.1851  -4.1562  -4.1355
    -4.1162  -4.0879  -4.0843  -4.0534  -4.0224  -4.0144  -4.0022  -3.9858
    -3.9576  -3.9529  -3.9362  -3.9280  -3.9247  -3.9196  -3.9056  -3.9035
    -3.8932  -3.8884  -3.8823  -3.8561  -3.8448  -3.8396  -3.8329  -3.8311
    -3.8223  -3.8194  -3.7975  -3.7896  -3.7702  -3.7670  -3.7503  -3.7337
    -3.7278  -3.7060  -3.6995  -3.6858  -3.6379  -3.6339  -3.6175  -3.6037
    -3.5978  -3.5815  -3.5089  -3.4984  -3.4901  -3.4733  -3.4446  -3.4368
    -3.4189  -3.3986  -3.3532  -3.3498  -3.3412  -3.3294

          k = 0.0000-0.5774 0.0000 (****** PWs)   bands (ev):

   -76.1373 -76.1372 -76.0612 -76.0611 -76.0139 -76.0128 -75.9810 -75.9810
   -75.9399 -75.9339 -75.9304 -75.9303 -75.8519 -75.8511 -75.8510 -75.8507
   -75.7729 -75.7727 -47.4878 -47.4869 -47.4635 -47.4623 -47.4580 -47.4577
   -47.4087 -47.4086 -47.3884 -47.3882 -47.3827 -47.3825 -47.3532 -47.3522
   -47.3468 -47.3457 -47.3406 -47.3396 -47.3275 -47.3275 -47.3062 -47.3062
   -47.3016 -47.3016 -47.2814 -47.2746 -47.2723 -47.2720 -47.2700 -47.2699
   -47.2656 -47.2635 -47.2634 -47.2629 -47.2563 -47.2562 -47.1901 -47.1891
   -47.1891 -47.1887 -47.1842 -47.1838 -47.1827 -47.1818 -47.1808 -47.1799
   -47.1767 -47.1765 -47.1107 -47.1103 -47.1068 -47.1048 -47.0976 -47.0974
   -16.1919 -16.0980 -16.0242 -15.9974 -15.9268 -15.8633 -15.8447 -15.7595
   -15.6899 -15.5925 -15.5685 -15.5201 -15.5156 -15.4625 -15.4500 -15.3947
   -15.3748 -15.3603 -15.3504 -15.3213 -15.3118 -15.3088 -15.2925 -15.2749
   -15.2493 -15.2404 -15.2298 -15.2175 -15.2060 -15.1960 -15.1819 -15.1726
   -15.1604 -15.1485 -15.1424 -15.1261 -15.1220 -15.1030 -15.1024 -15.0838
   -15.0757 -15.0629 -15.0338 -15.0285 -15.0042 -14.9961 -14.9873 -14.9090
   -14.8802 -14.8792 -14.8172 -14.8169 -14.7422 -14.7137  -7.9354  -7.8821
    -7.8200  -7.7827  -7.7676  -7.7062  -7.6422  -7.5978  -7.5260  -7.3772
    -7.3413  -7.2866  -7.2742  -7.2607  -7.2146  -7.1998  -7.1366  -7.1308
    -6.9750  -6.9471  -6.9372  -6.9018  -6.8757  -6.8717  -6.8455  -6.8396
    -6.8244  -6.8127  -6.7849  -6.7684  -6.7384  -6.7317  -6.7264  -6.7074
    -6.7010  -6.6781  -6.6544  -6.6466  -6.6306  -6.5984  -6.5656  -6.5520
    -6.5286  -6.5149  -6.4919  -6.4906  -6.4651  -6.4479  -6.4296  -6.4156
    -6.4050  -6.3909  -6.3848  -6.3363  -6.3240  -6.2954  -6.2849  -6.2732
    -6.2508  -6.2253  -6.1918  -6.1872  -6.1611  -6.1253  -6.0899  -6.0776
    -6.0696  -6.0470  -6.0240  -6.0122  -5.9888  -5.9853  -5.9624  -5.9201
    -5.9099  -5.8995  -5.8656  -5.8480  -5.8269  -5.8043  -5.7802  -5.7215
    -5.6509  -5.6272  -5.6074  -5.5972  -5.5832  -5.5575  -5.5373  -5.5270
    -5.5098  -5.4977  -5.4729  -5.4508  -5.4400  -5.4130  -5.3908  -5.3691
    -5.3476  -5.3287  -5.3050  -5.2700  -5.2471  -5.2280  -5.2018  -5.1506
    -5.1403  -5.1238  -5.0956  -5.0751  -5.0539  -5.0256  -5.0084  -4.9739
    -4.9534  -4.9191  -4.9085  -4.8961  -4.8771  -4.8551  -4.8159  -4.8077
    -4.7860  -4.7732  -4.7482  -4.7351  -4.7099  -4.6963  -4.6908  -4.6888
    -4.6700  -4.6474  -4.6204  -4.6079  -4.5979  -4.5702  -4.5562  -4.5511
    -4.5373  -4.5256  -4.5173  -4.4911  -4.4714  -4.4569  -4.4443  -4.4373
    -4.4172  -4.4069  -4.3848  -4.3819  -4.3487  -4.3093  -4.2923  -4.2871
    -4.2613  -4.2576  -4.2275  -4.2061  -4.1942  -4.1852  -4.1759  -4.1697
    -4.1675  -4.1541  -4.1221  -4.1190  -4.0868  -4.0644  -4.0452  -4.0129
    -3.9809  -3.9708  -3.9585  -3.9422  -3.9257  -3.9127  -3.9059  -3.8871
    -3.8839  -3.8716  -3.8585  -3.8560  -3.8507  -3.8475  -3.8365  -3.8285
    -3.8131  -3.7925  -3.7878  -3.7797  -3.7739  -3.7552  -3.7309  -3.7158
    -3.6902  -3.6839  -3.6640  -3.6498  -3.6384  -3.6340  -3.6174  -3.6084
    -3.6003  -3.5806  -3.5728  -3.5366  -3.4818  -3.4679  -3.4262  -3.4232
    -3.4136  -3.3966  -3.3722  -3.3528  -3.3472  -3.3318

          k = 0.5000-0.2887 0.0000 (****** PWs)   bands (ev):

   -76.1373 -76.1372 -76.0612 -76.0611 -76.0139 -76.0128 -75.9810 -75.9810
   -75.9399 -75.9339 -75.9304 -75.9303 -75.8519 -75.8511 -75.8510 -75.8507
   -75.7729 -75.7727 -47.4878 -47.4869 -47.4635 -47.4623 -47.4580 -47.4577
   -47.4087 -47.4086 -47.3884 -47.3882 -47.3827 -47.3825 -47.3532 -47.3522
   -47.3468 -47.3457 -47.3406 -47.3396 -47.3275 -47.3275 -47.3062 -47.3062
   -47.3016 -47.3016 -47.2814 -47.2746 -47.2723 -47.2720 -47.2700 -47.2699
   -47.2656 -47.2635 -47.2634 -47.2629 -47.2563 -47.2562 -47.1901 -47.1891
   -47.1891 -47.1887 -47.1842 -47.1838 -47.1827 -47.1818 -47.1808 -47.1799
   -47.1767 -47.1765 -47.1107 -47.1103 -47.1068 -47.1048 -47.0976 -47.0974
   -16.1854 -16.1182 -16.0215 -15.9704 -15.9334 -15.8674 -15.8507 -15.7683
   -15.6570 -15.6288 -15.5551 -15.5243 -15.5190 -15.4702 -15.4481 -15.3963
   -15.3636 -15.3546 -15.3484 -15.3115 -15.3068 -15.2991 -15.2963 -15.2772
   -15.2500 -15.2480 -15.2269 -15.2202 -15.2174 -15.2024 -15.1952 -15.1643
   -15.1628 -15.1440 -15.1391 -15.1260 -15.1223 -15.1045 -15.1034 -15.0771
   -15.0744 -15.0687 -15.0308 -15.0300 -15.0029 -14.9982 -14.9851 -14.9076
   -14.8805 -14.8799 -14.8186 -14.8157 -14.7424 -14.7136  -7.9292  -7.8948
    -7.7967  -7.7929  -7.7453  -7.7078  -7.6987  -7.5592  -7.5438  -7.3783
    -7.3335  -7.2933  -7.2491  -7.2445  -7.2260  -7.2205  -7.1428  -7.1253
    -6.9722  -6.9457  -6.9420  -6.8990  -6.8821  -6.8740  -6.8528  -6.8372
    -6.8279  -6.8159  -6.8071  -6.7707  -6.7666  -6.7549  -6.7128  -6.7013
    -6.6717  -6.6699  -6.6243  -6.6218  -6.6056  -6.5919  -6.5646  -6.5242
    -6.5221  -6.5143  -6.5073  -6.5045  -6.4755  -6.4559  -6.4365  -6.4095
    -6.3947  -6.3796  -6.3738  -6.3618  -6.3143  -6.3094  -6.2910  -6.2838
    -6.2686  -6.2491  -6.2017  -6.1954  -6.1334  -6.1185  -6.0915  -6.0703
    -6.0540  -6.0383  -6.0244  -6.0094  -5.9970  -5.9710  -5.9497  -5.9193
    -5.9165  -5.9006  -5.8996  -5.8751  -5.8633  -5.8450  -5.7953  -5.6775
    -5.6506  -5.6176  -5.5838  -5.5630  -5.5544  -5.5333  -5.5281  -5.5136
    -5.5112  -5.4928  -5.4831  -5.4667  -5.4518  -5.4372  -5.3962  -5.3825
    -5.3657  -5.3497  -5.3348  -5.2671  -5.2324  -5.2038  -5.1847  -5.1638
    -5.1284  -5.0881  -5.0833  -5.0694  -5.0495  -5.0257  -5.0054  -5.0007
    -4.9460  -4.9398  -4.9157  -4.8796  -4.8767  -4.8414  -4.8158  -4.8026
    -4.7935  -4.7821  -4.7451  -4.7370  -4.7213  -4.7148  -4.6882  -4.6726
    -4.6653  -4.6343  -4.6298  -4.6095  -4.5978  -4.5834  -4.5695  -4.5650
    -4.5508  -4.5128  -4.4787  -4.4727  -4.4619  -4.4599  -4.4519  -4.4353
    -4.4274  -4.4086  -4.4062  -4.3961  -4.3709  -4.2937  -4.2867  -4.2780
    -4.2676  -4.2381  -4.2218  -4.2208  -4.2030  -4.1894  -4.1752  -4.1685
    -4.1566  -4.1438  -4.1292  -4.0959  -4.0830  -4.0793  -4.0345  -4.0107
    -4.0023  -3.9742  -3.9452  -3.9332  -3.9199  -3.9158  -3.9079  -3.8966
    -3.8882  -3.8844  -3.8763  -3.8671  -3.8558  -3.8442  -3.8315  -3.8292
    -3.8072  -3.8002  -3.7915  -3.7760  -3.7676  -3.7404  -3.7294  -3.7142
    -3.6965  -3.6920  -3.6670  -3.6546  -3.6317  -3.6290  -3.6245  -3.6142
    -3.5791  -3.5753  -3.5565  -3.5320  -3.5036  -3.4552  -3.4514  -3.4254
    -3.4217  -3.3884  -3.3618  -3.3593  -3.3388  -3.3262

          k =-0.5000-0.2887 0.0000 (****** PWs)   bands (ev):

   -76.1373 -76.1372 -76.0612 -76.0611 -76.0139 -76.0128 -75.9810 -75.9810
   -75.9399 -75.9339 -75.9304 -75.9303 -75.8519 -75.8511 -75.8510 -75.8507
   -75.7729 -75.7727 -47.4878 -47.4869 -47.4635 -47.4623 -47.4580 -47.4577
   -47.4087 -47.4086 -47.3884 -47.3882 -47.3827 -47.3825 -47.3532 -47.3522
   -47.3468 -47.3457 -47.3406 -47.3396 -47.3275 -47.3275 -47.3062 -47.3062
   -47.3016 -47.3016 -47.2814 -47.2746 -47.2723 -47.2720 -47.2700 -47.2699
   -47.2656 -47.2635 -47.2634 -47.2629 -47.2563 -47.2562 -47.1901 -47.1891
   -47.1891 -47.1887 -47.1842 -47.1838 -47.1827 -47.1818 -47.1808 -47.1799
   -47.1767 -47.1765 -47.1107 -47.1103 -47.1068 -47.1048 -47.0976 -47.0974
   -16.1919 -16.0983 -16.0238 -15.9973 -15.9270 -15.8635 -15.8447 -15.7593
   -15.6899 -15.5923 -15.5685 -15.5194 -15.5159 -15.4634 -15.4500 -15.3948
   -15.3753 -15.3597 -15.3498 -15.3216 -15.3111 -15.3089 -15.2929 -15.2745
   -15.2506 -15.2402 -15.2296 -15.2172 -15.2062 -15.1961 -15.1816 -15.1726
   -15.1604 -15.1482 -15.1425 -15.1262 -15.1222 -15.1029 -15.1024 -15.0839
   -15.0757 -15.0629 -15.0340 -15.0283 -15.0041 -14.9961 -14.9873 -14.9090
   -14.8802 -14.8792 -14.8172 -14.8169 -14.7422 -14.7137  -7.9353  -7.8826
    -7.8191  -7.7831  -7.7676  -7.7057  -7.6434  -7.5972  -7.5260  -7.3772
    -7.3415  -7.2856  -7.2744  -7.2608  -7.2150  -7.2000  -7.1368  -7.1304
    -6.9752  -6.9482  -6.9366  -6.9002  -6.8779  -6.8690  -6.8497  -6.8389
    -6.8240  -6.8100  -6.7863  -6.7673  -6.7391  -6.7302  -6.7275  -6.7074
    -6.7002  -6.6776  -6.6541  -6.6473  -6.6303  -6.6000  -6.5649  -6.5534
    -6.5328  -6.5140  -6.4970  -6.4875  -6.4613  -6.4452  -6.4280  -6.4201
    -6.4035  -6.3920  -6.3821  -6.3354  -6.3242  -6.2959  -6.2818  -6.2718
    -6.2543  -6.2251  -6.1911  -6.1898  -6.1589  -6.1152  -6.0928  -6.0907
    -6.0792  -6.0463  -6.0252  -6.0082  -5.9836  -5.9813  -5.9605  -5.9217
    -5.9098  -5.9007  -5.8656  -5.8464  -5.8278  -5.8024  -5.7780  -5.7244
    -5.6532  -5.6251  -5.6032  -5.6004  -5.5791  -5.5550  -5.5451  -5.5279
    -5.5096  -5.4990  -5.4735  -5.4504  -5.4384  -5.4131  -5.3933  -5.3683
    -5.3481  -5.3257  -5.3051  -5.2665  -5.2470  -5.2325  -5.2013  -5.1516
    -5.1348  -5.1228  -5.0954  -5.0773  -5.0546  -5.0311  -5.0069  -4.9750
    -4.9515  -4.9204  -4.9070  -4.8945  -4.8797  -4.8605  -4.8146  -4.8060
    -4.7933  -4.7685  -4.7470  -4.7370  -4.7112  -4.6969  -4.6939  -4.6761
    -4.6682  -4.6448  -4.6227  -4.6050  -4.5972  -4.5685  -4.5571  -4.5545
    -4.5347  -4.5252  -4.5122  -4.4944  -4.4713  -4.4506  -4.4471  -4.4403
    -4.4278  -4.4120  -4.3878  -4.3776  -4.3506  -4.3092  -4.2931  -4.2754
    -4.2625  -4.2566  -4.2306  -4.2069  -4.1937  -4.1864  -4.1745  -4.1719
    -4.1644  -4.1473  -4.1239  -4.1216  -4.0929  -4.0646  -4.0433  -4.0138
    -3.9843  -3.9753  -3.9529  -3.9324  -3.9312  -3.9153  -3.8992  -3.8902
    -3.8815  -3.8714  -3.8655  -3.8600  -3.8507  -3.8440  -3.8355  -3.8182
    -3.8144  -3.7949  -3.7879  -3.7848  -3.7743  -3.7528  -3.7279  -3.7145
    -3.6944  -3.6859  -3.6641  -3.6458  -3.6416  -3.6350  -3.6182  -3.6070
    -3.5994  -3.5834  -3.5715  -3.5342  -3.4780  -3.4709  -3.4280  -3.4262
    -3.4108  -3.3965  -3.3734  -3.3521  -3.3434  -3.3343

 ------ SPIN DOWN ----------


          k = 0.0000 0.0000 0.0000 (****** PWs)   bands (ev):

   -72.9795 -72.9793 -72.9738 -72.9727 -72.9074 -72.9070 -72.8963 -72.8932
   -72.8931 -72.8346 -72.8346 -72.8191 -72.8188 -72.8174 -72.8161 -72.7801
   -72.7435 -72.7432 -44.3887 -44.3874 -44.3797 -44.3786 -44.3625 -44.3608
   -44.3490 -44.3479 -44.3361 -44.3351 -44.3323 -44.3319 -44.3128 -44.3124
   -44.3014 -44.2985 -44.2985 -44.2845 -44.2842 -44.2696 -44.2695 -44.2677
   -44.2675 -44.2670 -44.2637 -44.2546 -44.2545 -44.2351 -44.2351 -44.2218
   -44.2206 -44.2193 -44.2191 -44.2125 -44.2125 -44.1957 -44.1957 -44.1935
   -44.1933 -44.1888 -44.1884 -44.1871 -44.1847 -44.1840 -44.1839 -44.1832
   -44.1556 -44.1523 -44.1433 -44.1428 -44.1185 -44.1165 -44.1088 -44.1080
   -16.2141 -16.0805 -16.0323 -16.0052 -15.9706 -15.9104 -15.8822 -15.7353
   -15.6907 -15.6634 -15.6396 -15.5376 -15.5161 -15.5045 -15.4634 -15.4513
   -15.4293 -15.4043 -15.3947 -15.3768 -15.3744 -15.3603 -15.3434 -15.3223
   -15.3184 -15.2965 -15.2878 -15.2860 -15.2525 -15.2371 -15.2270 -15.2216
   -15.2139 -15.2030 -15.1752 -15.1747 -15.1638 -15.1511 -15.1456 -15.1335
   -15.1282 -15.1099 -15.0901 -15.0746 -15.0636 -15.0444 -15.0357 -14.9694
   -14.9511 -14.9450 -14.8865 -14.8835 -14.8114 -14.7846  -7.6651  -7.6174
    -7.5765  -7.5331  -7.5258  -7.4868  -7.4407  -7.1622  -7.1322  -7.1311
    -7.1176  -7.0837  -7.0440  -7.0191  -6.9957  -6.9770  -6.9056  -6.9029
    -6.8580  -6.8521  -6.8139  -6.7787  -6.7587  -6.7257  -6.6700  -6.6429
    -6.6294  -6.6085  -6.6005  -6.5553  -6.5459  -6.5443  -6.5273  -6.5245
    -6.4739  -6.4653  -6.4505  -6.4201  -6.4155  -6.4031  -6.3769  -6.3506
    -6.3432  -6.2989  -6.2961  -6.2933  -6.2536  -6.1853  -6.1477  -6.1347
    -6.1301  -6.0558  -6.0439  -6.0236  -5.9998  -5.9938  -5.9451  -5.9364
    -5.9317  -5.9270  -5.8852  -5.8779  -5.8530  -5.8092  -5.7946  -5.6172
    -5.6048  -5.5935  -5.5767  -5.5669  -5.5479  -5.5398  -5.5286  -5.5034
    -5.4943  -5.4862  -5.4838  -5.4534  -5.3990  -5.3976  -5.3849  -5.3623
    -5.3040  -5.2750  -5.2245  -5.2070  -5.1869  -5.1415  -5.1062  -5.1029
    -5.0951  -5.0607  -5.0253  -5.0169  -4.9820  -4.9779  -4.9662  -4.9578
    -4.9444  -4.9222  -4.9098  -4.8769  -4.8600  -4.8471  -4.8206  -4.8186
    -4.8012  -4.7846  -4.7722  -4.7707  -4.7485  -4.7457  -4.7214  -4.7143
    -4.6934  -4.6770  -4.6751  -4.6329  -4.6303  -4.5711  -4.5614  -4.5543
    -4.5500  -4.5451  -4.4747  -4.4567  -4.4479  -4.4459  -4.4075  -4.3773
    -4.3669  -4.3483  -4.3219  -4.3157  -4.3015  -4.2894  -4.2571  -4.2447
    -4.2329  -4.2195  -4.2092  -4.1712  -4.1103  -4.0737  -4.0694  -4.0564
    -4.0550  -3.9981  -3.9969  -3.9817  -3.9806  -3.9680  -3.9192  -3.8960
    -3.8679  -3.8329  -3.8161  -3.7656  -3.7245  -3.6884  -3.6157  -3.5918
    -1.5486  -1.5365  -1.5050  -1.4953  -1.4788  -1.4600  -1.4576  -1.4457
    -1.4122  -1.4050  -1.3900  -1.3819  -1.3748  -1.3595  -1.3397  -1.3274
    -1.3263  -1.3180  -1.3023  -1.2873  -1.2664  -1.2627  -1.2550  -1.2365
    -1.2304  -1.2163  -1.2037  -1.1982  -1.1781  -1.1534  -1.1318  -1.1214
    -1.1121  -1.0990  -1.0894  -1.0866  -1.0638  -1.0571  -1.0517  -1.0492
    -1.0359  -1.0309  -1.0242  -1.0210  -1.0160  -0.9947  -0.9898  -0.9830
    -0.9750  -0.9628  -0.9488  -0.9316  -0.9280  -0.9200

          k = 0.0000-0.5774 0.0000 (****** PWs)   bands (ev):

   -72.9795 -72.9793 -72.9738 -72.9727 -72.9074 -72.9070 -72.8963 -72.8932
   -72.8931 -72.8346 -72.8346 -72.8191 -72.8188 -72.8174 -72.8161 -72.7801
   -72.7435 -72.7432 -44.3887 -44.3874 -44.3797 -44.3786 -44.3625 -44.3608
   -44.3490 -44.3479 -44.3361 -44.3351 -44.3323 -44.3319 -44.3128 -44.3124
   -44.3014 -44.2985 -44.2985 -44.2845 -44.2842 -44.2696 -44.2695 -44.2677
   -44.2675 -44.2670 -44.2637 -44.2546 -44.2545 -44.2351 -44.2351 -44.2218
   -44.2206 -44.2193 -44.2191 -44.2125 -44.2125 -44.1957 -44.1957 -44.1935
   -44.1933 -44.1888 -44.1884 -44.1871 -44.1847 -44.1840 -44.1839 -44.1832
   -44.1556 -44.1523 -44.1433 -44.1428 -44.1185 -44.1165 -44.1088 -44.1080
   -16.2033 -16.1106 -16.0394 -16.0123 -15.9438 -15.8802 -15.8650 -15.7825
   -15.7189 -15.6259 -15.6033 -15.5562 -15.5508 -15.5035 -15.4990 -15.4452
   -15.4215 -15.4052 -15.4004 -15.3686 -15.3593 -15.3579 -15.3422 -15.3235
   -15.2982 -15.2876 -15.2774 -15.2674 -15.2564 -15.2433 -15.2337 -15.2227
   -15.2108 -15.1969 -15.1957 -15.1763 -15.1711 -15.1505 -15.1482 -15.1341
   -15.1265 -15.1083 -15.0921 -15.0840 -15.0598 -15.0459 -15.0345 -14.9686
   -14.9505 -14.9439 -14.8849 -14.8845 -14.8114 -14.7845  -7.6566  -7.6142
    -7.5569  -7.5209  -7.5127  -7.4530  -7.3902  -7.3483  -7.2764  -7.1244
    -7.0927  -7.0405  -7.0270  -7.0179  -6.9712  -6.9652  -6.9045  -6.8961
    -6.8594  -6.8351  -6.8139  -6.7649  -6.7303  -6.7157  -6.6850  -6.6609
    -6.6539  -6.6316  -6.6167  -6.5936  -6.5585  -6.5503  -6.5220  -6.4913
    -6.4885  -6.4668  -6.4556  -6.4287  -6.4256  -6.3860  -6.3348  -6.3204
    -6.3131  -6.2697  -6.2507  -6.2267  -6.1966  -6.1915  -6.1652  -6.1510
    -6.1293  -6.1094  -6.0957  -6.0770  -6.0435  -6.0270  -5.9746  -5.9620
    -5.9407  -5.8975  -5.8519  -5.8012  -5.8003  -5.6630  -5.6517  -5.6285
    -5.6230  -5.6037  -5.5794  -5.5718  -5.5472  -5.5330  -5.5082  -5.4953
    -5.4753  -5.4672  -5.4503  -5.4242  -5.4148  -5.3756  -5.3511  -5.3214
    -5.2992  -5.2826  -5.2452  -5.2379  -5.2172  -5.2115  -5.1880  -5.1684
    -5.1503  -5.1266  -5.1189  -5.0936  -5.0819  -5.0790  -5.0564  -5.0296
    -5.0048  -4.9547  -4.9370  -4.9305  -4.9219  -4.8890  -4.8731  -4.8598
    -4.8413  -4.8238  -4.8151  -4.7914  -4.7024  -4.6866  -4.6728  -4.6702
    -4.6431  -4.6246  -4.5893  -4.5748  -4.5630  -4.5413  -4.4966  -4.4940
    -4.4865  -4.4678  -4.4454  -4.4436  -4.4246  -4.4093  -4.3947  -4.3431
    -4.3240  -4.3055  -4.2968  -4.2840  -4.2643  -4.2506  -4.2347  -4.2132
    -4.1742  -4.1589  -4.1533  -4.1264  -4.1058  -4.0884  -4.0839  -4.0610
    -4.0593  -4.0334  -4.0070  -3.9839  -3.9611  -3.9526  -3.9476  -3.9092
    -3.9014  -3.8663  -3.8339  -3.8102  -3.7745  -3.7680  -3.7066  -3.6398
    -1.5530  -1.5493  -1.5168  -1.5062  -1.4857  -1.4674  -1.4514  -1.4401
    -1.4288  -1.4154  -1.3980  -1.3784  -1.3648  -1.3586  -1.3452  -1.3217
    -1.3164  -1.3053  -1.2841  -1.2731  -1.2601  -1.2508  -1.2312  -1.2189
    -1.2138  -1.2003  -1.1867  -1.1712  -1.1607  -1.1581  -1.1374  -1.1326
    -1.1280  -1.1199  -1.1022  -1.0928  -1.0816  -1.0750  -1.0698  -1.0646
    -1.0466  -1.0351  -1.0309  -1.0262  -1.0128  -0.9996  -0.9949  -0.9921
    -0.9820  -0.9668  -0.9437  -0.9248  -0.9212  -0.9039

          k = 0.5000-0.2887 0.0000 (****** PWs)   bands (ev):

   -72.9795 -72.9793 -72.9738 -72.9727 -72.9074 -72.9070 -72.8963 -72.8932
   -72.8931 -72.8346 -72.8346 -72.8191 -72.8188 -72.8174 -72.8161 -72.7801
   -72.7435 -72.7432 -44.3887 -44.3874 -44.3797 -44.3786 -44.3625 -44.3608
   -44.3490 -44.3479 -44.3361 -44.3351 -44.3323 -44.3319 -44.3128 -44.3124
   -44.3014 -44.2985 -44.2985 -44.2845 -44.2842 -44.2696 -44.2695 -44.2677
   -44.2675 -44.2670 -44.2637 -44.2546 -44.2545 -44.2351 -44.2351 -44.2218
   -44.2206 -44.2193 -44.2191 -44.2125 -44.2125 -44.1957 -44.1957 -44.1935
   -44.1933 -44.1888 -44.1884 -44.1871 -44.1847 -44.1840 -44.1839 -44.1832
   -44.1556 -44.1523 -44.1433 -44.1428 -44.1185 -44.1165 -44.1088 -44.1080
   -16.1972 -16.1299 -16.0371 -15.9858 -15.9496 -15.8873 -15.8669 -15.7924
   -15.6908 -15.6602 -15.5873 -15.5619 -15.5517 -15.5075 -15.4994 -15.4469
   -15.4137 -15.3999 -15.3985 -15.3581 -15.3559 -15.3482 -15.3447 -15.3253
   -15.3005 -15.2943 -15.2752 -15.2698 -15.2685 -15.2504 -15.2460 -15.2162
   -15.2144 -15.1913 -15.1860 -15.1766 -15.1722 -15.1517 -15.1515 -15.1265
   -15.1231 -15.1156 -15.0893 -15.0853 -15.0600 -15.0472 -15.0321 -14.9678
   -14.9512 -14.9440 -14.8866 -14.8830 -14.8115 -14.7844  -7.6521  -7.6218
    -7.5388  -7.5355  -7.4845  -7.4548  -7.4448  -7.3115  -7.2944  -7.1258
    -7.0835  -7.0479  -7.0067  -7.0050  -6.9820  -6.9723  -6.9075  -6.8934
    -6.8497  -6.8389  -6.8231  -6.7552  -6.7266  -6.7102  -6.7031  -6.6854
    -6.6564  -6.6475  -6.6346  -6.5755  -6.5735  -6.5619  -6.5353  -6.4931
    -6.4618  -6.4429  -6.4166  -6.4093  -6.3864  -6.3695  -6.3545  -6.3257
    -6.2971  -6.2924  -6.2739  -6.2283  -6.2243  -6.1901  -6.1591  -6.1492
    -6.1413  -6.1173  -6.0828  -6.0584  -5.9952  -5.9890  -5.9862  -5.9716
    -5.9493  -5.9334  -5.9200  -5.8048  -5.7689  -5.6940  -5.6672  -5.6539
    -5.6250  -5.5900  -5.5609  -5.5590  -5.5464  -5.5234  -5.5030  -5.4853
    -5.4790  -5.4703  -5.4655  -5.4371  -5.4083  -5.4048  -5.3693  -5.2970
    -5.2886  -5.2627  -5.2472  -5.2228  -5.2182  -5.1958  -5.1815  -5.1765
    -5.1555  -5.1421  -5.1272  -5.0988  -5.0724  -5.0685  -5.0349  -5.0232
    -5.0051  -4.9648  -4.9561  -4.9341  -4.9162  -4.9099  -4.8600  -4.8466
    -4.8333  -4.8194  -4.8184  -4.7017  -4.7004  -4.6968  -4.6754  -4.6609
    -4.6517  -4.6383  -4.6215  -4.6065  -4.5627  -4.5386  -4.5186  -4.5184
    -4.4987  -4.4527  -4.4302  -4.4251  -4.4028  -4.3894  -4.3740  -4.3473
    -4.3333  -4.3196  -4.2883  -4.2833  -4.2716  -4.2421  -4.2399  -4.2336
    -4.2116  -4.1887  -4.1569  -4.1193  -4.0964  -4.0837  -4.0736  -4.0453
    -4.0362  -4.0347  -4.0236  -3.9889  -3.9599  -3.9533  -3.9480  -3.9262
    -3.9077  -3.8400  -3.8395  -3.8281  -3.8161  -3.6950  -3.6886  -3.6642
    -1.5641  -1.5493  -1.5089  -1.5079  -1.4906  -1.4706  -1.4650  -1.4326
    -1.4194  -1.4108  -1.3996  -1.3897  -1.3606  -1.3518  -1.3426  -1.3273
    -1.2963  -1.2905  -1.2766  -1.2689  -1.2554  -1.2441  -1.2404  -1.2292
    -1.2201  -1.2053  -1.1904  -1.1721  -1.1628  -1.1523  -1.1509  -1.1289
    -1.1209  -1.1083  -1.1050  -1.1008  -1.0923  -1.0849  -1.0789  -1.0627
    -1.0576  -1.0375  -1.0257  -1.0251  -1.0177  -1.0037  -1.0009  -0.9801
    -0.9699  -0.9681  -0.9447  -0.9300  -0.9132  -0.9100

          k =-0.5000-0.2887 0.0000 (****** PWs)   bands (ev):

   -72.9795 -72.9793 -72.9738 -72.9727 -72.9074 -72.9070 -72.8963 -72.8932
   -72.8931 -72.8346 -72.8346 -72.8191 -72.8188 -72.8174 -72.8161 -72.7801
   -72.7435 -72.7432 -44.3887 -44.3874 -44.3797 -44.3786 -44.3625 -44.3608
   -44.3490 -44.3479 -44.3361 -44.3351 -44.3323 -44.3319 -44.3128 -44.3124
   -44.3014 -44.2985 -44.2985 -44.2845 -44.2842 -44.2696 -44.2695 -44.2677
   -44.2675 -44.2670 -44.2637 -44.2546 -44.2545 -44.2351 -44.2351 -44.2218
   -44.2206 -44.2193 -44.2191 -44.2125 -44.2125 -44.1957 -44.1957 -44.1935
   -44.1933 -44.1888 -44.1884 -44.1871 -44.1847 -44.1840 -44.1839 -44.1832
   -44.1556 -44.1523 -44.1433 -44.1428 -44.1185 -44.1165 -44.1088 -44.1080
   -16.2033 -16.1103 -16.0399 -16.0123 -15.9434 -15.8800 -15.8651 -15.7828
   -15.7190 -15.6257 -15.6033 -15.5569 -15.5508 -15.5033 -15.4984 -15.4455
   -15.4207 -15.4058 -15.4010 -15.3680 -15.3599 -15.3579 -15.3420 -15.3240
   -15.2968 -15.2882 -15.2774 -15.2672 -15.2565 -15.2436 -15.2337 -15.2227
   -15.2111 -15.1969 -15.1954 -15.1763 -15.1711 -15.1505 -15.1483 -15.1340
   -15.1264 -15.1085 -15.0920 -15.0842 -15.0597 -15.0459 -15.0345 -14.9686
   -14.9505 -14.9440 -14.8849 -14.8845 -14.8114 -14.7845  -7.6566  -7.6138
    -7.5578  -7.5205  -7.5128  -7.4529  -7.3897  -7.3485  -7.2766  -7.1247
    -7.0926  -7.0404  -7.0269  -7.0179  -6.9715  -6.9649  -6.9043  -6.8963
    -6.8594  -6.8352  -6.8137  -6.7655  -6.7293  -6.7149  -6.6860  -6.6598
    -6.6538  -6.6335  -6.6161  -6.5938  -6.5589  -6.5501  -6.5223  -6.4910
    -6.4896  -6.4677  -6.4553  -6.4284  -6.4238  -6.3859  -6.3348  -6.3213
    -6.3122  -6.2691  -6.2497  -6.2280  -6.1968  -6.1908  -6.1651  -6.1509
    -6.1301  -6.1101  -6.0955  -6.0789  -6.0433  -6.0243  -5.9745  -5.9620
    -5.9419  -5.8977  -5.8526  -5.8017  -5.7996  -5.6615  -5.6524  -5.6307
    -5.6239  -5.5985  -5.5746  -5.5685  -5.5474  -5.5336  -5.5139  -5.5010
    -5.4789  -5.4665  -5.4443  -5.4241  -5.4163  -5.3757  -5.3521  -5.3213
    -5.2997  -5.2801  -5.2440  -5.2366  -5.2206  -5.2106  -5.1887  -5.1675
    -5.1530  -5.1271  -5.1179  -5.0939  -5.0812  -5.0777  -5.0559  -5.0301
    -5.0071  -4.9540  -4.9362  -4.9298  -4.9223  -4.8895  -4.8737  -4.8606
    -4.8418  -4.8216  -4.8134  -4.7909  -4.7030  -4.6880  -4.6727  -4.6715
    -4.6431  -4.6244  -4.5898  -4.5755  -4.5629  -4.5416  -4.4949  -4.4935
    -4.4861  -4.4690  -4.4447  -4.4436  -4.4237  -4.4090  -4.3937  -4.3439
    -4.3243  -4.3059  -4.2970  -4.2830  -4.2647  -4.2505  -4.2349  -4.2138
    -4.1747  -4.1589  -4.1528  -4.1263  -4.1061  -4.0883  -4.0836  -4.0612
    -4.0594  -4.0337  -4.0071  -3.9840  -3.9611  -3.9523  -3.9472  -3.9090
    -3.9024  -3.8663  -3.8335  -3.8106  -3.7744  -3.7672  -3.7071  -3.6396
    -1.5545  -1.5474  -1.5146  -1.5037  -1.4816  -1.4673  -1.4626  -1.4505
    -1.4232  -1.4198  -1.3948  -1.3781  -1.3670  -1.3522  -1.3418  -1.3245
    -1.3134  -1.2971  -1.2805  -1.2761  -1.2513  -1.2492  -1.2439  -1.2264
    -1.2167  -1.1947  -1.1809  -1.1737  -1.1671  -1.1483  -1.1431  -1.1362
    -1.1299  -1.1207  -1.1019  -1.0929  -1.0806  -1.0797  -1.0722  -1.0633
    -1.0470  -1.0346  -1.0263  -1.0225  -1.0141  -1.0050  -0.9978  -0.9903
    -0.9764  -0.9569  -0.9395  -0.9331  -0.9207  -0.9033

     highest occupied, lowest unoccupied level (ev):    -3.3262   -1.5641

!    total energy              =  -24931.22117780 Ry
     total all-electron energy =    -24931.221178 Ry
     estimated scf accuracy    <          3.4E-11 Ry

     The total energy is the sum of the following terms:
     one-electron contribution =  -25177.32401140 Ry
     hartree contribution      =   12523.83231848 Ry
     xc contribution           =    -743.79970045 Ry
     ewald contribution        =    8913.20911809 Ry
     Hubbard energy            =      -0.04344669 Ry
     one-center paw contrib.   =  -20447.09545582 Ry

     total magnetization       =    54.00 Bohr mag/cell
     absolute magnetization    =    65.59 Bohr mag/cell

     convergence has been achieved in  15 iterations

     negative rho (up, down):  1.302E-01 1.477E-01

     Forces acting on atoms (cartesian axes, Ry/au):

     atom    1 type  1   force =    -0.00107649   -0.00187532    0.00011684
     atom    2 type  3   force =    -0.00243750   -0.00774664    0.00226544
     atom    3 type  3   force =    -0.00549459   -0.00601124    0.00226510
     atom    4 type  2   force =     0.00486704   -0.02270751   -0.00065743
     atom    5 type  2   force =    -0.00320216   -0.00555872   -0.00949101
     atom    6 type  2   force =    -0.02210303   -0.00713932   -0.00065665
     atom    7 type  2   force =     0.00731020   -0.02442837   -0.00194373
     atom    8 type  2   force =     0.00248544    0.00426979    0.00887985
     atom    9 type  2   force =    -0.02481484   -0.00588198   -0.00194449
     atom   10 type  3   force =    -0.00173329   -0.00209137    0.00023043
     atom   11 type  3   force =    -0.00562064   -0.00546456    0.00214672
     atom   12 type  2   force =     0.00494899    0.00063664   -0.00969999
     atom   13 type  2   force =    -0.00290247   -0.00482845   -0.00926425
     atom   14 type  2   force =    -0.02181916   -0.00648332   -0.00077983
     atom   15 type  2   force =    -0.00560810    0.00087756    0.00924488
     atom   16 type  2   force =     0.00235160    0.00468927    0.00945588
     atom   17 type  2   force =    -0.02497610   -0.00541916   -0.00196047
     atom   18 type  3   force =    -0.00134444   -0.00139078   -0.00052499
     atom   19 type  3   force =    -0.01444236    0.02876769    0.00308792
     atom   20 type  2   force =     0.00466506    0.00073064   -0.00975829
     atom   21 type  2   force =    -0.00418136    0.00236491   -0.00760121
     atom   22 type  2   force =    -0.01977187   -0.00451691    0.00137900
     atom   23 type  2   force =    -0.00560572    0.00077230    0.00953195
     atom   24 type  2   force =    -0.00279638    0.01174625    0.00748501
     atom   25 type  2   force =    -0.02316296    0.00012307   -0.00335755
     atom   26 type  3   force =    -0.00194162   -0.00757194    0.00214654
     atom   27 type  3   force =    -0.00092841   -0.00246415    0.00022545
     atom   28 type  2   force =     0.00529879   -0.02213523   -0.00078121
     atom   29 type  2   force =    -0.00271620   -0.00490742   -0.00924970
     atom   30 type  2   force =    -0.00198286    0.00448632   -0.00970952
     atom   31 type  2   force =     0.00780061   -0.02433679   -0.00195925
     atom   32 type  2   force =     0.00293509    0.00428010    0.00945808
     atom   33 type  2   force =     0.00354487   -0.00440052    0.00923368
     atom   34 type  3   force =    -0.00106052   -0.00200317    0.00012997
     atom   35 type  2   force =     0.00618020   -0.00038658   -0.01088148
     atom   36 type  2   force =    -0.00418362   -0.00419420   -0.01020092
     atom   37 type  2   force =    -0.00171084    0.00530728   -0.00985319
     atom   38 type  2   force =    -0.00584349   -0.00059200    0.01030015
     atom   39 type  2   force =     0.00181524    0.00620765    0.01100677
     atom   40 type  2   force =     0.00329189   -0.00394045    0.00928613
     atom   41 type  3   force =    -0.00066482   -0.00124204   -0.00064117
     atom   42 type  3   force =    -0.00990683    0.03240300    0.00109841
     atom   43 type  2   force =     0.00510552    0.00132101   -0.00990485
     atom   44 type  2   force =    -0.00376714    0.00281515   -0.00757517
     atom   45 type  2   force =    -0.00022129    0.00755271   -0.00794304
     atom   46 type  2   force =    -0.00511464    0.00081557    0.00955209
     atom   47 type  2   force =    -0.00238326    0.01193154    0.00802095
     atom   48 type  2   force =     0.00497993    0.00145660    0.00795490
     atom   49 type  3   force =     0.03213039    0.00187438    0.00308779
     atom   50 type  3   force =    -0.00054245   -0.00185438   -0.00052467
     atom   51 type  2   force =     0.00597187   -0.01937457    0.00138044
     atom   52 type  2   force =     0.00414821   -0.00244214   -0.00759943
     atom   53 type  2   force =    -0.00171748    0.00439800   -0.00974852
     atom   54 type  2   force =     0.01168707   -0.01999402   -0.00335933
     atom   55 type  2   force =     0.01157720    0.00344511    0.00748364
     atom   56 type  2   force =     0.00346241   -0.00447160    0.00953020
     atom   57 type  3   force =     0.03298255    0.00762362    0.00109539
     atom   58 type  3   force =    -0.00077900   -0.00122861   -0.00064075
     atom   59 type  2   force =     0.00664879    0.00359575   -0.00794075
     atom   60 type  2   force =     0.00443337   -0.00184694   -0.00757339
     atom   61 type  2   force =    -0.00057033    0.00644660   -0.01091727
     atom   62 type  2   force =    -0.00123134    0.00505998    0.00794624
     atom   63 type  2   force =     0.01151731    0.00387738    0.00800694
     atom   64 type  2   force =     0.00492607   -0.00390144    0.01057434
     atom   65 type  3   force =     0.03344535    0.00834720    0.00039262
     atom   66 type  3   force =    -0.00947785    0.03315430    0.00038941
     atom   67 type  2   force =     0.00633928    0.00365109   -0.00797855
     atom   68 type  2   force =     0.00305383    0.00526211   -0.00612115
     atom   69 type  2   force =    -0.00002252    0.00732599   -0.00799194
     atom   70 type  2   force =    -0.00124474    0.00487059    0.00826182
     atom   71 type  2   force =     0.00641468    0.01110132    0.00582858
     atom   72 type  2   force =     0.00478583    0.00124333    0.00825557

     Total force =     0.138034     Total SCF correction =     0.000008


     Computing stress (Cartesian axis) and pressure


     negative rho (up, down):  1.302E-01 1.477E-01
          total   stress  (Ry/bohr**3)                   (kbar)     P=        1.88
   0.00001268  -0.00000122   0.00000070            1.86       -0.18        0.10
  -0.00000122   0.00001127   0.00000121           -0.18        1.66        0.18
   0.00000070   0.00000121   0.00001442            0.10        0.18        2.12


     Writing all to output data dir ./Cr_0_-0.2/Cr_0_0.save/ :
     XML data file, charge density, pseudopotentials, collected wavefunctions

     init_run     :    209.50s CPU    127.35s WALL (       1 calls)
     electrons    :   4019.65s CPU   2173.74s WALL (       1 calls)
     forces       :   2454.73s CPU   1647.62s WALL (       1 calls)
     stress       :   6098.19s CPU   5043.69s WALL (       1 calls)

     Called by init_run:
     wfcinit      :    191.50s CPU    109.18s WALL (       1 calls)
     potinit      :      3.59s CPU      3.56s WALL (       1 calls)
     hinit0       :      2.21s CPU      2.22s WALL (       1 calls)

     Called by electrons:
     c_bands      :   3464.19s CPU   1841.21s WALL (      16 calls)
     sum_band     :    493.61s CPU    279.24s WALL (      16 calls)
     v_of_rho     :     19.84s CPU     15.73s WALL (      16 calls)
     newd         :     28.94s CPU     28.18s WALL (      16 calls)
     PAW_pot      :     10.55s CPU      7.46s WALL (      16 calls)
     mix_rho      :      3.17s CPU      2.51s WALL (      16 calls)

     Called by c_bands:
     init_us_2    :     27.35s CPU     14.12s WALL (     304 calls)
     init_us_2:cp :     27.34s CPU     14.12s WALL (     304 calls)
     cegterg      :   3430.97s CPU   1821.06s WALL (     128 calls)

     Called by *egterg:
     cdiaghg      :    340.39s CPU    194.16s WALL (     694 calls)
     h_psi        :   2080.76s CPU   1076.38s WALL (     710 calls)
     s_psi        :    261.92s CPU    132.18s WALL (     750 calls)
     g_psi        :      7.40s CPU      3.77s WALL (     574 calls)

     Called by h_psi:
     h_psi:calbec :    259.69s CPU    135.08s WALL (     710 calls)
     vloc_psi     :   1558.71s CPU    798.75s WALL (     710 calls)
     add_vuspsi   :    222.05s CPU    112.26s WALL (     710 calls)
     vhpsi        :     34.20s CPU     19.31s WALL (     710 calls)

     General routines
     calbec       :   2474.99s CPU   1290.27s WALL (   57140 calls)
     fft          :     20.86s CPU     18.97s WALL (     440 calls)
     ffts         :      2.40s CPU      2.04s WALL (      64 calls)
     fftw         :   1393.56s CPU    718.30s WALL (  305238 calls)
     interpolate  :      2.95s CPU      2.44s WALL (      32 calls)

     Parallel routines

     Hubbard U routines
     new_ns       :      7.46s CPU      5.38s WALL (      16 calls)
     vhpsi        :     34.20s CPU     19.31s WALL (     710 calls)
     force_hub    :   2422.49s CPU   1629.39s WALL (       1 calls)
                                        0.00s GPU  (       1 calls)
     stres_hub    :   5560.35s CPU   4758.80s WALL (       1 calls)
                                        0.00s GPU  (       1 calls)

     PWSCF        :      3h33m CPU      2h30m WALL


   This run was terminated on:   0:55: 9  27Sep2025            

=------------------------------------------------------------------------------=
   JOB DONE.
=------------------------------------------------------------------------------=
[1758930909.455193] [node165:80784:0]          mpool.c:43   UCX  WARN  object 0x6753d80 was not returned to mpool ucp_requests
[1758930909.455212] [node165:80784:0]          mpool.c:43   UCX  WARN  object 0x673f440 was not returned to mpool ucp_requests
[1758930909.455214] [node165:80784:0]          mpool.c:43   UCX  WARN  object 0x6742c40 was not returned to mpool ucp_requests
[1758930909.455215] [node165:80784:0]          mpool.c:43   UCX  WARN  object 0x67444c0 was not returned to mpool ucp_requests
[1758930909.455216] [node165:80784:0]          mpool.c:43   UCX  WARN  object 0x67452c0 was not returned to mpool ucp_requests
[1758930909.455217] [node165:80784:0]          mpool.c:43   UCX  WARN  object 0x6745480 was not returned to mpool ucp_requests
[1758930909.455219] [node165:80784:0]          mpool.c:43   UCX  WARN  object 0x6747b00 was not returned to mpool ucp_requests
[1758930909.455220] [node165:80784:0]          mpool.c:43   UCX  WARN  object 0x3ab8b80 was not returned to mpool ucp_requests
[1758930909.455221] [node165:80784:0]          mpool.c:43   UCX  WARN  object 0x3ab8f00 was not returned to mpool ucp_requests
[1758930909.455222] [node165:80784:0]          mpool.c:43   UCX  WARN  object 0x3abc1c0 was not returned to mpool ucp_requests
[1758930909.455223] [node165:80784:0]          mpool.c:43   UCX  WARN  object 0x3abca80 was not returned to mpool ucp_requests
[1758930909.455224] [node165:80784:0]          mpool.c:43   UCX  WARN  object 0x3abd180 was not returned to mpool ucp_requests
[1758930909.455225] [node165:80784:0]          mpool.c:43   UCX  WARN  object 0x3abddc0 was not returned to mpool ucp_requests
[1758930909.455227] [node165:80784:0]          mpool.c:43   UCX  WARN  object 0x3ac62c0 was not returned to mpool ucp_requests
[1758930909.455228] [node165:80784:0]          mpool.c:43   UCX  WARN  object 0x3ac6480 was not returned to mpool ucp_requests
[1758930909.461087] [node165:80796:0]          mpool.c:43   UCX  WARN  object 0x7520680 was not returned to mpool ucp_requests
[1758930909.461104] [node165:80796:0]          mpool.c:43   UCX  WARN  object 0x7520bc0 was not returned to mpool ucp_requests
[1758930909.461106] [node165:80796:0]          mpool.c:43   UCX  WARN  object 0x7523240 was not returned to mpool ucp_requests
[1758930909.461108] [node165:80796:0]          mpool.c:43   UCX  WARN  object 0x7508540 was not returned to mpool ucp_requests
[1758930909.461109] [node165:80796:0]          mpool.c:43   UCX  WARN  object 0x7509500 was not returned to mpool ucp_requests
[1758930909.461110] [node165:80796:0]          mpool.c:43   UCX  WARN  object 0x7509880 was not returned to mpool ucp_requests
[1758930909.461111] [node165:80796:0]          mpool.c:43   UCX  WARN  object 0x750ee40 was not returned to mpool ucp_requests
[1758930909.461042] [node165:80800:0]          mpool.c:43   UCX  WARN  object 0x75c6380 was not returned to mpool ucp_requests
[1758930909.461060] [node165:80800:0]          mpool.c:43   UCX  WARN  object 0x75ca440 was not returned to mpool ucp_requests
[1758930909.461061] [node165:80800:0]          mpool.c:43   UCX  WARN  object 0x75cb240 was not returned to mpool ucp_requests
[1758930909.461063] [node165:80800:0]          mpool.c:43   UCX  WARN  object 0x75cedc0 was not returned to mpool ucp_requests
[1758930909.461064] [node165:80800:0]          mpool.c:43   UCX  WARN  object 0x75b4400 was not returned to mpool ucp_requests
[1758930909.461065] [node165:80800:0]          mpool.c:43   UCX  WARN  object 0x75bdc40 was not returned to mpool ucp_requests
[1758930909.461066] [node165:80800:0]          mpool.c:43   UCX  WARN  object 0x75c0100 was not returned to mpool ucp_requests
[1758930909.461068] [node165:80800:0]          mpool.c:43   UCX  WARN  object 0x492dd40 was not returned to mpool ucp_requests
[1758930909.461069] [node165:80800:0]          mpool.c:43   UCX  WARN  object 0x4934b80 was not returned to mpool ucp_requests
[1758930909.461070] [node165:80800:0]          mpool.c:43   UCX  WARN  object 0x4935b40 was not returned to mpool ucp_requests
[1758930909.461071] [node165:80800:0]          mpool.c:43   UCX  WARN  object 0x4936b00 was not returned to mpool ucp_requests
[1758930909.461072] [node165:80800:0]          mpool.c:43   UCX  WARN  object 0x4938380 was not returned to mpool ucp_requests
[1758930909.461074] [node165:80800:0]          mpool.c:43   UCX  WARN  object 0x493af40 was not returned to mpool ucp_requests
