
     Program PWSCF v.7.3 starts on 26Sep2025 at 22:33: 0 

     This program is part of the open-source Quantum ESPRESSO suite
     for quantum simulation of materials; please cite
         "P. Giannozzi et al., J. Phys.:Condens. Matter 21 395502 (2009);
         "P. Giannozzi et al., J. Phys.:Condens. Matter 29 465901 (2017);
         "P. Giannozzi et al., J. Chem. Phys. 152 154105 (2020);
          URL http://www.quantum-espresso.org", 
     in publications or presentations arising from this work. More details at
     http://www.quantum-espresso.org/quote

     Parallel version (MPI & OpenMP), running on     256 processor cores
     Number of MPI processes:               128
     Threads/MPI process:                     2

     MPI processes distributed on     2 nodes
     438175 MiB available memory on the printing compute node when the environment starts

     Reading input from Cr_0_0.05.in
Warning: card &CELL ignored
Warning: card / ignored
Warning: card &FCP ignored
Warning: card / ignored
Warning: card &RISM ignored
Warning: card / ignored

     Current dimensions of program PWSCF are:
     Max number of different atomic species (ntypx) = 10
     Max number of k-points (npk) =  40000
     Max angular momentum in pseudopotentials (lmaxx) =  4
read_pp_mesh; mismatch in mesh size, discarding the one in header
read_pp_mesh; mismatch in mesh size, discarding the one in header
read_pp_mesh; mismatch in mesh size, discarding the one in header
     file Cr.GGA-PBE-paw.UPF: wavefunction(s)  3S 4S 3P 4P 3D 4D renormalized
     file I.GGA-PBE-paw.UPF: wavefunction(s)  6S 6P renormalized
     file Cr.GGA-PBE-paw.UPF: wavefunction(s)  3S 4S 3P 4P 3D 4D renormalized

     IMPORTANT: XC functional enforced from input :
     Exchange-correlation= PBE
                           (   1   4   3   4   0   0   0)
     Any further DFT definition will be discarded
     Please, verify this is what you really want


     R & G space division:  proc/nbgrp/npool/nimage =     128
     Subspace diagonalization in iterative solution of the eigenvalue problem:
     one sub-group per band group will be used
     ELPA distributed-memory algorithm (size of sub-group:  3*  3 procs)


     Parallelization info
     --------------------
     sticks:   dense  smooth     PW     G-vecs:    dense   smooth      PW
     Min         509     305     78               140391    65241    8388
     Max         510     306     79               140404    65254    8400
     Sum       65263   39121   9985             17971031  8351671 1074593

     Using Slab Decomposition



     bravais-lattice index     =            0
     lattice parameter (alat)  =      39.7293  a.u.
     unit-cell volume          =   72410.5124 (a.u.)^3
     number of atoms/cell      =           72
     number of atomic types    =            3
     number of electrons       =       630.00 (up: 342.00, down: 288.00)
     number of Kohn-Sham states=          342
     kinetic-energy cutoff     =      90.0000  Ry
     charge density cutoff     =     600.0000  Ry
     scf convergence threshold =      1.0E-10
     mixing beta               =       0.3000
     number of iterations used =            8  plain     mixing
     Exchange-correlation= PBE
                           (   1   4   3   4   0   0   0)
     Hubbard projectors: ortho-atomic
     Hubbard parameters of DFT+U (Dudarev formulation) in eV:
     U(Cr1-3d) =  0.0000
     J0(Cr1-3d) =  0.0000
     beta(Cr1-3d) =  0.0500

     Internal variables: lda_plus_u =T, lda_plus_u_kind = 0

     celldm(1)=  39.729285  celldm(2)=   0.000000  celldm(3)=   0.000000
     celldm(4)=   0.000000  celldm(5)=   0.000000  celldm(6)=   0.000000

     crystal axes: (cart. coord. in units of alat)
               a(1) = (   1.000000   0.000000   0.000000 )  
               a(2) = (  -0.500000   0.866025   0.000000 )  
               a(3) = (   0.000000   0.000000   1.333333 )  

     reciprocal axes: (cart. coord. in units 2 pi/alat)
               b(1) = (  1.000000  0.577350 -0.000000 )  
               b(2) = (  0.000000  1.154701  0.000000 )  
               b(3) = (  0.000000 -0.000000  0.750000 )  


     PseudoPot. # 1 for Cr read from file:
     ./Cr.GGA-PBE-paw.UPF
     MD5 check sum: 389087661106aa6caf57455f2e439c97
     Pseudo is Projector augmented-wave + core cor, Zval = 14.0
     Generated using ATOMPAW code
     Shape of augmentation charge: SINC**2
     Using radial grid of 2342 points,  6 beta functions with: 
                l(1) =   0
                l(2) =   0
                l(3) =   1
                l(4) =   1
                l(5) =   2
                l(6) =   2
     Q(r) pseudized with 0 coefficients 


     PseudoPot. # 2 for I  read from file:
     ./I.GGA-PBE-paw.UPF
     MD5 check sum: 736bb4145856fa7ed29d0984862794a4
     Pseudo is Projector augmented-wave + core cor, Zval =  7.0
     Generated using ATOMPAW code
     Shape of augmentation charge: SINC**2
     Using radial grid of 2342 points,  4 beta functions with: 
                l(1) =   0
                l(2) =   0
                l(3) =   1
                l(4) =   1
     Q(r) pseudized with 0 coefficients 


     PseudoPot. # 3 for Cr read from file:
     ./Cr.GGA-PBE-paw.UPF
     MD5 check sum: 389087661106aa6caf57455f2e439c97
     Pseudo is Projector augmented-wave + core cor, Zval = 14.0
     Generated using ATOMPAW code
     Shape of augmentation charge: SINC**2
     Using radial grid of 2342 points,  6 beta functions with: 
                l(1) =   0
                l(2) =   0
                l(3) =   1
                l(4) =   1
                l(5) =   2
                l(6) =   2
     Q(r) pseudized with 0 coefficients 


     atomic species   valence    mass     pseudopotential
     Cr1              14.00    51.99610     Cr( 1.00)
     I                 7.00   126.90447     I ( 1.00)
     Cr               14.00    51.99610     Cr( 1.00)

     Starting magnetic structure 
     atomic species   magnetization
     Cr1             0.214
     I               0.000
     Cr              0.214

     No symmetry found



   Cartesian axes

     site n.     atom                  positions (alat units)
         1        Cr1    tau(   1) = (   0.3271041   0.3777073   0.4295967  )
         2        Cr     tau(   2) = (   0.1635521   0.0944268   0.4295967  )
         3        Cr     tau(   3) = (   0.0000000   0.1888536   0.4295967  )
         4        I      tau(   4) = (   0.2103614  -0.0000006   0.3558127  )
         5        I      tau(   5) = (   0.0583708   0.1011024   0.3558127  )
         6        I      tau(   6) = (  -0.1051802   0.1821787   0.3558127  )
         7        I      tau(   7) = (   0.1167427  -0.0000005   0.5033806  )
         8        I      tau(   8) = (   0.1051802   0.1821786   0.5033806  )
         9        I      tau(   9) = (  -0.0583709   0.1011024   0.5033806  )
        10        Cr     tau(  10) = (  -0.0000000   0.3777073   0.4295967  )
        11        Cr     tau(  11) = (  -0.1635521   0.4721341   0.4295967  )
        12        I      tau(  12) = (   0.0468094   0.2832798   0.3558127  )
        13        I      tau(  13) = (  -0.1051813   0.3843829   0.3558127  )
        14        I      tau(  14) = (  -0.2687322   0.4654591   0.3558127  )
        15        I      tau(  15) = (  -0.0468094   0.2832799   0.5033806  )
        16        I      tau(  16) = (  -0.0583718   0.4654591   0.5033806  )
        17        I      tau(  17) = (  -0.2219229   0.3843829   0.5033806  )
        18        Cr     tau(  18) = (  -0.1635521   0.6609878   0.4295967  )
        19        Cr     tau(  19) = (  -0.3271041   0.7554146   0.4295967  )
        20        I      tau(  20) = (  -0.1167427   0.5665603   0.3558127  )
        21        I      tau(  21) = (  -0.2687333   0.6676634   0.3558127  )
        22        I      tau(  22) = (  -0.4322843   0.7487396   0.3558127  )
        23        I      tau(  23) = (  -0.2103614   0.5665604   0.5033806  )
        24        I      tau(  24) = (  -0.2219239   0.7487396   0.5033806  )
        25        I      tau(  25) = (  -0.3854750   0.6676633   0.5033806  )
        26        Cr     tau(  26) = (   0.4906562   0.0944268   0.4295967  )
        27        Cr     tau(  27) = (   0.3271041   0.1888536   0.4295967  )
        28        I      tau(  28) = (   0.5374655  -0.0000006   0.3558127  )
        29        I      tau(  29) = (   0.3854749   0.1011024   0.3558127  )
        30        I      tau(  30) = (   0.2219239   0.1821787   0.3558127  )
        31        I      tau(  31) = (   0.4438468  -0.0000005   0.5033806  )
        32        I      tau(  32) = (   0.4322844   0.1821786   0.5033806  )
        33        I      tau(  33) = (   0.2687332   0.1011024   0.5033806  )
        34        Cr     tau(  34) = (   0.1635521   0.4721341   0.4295967  )
        35        I      tau(  35) = (   0.3739135   0.2832798   0.3558127  )
        36        I      tau(  36) = (   0.2219229   0.3843829   0.3558127  )
        37        I      tau(  37) = (   0.0583719   0.4654591   0.3558127  )
        38        I      tau(  38) = (   0.2802947   0.2832799   0.5033806  )
        39        I      tau(  39) = (   0.2687323   0.4654591   0.5033806  )
        40        I      tau(  40) = (   0.1051812   0.3843829   0.5033806  )
        41        Cr     tau(  41) = (   0.1635521   0.6609878   0.4295967  )
        42        Cr     tau(  42) = (   0.0000000   0.7554146   0.4295967  )
        43        I      tau(  43) = (   0.2103614   0.5665603   0.3558127  )
        44        I      tau(  44) = (   0.0583708   0.6676634   0.3558127  )
        45        I      tau(  45) = (  -0.1051802   0.7487396   0.3558127  )
        46        I      tau(  46) = (   0.1167427   0.5665604   0.5033806  )
        47        I      tau(  47) = (   0.1051802   0.7487396   0.5033806  )
        48        I      tau(  48) = (  -0.0583709   0.6676633   0.5033806  )
        49        Cr     tau(  49) = (   0.8177603   0.0944268   0.4295967  )
        50        Cr     tau(  50) = (   0.6542082   0.1888536   0.4295967  )
        51        I      tau(  51) = (   0.8645697  -0.0000006   0.3558127  )
        52        I      tau(  52) = (   0.7125790   0.1011024   0.3558127  )
        53        I      tau(  53) = (   0.5490281   0.1821787   0.3558127  )
        54        I      tau(  54) = (   0.7709509  -0.0000005   0.5033806  )
        55        I      tau(  55) = (   0.7593885   0.1821786   0.5033806  )
        56        I      tau(  56) = (   0.5958374   0.1011024   0.5033806  )
        57        Cr     tau(  57) = (   0.6542082   0.3777073   0.4295967  )
        58        Cr     tau(  58) = (   0.4906562   0.4721341   0.4295967  )
        59        I      tau(  59) = (   0.7010176   0.2832798   0.3558127  )
        60        I      tau(  60) = (   0.5490270   0.3843829   0.3558127  )
        61        I      tau(  61) = (   0.3854760   0.4654591   0.3558127  )
        62        I      tau(  62) = (   0.6073989   0.2832799   0.5033806  )
        63        I      tau(  63) = (   0.5958364   0.4654591   0.5033806  )
        64        I      tau(  64) = (   0.4322853   0.3843829   0.5033806  )
        65        Cr     tau(  65) = (   0.4906562   0.6609878   0.4295967  )
        66        Cr     tau(  66) = (   0.3271041   0.7554146   0.4295967  )
        67        I      tau(  67) = (   0.5374655   0.5665603   0.3558127  )
        68        I      tau(  68) = (   0.3854749   0.6676634   0.3558127  )
        69        I      tau(  69) = (   0.2219239   0.7487396   0.3558127  )
        70        I      tau(  70) = (   0.4438468   0.5665604   0.5033806  )
        71        I      tau(  71) = (   0.4322844   0.7487396   0.5033806  )
        72        I      tau(  72) = (   0.2687332   0.6676633   0.5033806  )

     number of k points=     4
                       cart. coord. in units 2pi/alat
        k(    1) = (   0.0000000   0.0000000   0.0000000), wk =   0.2500000
        k(    2) = (   0.0000000  -0.5773503   0.0000000), wk =   0.2500000
        k(    3) = (   0.5000000  -0.2886751   0.0000000), wk =   0.2500000
        k(    4) = (  -0.5000000  -0.2886751   0.0000000), wk =   0.2500000

     Dense  grid: 17971031 G-vectors     FFT dimensions: ( 320, 320, 432)

     Smooth grid:  8351671 G-vectors     FFT dimensions: ( 240, 240, 320)

     Estimated max dynamical RAM per process >       1.67 GB

     Estimated total dynamical RAM >     213.14 GB
     Generating pointlists ...
     new r_m :   0.0531 (alat units)  2.1084 (a.u.) for type    1
     new r_m :   0.0531 (alat units)  2.1084 (a.u.) for type    2
     new r_m :   0.0531 (alat units)  2.1084 (a.u.) for type    3

     The initial density is read from file :
     ./Cr_0_0.05/Cr_0_0.save/charge-density


     negative rho (up, down):  1.304E-01 1.474E-01

     STARTING HUBBARD OCCUPATIONS:

     =================== HUBBARD OCCUPATIONS ===================
     ------------------------ ATOM    1 ------------------------
     Tr[ns(  1)] (up, down, total) =   3.59974  0.76815  4.36789
     Atomic magnetic moment for atom   1 =   2.83159
     SPIN  1
     eigenvalues:
       0.445  0.446  0.901  0.901  0.907
     eigenvectors (columns):
      -0.000  0.000 -0.031 -0.030  0.999
      -0.800  0.188  0.535  0.197  0.022
      -0.188 -0.801  0.197 -0.534 -0.010
       0.556 -0.130  0.770  0.283  0.032
      -0.130 -0.554 -0.284  0.772  0.014
     occupation matrix ns (before diag.):
       0.907  0.000 -0.000  0.000  0.000
       0.000  0.593 -0.000  0.214 -0.000
      -0.000 -0.000  0.594  0.000 -0.213
       0.000  0.214  0.000  0.752  0.000
       0.000 -0.000 -0.213  0.000  0.754
     SPIN  2
     eigenvalues:
       0.078  0.086  0.087  0.258  0.259
     eigenvectors (columns):
      -0.999  0.034 -0.028  0.001 -0.000
      -0.022 -0.542  0.133  0.800 -0.218
       0.011 -0.133 -0.540  0.218  0.802
      -0.033 -0.805  0.197 -0.539  0.146
      -0.016  0.198  0.807  0.146  0.537
     occupation matrix ns (before diag.):
       0.078 -0.000  0.000 -0.000 -0.000
      -0.000  0.204 -0.000 -0.080 -0.000
       0.000 -0.000  0.206 -0.000  0.080
      -0.000 -0.080 -0.000  0.140  0.000
      -0.000 -0.000  0.080  0.000  0.140

     Number of occupied Hubbard levels =    4.3679

     Atomic wfc used for Hubbard projectors are orthogonalized

     Starting wfcs are  756 atomic wfcs
     Checking if some PAW data can be deallocated... 

     total cpu time spent up to now is      124.3 secs

     Self-consistent Calculation

     iteration #  1     ecut=    90.00 Ry     beta= 0.30
     Davidson diagonalization with overlap
     ethr =  1.00E-05,  avg # of iterations =  8.6

     =================== HUBBARD OCCUPATIONS ===================
     ------------------------ ATOM    1 ------------------------
     Tr[ns(  1)] (up, down, total) =   3.58782  0.77968  4.36750
     Atomic magnetic moment for atom   1 =   2.80814
     SPIN  1
     eigenvalues:
       0.439  0.441  0.900  0.900  0.907
     eigenvectors (columns):
      -0.000  0.000 -0.032 -0.031  0.999
      -0.799  0.190  0.535  0.197  0.023
      -0.189 -0.800  0.197 -0.534 -0.010
       0.555 -0.131  0.770  0.283  0.034
      -0.131 -0.554 -0.284  0.772  0.015
     occupation matrix ns (before diag.):
       0.907  0.000 -0.000  0.000  0.000
       0.000  0.589 -0.000  0.216 -0.000
      -0.000 -0.000  0.590  0.000 -0.215
       0.000  0.216  0.000  0.750  0.000
       0.000 -0.000 -0.215  0.000  0.752
     SPIN  2
     eigenvalues:
       0.080  0.087  0.088  0.262  0.263
     eigenvectors (columns):
      -0.999  0.035 -0.029  0.001 -0.000
      -0.022 -0.542  0.133  0.801 -0.217
       0.011 -0.134 -0.540  0.217  0.802
      -0.034 -0.805  0.198 -0.539  0.145
      -0.016  0.198  0.807  0.146  0.537
     occupation matrix ns (before diag.):
       0.080 -0.000  0.000 -0.000 -0.000
      -0.000  0.207 -0.000 -0.081 -0.000
       0.000 -0.000  0.209 -0.000  0.081
      -0.000 -0.081 -0.000  0.142  0.000
      -0.000 -0.000  0.081  0.000  0.142

     Number of occupied Hubbard levels =    4.3675

     Threshold (ethr) on eigenvalues was too large:
     Diagonalizing with lowered threshold

     Davidson diagonalization with overlap
     ethr =  1.93E-09,  avg # of iterations =  5.6

     negative rho (up, down):  1.304E-01 1.474E-01

     total cpu time spent up to now is      712.8 secs

     total energy              =  -24931.16826975 Ry
     estimated scf accuracy    <       0.00001158 Ry

     total magnetization       =    54.00 Bohr mag/cell
     absolute magnetization    =    65.36 Bohr mag/cell

     iteration #  2     ecut=    90.00 Ry     beta= 0.30
     Davidson diagonalization with overlap
     ethr =  1.84E-09,  avg # of iterations =  4.2

     negative rho (up, down):  1.304E-01 1.474E-01

     total cpu time spent up to now is      819.3 secs

     total energy              =  -24931.16827217 Ry
     estimated scf accuracy    <       0.00001080 Ry

     total magnetization       =    54.00 Bohr mag/cell
     absolute magnetization    =    65.36 Bohr mag/cell

     iteration #  3     ecut=    90.00 Ry     beta= 0.30
     Davidson diagonalization with overlap
     ethr =  1.71E-09,  avg # of iterations =  3.0

     negative rho (up, down):  1.305E-01 1.474E-01

     total cpu time spent up to now is      919.1 secs

     total energy              =  -24931.16827918 Ry
     estimated scf accuracy    <       0.00000488 Ry

     total magnetization       =    54.00 Bohr mag/cell
     absolute magnetization    =    65.36 Bohr mag/cell

     iteration #  4     ecut=    90.00 Ry     beta= 0.30
     Davidson diagonalization with overlap
     ethr =  7.75E-10,  avg # of iterations =  5.2

     negative rho (up, down):  1.305E-01 1.474E-01

     total cpu time spent up to now is     1033.3 secs

     total energy              =  -24931.16828189 Ry
     estimated scf accuracy    <       0.00000169 Ry

     total magnetization       =    54.00 Bohr mag/cell
     absolute magnetization    =    65.35 Bohr mag/cell

     iteration #  5     ecut=    90.00 Ry     beta= 0.30
     Davidson diagonalization with overlap
     ethr =  2.68E-10,  avg # of iterations =  5.4

     negative rho (up, down):  1.305E-01 1.474E-01

     total cpu time spent up to now is     1161.5 secs

     total energy              =  -24931.16828271 Ry
     estimated scf accuracy    <       0.00000059 Ry

     total magnetization       =    54.00 Bohr mag/cell
     absolute magnetization    =    65.35 Bohr mag/cell

     iteration #  6     ecut=    90.00 Ry     beta= 0.30
     Davidson diagonalization with overlap
     ethr =  9.43E-11,  avg # of iterations =  4.4

     negative rho (up, down):  1.305E-01 1.474E-01

     total cpu time spent up to now is     1273.6 secs

     total energy              =  -24931.16828286 Ry
     estimated scf accuracy    <       0.00000005 Ry

     total magnetization       =    54.00 Bohr mag/cell
     absolute magnetization    =    65.34 Bohr mag/cell

     iteration #  7     ecut=    90.00 Ry     beta= 0.30
     Davidson diagonalization with overlap
     ethr =  7.38E-12,  avg # of iterations =  5.6

     negative rho (up, down):  1.305E-01 1.474E-01

     total cpu time spent up to now is     1430.7 secs

     total energy              =  -24931.16828289 Ry
     estimated scf accuracy    <       0.00000003 Ry

     total magnetization       =    54.00 Bohr mag/cell
     absolute magnetization    =    65.34 Bohr mag/cell

     iteration #  8     ecut=    90.00 Ry     beta= 0.30
     Davidson diagonalization with overlap
     ethr =  4.16E-12,  avg # of iterations =  2.6

     negative rho (up, down):  1.305E-01 1.474E-01

     total cpu time spent up to now is     1534.8 secs

     total energy              =  -24931.16828291 Ry
     estimated scf accuracy    <          6.9E-09 Ry

     total magnetization       =    54.00 Bohr mag/cell
     absolute magnetization    =    65.34 Bohr mag/cell

     iteration #  9     ecut=    90.00 Ry     beta= 0.30
     Davidson diagonalization with overlap
     ethr =  1.10E-12,  avg # of iterations =  4.9

     negative rho (up, down):  1.305E-01 1.474E-01

     total cpu time spent up to now is     1681.1 secs

     total energy              =  -24931.16828291 Ry
     estimated scf accuracy    <          3.9E-09 Ry

     total magnetization       =    54.00 Bohr mag/cell
     absolute magnetization    =    65.34 Bohr mag/cell

     iteration # 10     ecut=    90.00 Ry     beta= 0.30
     Davidson diagonalization with overlap
     ethr =  6.14E-13,  avg # of iterations =  3.5

     negative rho (up, down):  1.305E-01 1.474E-01

     total cpu time spent up to now is     1790.4 secs

     total energy              =  -24931.16828291 Ry
     estimated scf accuracy    <          7.1E-10 Ry

     total magnetization       =    54.00 Bohr mag/cell
     absolute magnetization    =    65.34 Bohr mag/cell

     iteration # 11     ecut=    90.00 Ry     beta= 0.30
     Davidson diagonalization with overlap
     ethr =  1.12E-13,  avg # of iterations =  4.1

     negative rho (up, down):  1.305E-01 1.474E-01

     total cpu time spent up to now is     1923.0 secs

     total energy              =  -24931.16828291 Ry
     estimated scf accuracy    <          6.4E-10 Ry

     total magnetization       =    54.00 Bohr mag/cell
     absolute magnetization    =    65.34 Bohr mag/cell

     iteration # 12     ecut=    90.00 Ry     beta= 0.30
     Davidson diagonalization with overlap
     ethr =  1.02E-13,  avg # of iterations =  2.5

     negative rho (up, down):  1.305E-01 1.474E-01

     Magnetic moment per site  (integrated on atomic sphere of radius R)
     atom   1 (R=0.053)  charge= 12.4123  magn=  2.8927
     atom   2 (R=0.053)  charge= 12.4086  magn=  2.9137
     atom   3 (R=0.053)  charge= 12.4086  magn=  2.9136
     atom   4 (R=0.053)  charge=  4.0328  magn= -0.0666
     atom   5 (R=0.053)  charge=  4.0497  magn= -0.0522
     atom   6 (R=0.053)  charge=  4.0328  magn= -0.0666
     atom   7 (R=0.053)  charge=  4.0248  magn= -0.0723
     atom   8 (R=0.053)  charge=  4.0502  magn= -0.0558
     atom   9 (R=0.053)  charge=  4.0248  magn= -0.0723
     atom  10 (R=0.053)  charge= 12.4124  magn=  2.9203
     atom  11 (R=0.053)  charge= 12.4091  magn=  2.9162
     atom  12 (R=0.053)  charge=  4.0513  magn= -0.0515
     atom  13 (R=0.053)  charge=  4.0498  magn= -0.0517
     atom  14 (R=0.053)  charge=  4.0336  magn= -0.0637
     atom  15 (R=0.053)  charge=  4.0500  magn= -0.0523
     atom  16 (R=0.053)  charge=  4.0513  magn= -0.0523
     atom  17 (R=0.053)  charge=  4.0253  magn= -0.0709
     atom  18 (R=0.053)  charge= 12.4122  magn=  2.9227
     atom  19 (R=0.053)  charge= 12.3252  magn=  3.0168
     atom  20 (R=0.053)  charge=  4.0507  magn= -0.0525
     atom  21 (R=0.053)  charge=  4.0444  magn= -0.0604
     atom  22 (R=0.053)  charge=  4.0302  magn= -0.0695
     atom  23 (R=0.053)  charge=  4.0499  magn= -0.0520
     atom  24 (R=0.053)  charge=  4.0486  magn= -0.0515
     atom  25 (R=0.053)  charge=  4.0214  magn= -0.0769
     atom  26 (R=0.053)  charge= 12.4090  magn=  2.9162
     atom  27 (R=0.053)  charge= 12.4125  magn=  2.9203
     atom  28 (R=0.053)  charge=  4.0336  magn= -0.0637
     atom  29 (R=0.053)  charge=  4.0498  magn= -0.0514
     atom  30 (R=0.053)  charge=  4.0513  magn= -0.0515
     atom  31 (R=0.053)  charge=  4.0253  magn= -0.0709
     atom  32 (R=0.053)  charge=  4.0513  magn= -0.0522
     atom  33 (R=0.053)  charge=  4.0500  magn= -0.0520
     atom  34 (R=0.053)  charge= 12.4128  magn=  2.9234
     atom  35 (R=0.053)  charge=  4.0519  magn= -0.0464
     atom  36 (R=0.053)  charge=  4.0499  magn= -0.0480
     atom  37 (R=0.053)  charge=  4.0520  magn= -0.0492
     atom  38 (R=0.053)  charge=  4.0505  magn= -0.0475
     atom  39 (R=0.053)  charge=  4.0523  magn= -0.0457
     atom  40 (R=0.053)  charge=  4.0506  magn= -0.0506
     atom  41 (R=0.053)  charge= 12.4124  magn=  2.9258
     atom  42 (R=0.053)  charge= 12.3292  magn=  3.0258
     atom  43 (R=0.053)  charge=  4.0514  magn= -0.0504
     atom  44 (R=0.053)  charge=  4.0448  magn= -0.0597
     atom  45 (R=0.053)  charge=  4.0486  magn= -0.0544
     atom  46 (R=0.053)  charge=  4.0507  magn= -0.0502
     atom  47 (R=0.053)  charge=  4.0495  magn= -0.0482
     atom  48 (R=0.053)  charge=  4.0467  magn= -0.0568
     atom  49 (R=0.053)  charge= 12.3252  magn=  3.0168
     atom  50 (R=0.053)  charge= 12.4122  magn=  2.9227
     atom  51 (R=0.053)  charge=  4.0302  magn= -0.0695
     atom  52 (R=0.053)  charge=  4.0444  magn= -0.0604
     atom  53 (R=0.053)  charge=  4.0507  magn= -0.0525
     atom  54 (R=0.053)  charge=  4.0214  magn= -0.0769
     atom  55 (R=0.053)  charge=  4.0486  magn= -0.0515
     atom  56 (R=0.053)  charge=  4.0499  magn= -0.0520
     atom  57 (R=0.053)  charge= 12.3292  magn=  3.0259
     atom  58 (R=0.053)  charge= 12.4125  magn=  2.9258
     atom  59 (R=0.053)  charge=  4.0486  magn= -0.0544
     atom  60 (R=0.053)  charge=  4.0448  magn= -0.0596
     atom  61 (R=0.053)  charge=  4.0513  magn= -0.0476
     atom  62 (R=0.053)  charge=  4.0467  magn= -0.0568
     atom  63 (R=0.053)  charge=  4.0495  magn= -0.0480
     atom  64 (R=0.053)  charge=  4.0506  magn= -0.0475
     atom  65 (R=0.053)  charge= 12.3290  magn=  3.0299
     atom  66 (R=0.053)  charge= 12.3290  magn=  3.0299
     atom  67 (R=0.053)  charge=  4.0480  magn= -0.0553
     atom  68 (R=0.053)  charge=  4.0397  magn= -0.0675
     atom  69 (R=0.053)  charge=  4.0479  magn= -0.0555
     atom  70 (R=0.053)  charge=  4.0471  magn= -0.0558
     atom  71 (R=0.053)  charge=  4.0465  magn= -0.0471
     atom  72 (R=0.053)  charge=  4.0471  magn= -0.0559

     total cpu time spent up to now is     2026.8 secs

     End of self-consistent calculation

     =================== HUBBARD OCCUPATIONS ===================
     ------------------------ ATOM    1 ------------------------
     Tr[ns(  1)] (up, down, total) =   3.58419  0.78551  4.36970
     Atomic magnetic moment for atom   1 =   2.79868
     SPIN  1
     eigenvalues:
       0.438  0.439  0.900  0.900  0.907
     eigenvectors (columns):
      -0.000  0.000 -0.032 -0.031  0.999
      -0.799  0.189  0.535  0.196  0.023
      -0.189 -0.800  0.197 -0.534 -0.010
       0.555 -0.131  0.770  0.283  0.034
      -0.131 -0.554 -0.284  0.772  0.015
     occupation matrix ns (before diag.):
       0.907  0.000 -0.000  0.000  0.000
       0.000  0.588 -0.000  0.217 -0.000
      -0.000 -0.000  0.589  0.000 -0.216
       0.000  0.217  0.000  0.750  0.000
       0.000 -0.000 -0.216  0.000  0.751
     SPIN  2
     eigenvalues:
       0.080  0.088  0.089  0.264  0.265
     eigenvectors (columns):
      -0.999  0.035 -0.029  0.001 -0.000
      -0.022 -0.542  0.133  0.801 -0.217
       0.011 -0.134 -0.540  0.217  0.802
      -0.034 -0.805  0.198 -0.539  0.145
      -0.017  0.199  0.807  0.146  0.537
     occupation matrix ns (before diag.):
       0.080 -0.000  0.000 -0.000 -0.000
      -0.000  0.209 -0.000 -0.082 -0.000
       0.000 -0.000  0.210 -0.000  0.081
      -0.000 -0.082 -0.000  0.143  0.000
      -0.000 -0.000  0.081  0.000  0.143

     Number of occupied Hubbard levels =    4.3697

 ------ SPIN UP ------------


          k = 0.0000 0.0000 0.0000 (****** PWs)   bands (ev):

   -76.1370 -76.1369 -76.0608 -76.0608 -76.0125 -76.0121 -75.9807 -75.9807
   -75.9321 -75.9300 -75.9300 -75.9274 -75.8507 -75.8507 -75.8503 -75.8500
   -75.7724 -75.7724 -47.4875 -47.4865 -47.4631 -47.4620 -47.4578 -47.4574
   -47.4084 -47.4084 -47.3880 -47.3880 -47.3822 -47.3822 -47.3519 -47.3516
   -47.3455 -47.3451 -47.3393 -47.3390 -47.3272 -47.3272 -47.3059 -47.3059
   -47.3013 -47.3013 -47.2705 -47.2696 -47.2696 -47.2651 -47.2642 -47.2631
   -47.2631 -47.2615 -47.2587 -47.2559 -47.2559 -47.2559 -47.1888 -47.1888
   -47.1884 -47.1880 -47.1835 -47.1834 -47.1815 -47.1812 -47.1795 -47.1792
   -47.1763 -47.1762 -47.1102 -47.1099 -47.1063 -47.1044 -47.0973 -47.0971
   -16.2046 -16.0678 -16.0165 -15.9908 -15.9549 -15.8951 -15.8619 -15.7103
   -15.6638 -15.6336 -15.6072 -15.4952 -15.4790 -15.4549 -15.4252 -15.4087
   -15.3805 -15.3554 -15.3465 -15.3333 -15.3322 -15.3109 -15.2942 -15.2753
   -15.2695 -15.2478 -15.2384 -15.2360 -15.2035 -15.1893 -15.1759 -15.1718
   -15.1654 -15.1539 -15.1266 -15.1214 -15.1126 -15.1057 -15.0988 -15.0829
   -15.0765 -15.0640 -15.0313 -15.0223 -15.0069 -14.9958 -14.9860 -14.9100
   -14.8807 -14.8793 -14.8183 -14.8158 -14.7420 -14.7135  -7.9483  -7.8745
    -7.8373  -7.7908  -7.7806  -7.7424  -7.6951  -7.4068  -7.3796  -7.3757
    -7.3657  -7.3300  -7.2909  -7.2645  -7.2339  -7.2193  -7.1428  -7.1358
    -6.9820  -6.9473  -6.9414  -6.8976  -6.8804  -6.8583  -6.8485  -6.8397
    -6.8116  -6.8108  -6.7735  -6.7490  -6.7289  -6.7225  -6.7043  -6.6879
    -6.6839  -6.6719  -6.6487  -6.6408  -6.6288  -6.6033  -6.5882  -6.5879
    -6.5641  -6.5394  -6.5055  -6.4946  -6.4732  -6.4661  -6.4284  -6.4049
    -6.3969  -6.3764  -6.3418  -6.3409  -6.3359  -6.2977  -6.2831  -6.2669
    -6.2546  -6.2340  -6.1928  -6.1640  -6.1525  -6.1219  -6.1180  -6.0813
    -6.0524  -6.0287  -6.0228  -5.9877  -5.9867  -5.9813  -5.9722  -5.9367
    -5.9278  -5.9170  -5.8887  -5.8860  -5.8563  -5.8432  -5.8055  -5.7740
    -5.6814  -5.6510  -5.6270  -5.6212  -5.5760  -5.5164  -5.4977  -5.4712
    -5.4586  -5.4286  -5.3856  -5.3633  -5.3479  -5.3192  -5.2874  -5.2654
    -5.2465  -5.2289  -5.2119  -5.1983  -5.1765  -5.1724  -5.1519  -5.1403
    -5.1253  -5.1207  -5.0624  -5.0454  -5.0258  -5.0200  -5.0188  -5.0068
    -4.9887  -4.9791  -4.9512  -4.9457  -4.9284  -4.9118  -4.8748  -4.8671
    -4.8533  -4.8397  -4.8186  -4.7863  -4.7773  -4.7667  -4.7371  -4.7133
    -4.7059  -4.6935  -4.6844  -4.6767  -4.6761  -4.6262  -4.6090  -4.5536
    -4.5377  -4.5150  -4.4842  -4.4470  -4.4391  -4.4322  -4.3988  -4.3958
    -4.3723  -4.3698  -4.3552  -4.3476  -4.3449  -4.3205  -4.3166  -4.2881
    -4.2834  -4.2377  -4.2192  -4.2145  -4.1868  -4.1836  -4.1540  -4.1271
    -4.1041  -4.0838  -4.0781  -4.0509  -4.0133  -4.0082  -4.0024  -3.9847
    -3.9527  -3.9498  -3.9311  -3.9259  -3.9203  -3.9111  -3.8960  -3.8905
    -3.8832  -3.8797  -3.8788  -3.8516  -3.8389  -3.8353  -3.8280  -3.8269
    -3.8177  -3.8137  -3.7911  -3.7835  -3.7668  -3.7637  -3.7490  -3.7282
    -3.7194  -3.7011  -3.6933  -3.6846  -3.6355  -3.6256  -3.6158  -3.5997
    -3.5965  -3.5770  -3.5028  -3.4962  -3.4886  -3.4703  -3.4400  -3.4332
    -3.4180  -3.3950  -3.3513  -3.3486  -3.3398  -3.3238

          k = 0.0000-0.5774 0.0000 (****** PWs)   bands (ev):

   -76.1370 -76.1369 -76.0608 -76.0608 -76.0125 -76.0121 -75.9807 -75.9807
   -75.9321 -75.9300 -75.9300 -75.9274 -75.8507 -75.8507 -75.8503 -75.8500
   -75.7724 -75.7724 -47.4875 -47.4865 -47.4631 -47.4620 -47.4578 -47.4574
   -47.4084 -47.4084 -47.3880 -47.3880 -47.3822 -47.3822 -47.3519 -47.3516
   -47.3455 -47.3451 -47.3393 -47.3390 -47.3272 -47.3272 -47.3059 -47.3059
   -47.3013 -47.3013 -47.2705 -47.2696 -47.2696 -47.2651 -47.2642 -47.2631
   -47.2631 -47.2615 -47.2587 -47.2559 -47.2559 -47.2559 -47.1888 -47.1888
   -47.1884 -47.1880 -47.1835 -47.1834 -47.1815 -47.1812 -47.1795 -47.1792
   -47.1763 -47.1762 -47.1102 -47.1099 -47.1063 -47.1044 -47.0973 -47.0971
   -16.1935 -16.0986 -16.0245 -15.9978 -15.9274 -15.8640 -15.8453 -15.7597
   -15.6898 -15.5930 -15.5686 -15.5202 -15.5164 -15.4637 -15.4513 -15.3951
   -15.3755 -15.3603 -15.3512 -15.3237 -15.3121 -15.3099 -15.2930 -15.2749
   -15.2517 -15.2411 -15.2304 -15.2175 -15.2063 -15.1962 -15.1817 -15.1725
   -15.1607 -15.1485 -15.1425 -15.1260 -15.1222 -15.1028 -15.1023 -15.0838
   -15.0757 -15.0629 -15.0339 -15.0283 -15.0040 -14.9959 -14.9871 -14.9087
   -14.8800 -14.8789 -14.8170 -14.8167 -14.7420 -14.7134  -7.9335  -7.8811
    -7.8181  -7.7821  -7.7662  -7.7046  -7.6419  -7.5968  -7.5257  -7.3736
    -7.3397  -7.2840  -7.2734  -7.2604  -7.2135  -7.1993  -7.1363  -7.1300
    -6.9741  -6.9477  -6.9354  -6.8966  -6.8740  -6.8658  -6.8385  -6.8364
    -6.8214  -6.8060  -6.7836  -6.7631  -6.7340  -6.7289  -6.7247  -6.7053
    -6.6975  -6.6758  -6.6519  -6.6449  -6.6287  -6.5974  -6.5632  -6.5485
    -6.5267  -6.5130  -6.4892  -6.4832  -6.4567  -6.4417  -6.4256  -6.4134
    -6.3984  -6.3898  -6.3805  -6.3327  -6.3218  -6.2924  -6.2792  -6.2687
    -6.2486  -6.2238  -6.1896  -6.1838  -6.1580  -6.1076  -6.0820  -6.0748
    -6.0588  -6.0413  -6.0207  -6.0000  -5.9808  -5.9782  -5.9593  -5.9189
    -5.9084  -5.8961  -5.8618  -5.8434  -5.8239  -5.7996  -5.7766  -5.7178
    -5.6490  -5.6195  -5.5967  -5.5922  -5.5710  -5.5524  -5.5320  -5.5252
    -5.5077  -5.4900  -5.4683  -5.4465  -5.4371  -5.4070  -5.3881  -5.3638
    -5.3459  -5.3186  -5.3032  -5.2645  -5.2426  -5.2277  -5.1995  -5.1484
    -5.1321  -5.1142  -5.0921  -5.0743  -5.0507  -5.0246  -5.0048  -4.9718
    -4.9506  -4.9158  -4.9044  -4.8935  -4.8761  -4.8524  -4.8124  -4.8004
    -4.7818  -4.7644  -4.7441  -4.7335  -4.7084  -4.6912  -4.6838  -4.6698
    -4.6639  -4.6405  -4.6182  -4.6034  -4.5964  -4.5660  -4.5530  -4.5427
    -4.5339  -4.5240  -4.5042  -4.4905  -4.4701  -4.4445  -4.4411  -4.4341
    -4.4115  -4.4056  -4.3821  -4.3734  -4.3450  -4.3045  -4.2916  -4.2703
    -4.2609  -4.2497  -4.2262  -4.2060  -4.1936  -4.1771  -4.1729  -4.1669
    -4.1572  -4.1443  -4.1175  -4.1097  -4.0840  -4.0624  -4.0402  -4.0016
    -3.9795  -3.9683  -3.9480  -3.9287  -3.9219  -3.9078  -3.8907  -3.8831
    -3.8800  -3.8687  -3.8550  -3.8529  -3.8449  -3.8355  -3.8288  -3.8139
    -3.8094  -3.7893  -3.7846  -3.7776  -3.7676  -3.7502  -3.7246  -3.7104
    -3.6896  -3.6820  -3.6601  -3.6441  -3.6363  -3.6275  -3.6159  -3.6022
    -3.5984  -3.5800  -3.5695  -3.5310  -3.4749  -3.4647  -3.4242  -3.4222
    -3.4089  -3.3960  -3.3708  -3.3515  -3.3418  -3.3278

          k = 0.5000-0.2887 0.0000 (****** PWs)   bands (ev):

   -76.1370 -76.1369 -76.0608 -76.0608 -76.0125 -76.0121 -75.9807 -75.9807
   -75.9321 -75.9300 -75.9300 -75.9274 -75.8507 -75.8507 -75.8503 -75.8500
   -75.7724 -75.7724 -47.4875 -47.4865 -47.4631 -47.4620 -47.4578 -47.4574
   -47.4084 -47.4084 -47.3880 -47.3880 -47.3822 -47.3822 -47.3519 -47.3516
   -47.3455 -47.3451 -47.3393 -47.3390 -47.3272 -47.3272 -47.3059 -47.3059
   -47.3013 -47.3013 -47.2705 -47.2696 -47.2696 -47.2651 -47.2642 -47.2631
   -47.2631 -47.2615 -47.2587 -47.2559 -47.2559 -47.2559 -47.1888 -47.1888
   -47.1884 -47.1880 -47.1835 -47.1834 -47.1815 -47.1812 -47.1795 -47.1792
   -47.1763 -47.1762 -47.1102 -47.1099 -47.1063 -47.1044 -47.0973 -47.0971
   -16.1871 -16.1185 -16.0221 -15.9705 -15.9337 -15.8683 -15.8515 -15.7684
   -15.6568 -15.6292 -15.5556 -15.5249 -15.5194 -15.4713 -15.4493 -15.3967
   -15.3642 -15.3544 -15.3498 -15.3126 -15.3088 -15.3002 -15.2967 -15.2773
   -15.2518 -15.2480 -15.2278 -15.2209 -15.2176 -15.2026 -15.1951 -15.1643
   -15.1627 -15.1444 -15.1389 -15.1257 -15.1223 -15.1044 -15.1032 -15.0770
   -15.0746 -15.0686 -15.0308 -15.0300 -15.0027 -14.9979 -14.9849 -14.9073
   -14.8802 -14.8796 -14.8183 -14.8154 -14.7421 -14.7133  -7.9273  -7.8935
    -7.7955  -7.7918  -7.7449  -7.7051  -7.6978  -7.5589  -7.5435  -7.3748
    -7.3317  -7.2917  -7.2486  -7.2440  -7.2251  -7.2192  -7.1423  -7.1247
    -6.9711  -6.9457  -6.9406  -6.8945  -6.8783  -6.8710  -6.8443  -6.8331
    -6.8262  -6.8119  -6.8008  -6.7669  -6.7645  -6.7534  -6.7103  -6.6975
    -6.6699  -6.6673  -6.6232  -6.6211  -6.6004  -6.5881  -6.5615  -6.5230
    -6.5201  -6.5055  -6.5011  -6.5003  -6.4693  -6.4542  -6.4322  -6.4080
    -6.3918  -6.3751  -6.3729  -6.3599  -6.3091  -6.3069  -6.2879  -6.2803
    -6.2665  -6.2482  -6.1951  -6.1846  -6.1243  -6.1160  -6.0761  -6.0652
    -6.0372  -6.0352  -6.0217  -5.9962  -5.9942  -5.9683  -5.9459  -5.9152
    -5.9105  -5.8990  -5.8979  -5.8717  -5.8629  -5.8423  -5.7925  -5.6715
    -5.6473  -5.6084  -5.5735  -5.5543  -5.5463  -5.5265  -5.5232  -5.5088
    -5.5047  -5.4893  -5.4773  -5.4654  -5.4473  -5.4323  -5.3948  -5.3781
    -5.3651  -5.3458  -5.3304  -5.2645  -5.2271  -5.2017  -5.1823  -5.1540
    -5.1263  -5.0843  -5.0793  -5.0616  -5.0477  -5.0247  -5.0005  -4.9956
    -4.9447  -4.9386  -4.9139  -4.8751  -4.8722  -4.8380  -4.8114  -4.7998
    -4.7848  -4.7784  -4.7346  -4.7332  -4.7165  -4.7011  -4.6861  -4.6656
    -4.6630  -4.6301  -4.6282  -4.6034  -4.5953  -4.5805  -4.5676  -4.5621
    -4.5465  -4.5083  -4.4713  -4.4706  -4.4587  -4.4580  -4.4378  -4.4260
    -4.4196  -4.4060  -4.4049  -4.3869  -4.3586  -4.2928  -4.2851  -4.2740
    -4.2654  -4.2327  -4.2205  -4.2107  -4.1992  -4.1836  -4.1735  -4.1578
    -4.1486  -4.1328  -4.1275  -4.0958  -4.0802  -4.0779  -4.0234  -4.0101
    -3.9885  -3.9674  -3.9394  -3.9307  -3.9119  -3.9105  -3.9060  -3.8922
    -3.8814  -3.8789  -3.8655  -3.8585  -3.8464  -3.8331  -3.8237  -3.8196
    -3.8059  -3.7963  -3.7886  -3.7703  -3.7625  -3.7391  -3.7250  -3.7071
    -3.6909  -3.6877  -3.6661  -3.6502  -3.6295  -3.6236  -3.6219  -3.6103
    -3.5749  -3.5740  -3.5551  -3.5303  -3.4952  -3.4495  -3.4461  -3.4245
    -3.4216  -3.3853  -3.3595  -3.3570  -3.3328  -3.3258

          k =-0.5000-0.2887 0.0000 (****** PWs)   bands (ev):

   -76.1370 -76.1369 -76.0608 -76.0608 -76.0125 -76.0121 -75.9807 -75.9807
   -75.9321 -75.9300 -75.9300 -75.9274 -75.8507 -75.8507 -75.8503 -75.8500
   -75.7724 -75.7724 -47.4875 -47.4865 -47.4631 -47.4620 -47.4578 -47.4574
   -47.4084 -47.4084 -47.3880 -47.3880 -47.3822 -47.3822 -47.3519 -47.3516
   -47.3455 -47.3451 -47.3393 -47.3390 -47.3272 -47.3272 -47.3059 -47.3059
   -47.3013 -47.3013 -47.2705 -47.2696 -47.2696 -47.2651 -47.2642 -47.2631
   -47.2631 -47.2615 -47.2587 -47.2559 -47.2559 -47.2559 -47.1888 -47.1888
   -47.1884 -47.1880 -47.1835 -47.1834 -47.1815 -47.1812 -47.1795 -47.1792
   -47.1763 -47.1762 -47.1102 -47.1099 -47.1063 -47.1044 -47.0973 -47.0971
   -16.1935 -16.0985 -16.0246 -15.9979 -15.9273 -15.8639 -15.8453 -15.7598
   -15.6898 -15.5930 -15.5686 -15.5204 -15.5163 -15.4635 -15.4513 -15.3951
   -15.3753 -15.3605 -15.3513 -15.3236 -15.3122 -15.3099 -15.2929 -15.2750
   -15.2514 -15.2412 -15.2305 -15.2175 -15.2063 -15.1962 -15.1818 -15.1725
   -15.1607 -15.1485 -15.1425 -15.1260 -15.1221 -15.1029 -15.1023 -15.0838
   -15.0757 -15.0629 -15.0339 -15.0284 -15.0040 -14.9959 -14.9871 -14.9087
   -14.8800 -14.8789 -14.8170 -14.8167 -14.7420 -14.7134  -7.9335  -7.8810
    -7.8183  -7.7821  -7.7662  -7.7047  -7.6416  -7.5969  -7.5257  -7.3736
    -7.3397  -7.2843  -7.2734  -7.2604  -7.2134  -7.1992  -7.1362  -7.1301
    -6.9740  -6.9475  -6.9356  -6.8970  -6.8733  -6.8664  -6.8375  -6.8366
    -6.8217  -6.8066  -6.7831  -6.7634  -6.7340  -6.7291  -6.7244  -6.7054
    -6.6977  -6.6758  -6.6520  -6.6448  -6.6288  -6.5971  -6.5633  -6.5482
    -6.5258  -6.5132  -6.4878  -6.4839  -6.4576  -6.4422  -6.4262  -6.4124
    -6.3983  -6.3895  -6.3813  -6.3329  -6.3218  -6.2922  -6.2797  -6.2692
    -6.2478  -6.2239  -6.1898  -6.1832  -6.1584  -6.1097  -6.0828  -6.0723
    -6.0551  -6.0408  -6.0204  -6.0003  -5.9820  -5.9803  -5.9599  -5.9185
    -5.9085  -5.8958  -5.8618  -5.8438  -5.8236  -5.8001  -5.7772  -5.7172
    -5.6484  -5.6201  -5.5979  -5.5906  -5.5725  -5.5530  -5.5301  -5.5249
    -5.5078  -5.4898  -5.4680  -5.4465  -5.4376  -5.4074  -5.3875  -5.3637
    -5.3459  -5.3192  -5.3032  -5.2654  -5.2426  -5.2265  -5.1997  -5.1481
    -5.1334  -5.1146  -5.0923  -5.0736  -5.0506  -5.0234  -5.0051  -4.9716
    -4.9509  -4.9156  -4.9047  -4.8938  -4.8757  -4.8512  -4.8124  -4.8008
    -4.7802  -4.7652  -4.7445  -4.7330  -4.7080  -4.6900  -4.6842  -4.6714
    -4.6654  -4.6413  -4.6175  -4.6040  -4.5967  -4.5661  -4.5533  -4.5419
    -4.5343  -4.5242  -4.5055  -4.4897  -4.4701  -4.4465  -4.4418  -4.4323
    -4.4091  -4.4042  -4.3809  -4.3747  -4.3444  -4.3043  -4.2912  -4.2727
    -4.2607  -4.2509  -4.2254  -4.2058  -4.1936  -4.1767  -4.1723  -4.1668
    -4.1578  -4.1464  -4.1177  -4.1098  -4.0817  -4.0622  -4.0407  -4.0017
    -3.9791  -3.9660  -3.9493  -3.9310  -3.9208  -3.9067  -3.8936  -3.8813
    -3.8808  -3.8686  -3.8546  -3.8508  -3.8445  -3.8362  -3.8284  -3.8178
    -3.8097  -3.7888  -3.7847  -3.7758  -3.7666  -3.7510  -3.7258  -3.7115
    -3.6879  -3.6814  -3.6596  -3.6456  -3.6353  -3.6274  -3.6155  -3.6027
    -3.5986  -3.5788  -3.5701  -3.5319  -3.4760  -3.4640  -3.4239  -3.4207
    -3.4101  -3.3960  -3.3702  -3.3516  -3.3430  -3.3272

 ------ SPIN DOWN ----------


          k = 0.0000 0.0000 0.0000 (****** PWs)   bands (ev):

   -72.9790 -72.9789 -72.9722 -72.9718 -72.9223 -72.9067 -72.9066 -72.8942
   -72.8928 -72.8928 -72.8342 -72.8342 -72.8185 -72.8184 -72.8155 -72.8151
   -72.7428 -72.7427 -44.3882 -44.3869 -44.3781 -44.3777 -44.3620 -44.3604
   -44.3475 -44.3471 -44.3346 -44.3342 -44.3318 -44.3315 -44.3267 -44.3121
   -44.3120 -44.2995 -44.2981 -44.2981 -44.2919 -44.2886 -44.2840 -44.2839
   -44.2691 -44.2691 -44.2672 -44.2671 -44.2650 -44.2617 -44.2542 -44.2542
   -44.2347 -44.2347 -44.2200 -44.2197 -44.2187 -44.2187 -44.2122 -44.2122
   -44.1954 -44.1954 -44.1930 -44.1929 -44.1866 -44.1862 -44.1836 -44.1835
   -44.1826 -44.1823 -44.1427 -44.1423 -44.1180 -44.1159 -44.1082 -44.1075
   -16.2120 -16.0791 -16.0317 -16.0026 -15.9700 -15.9092 -15.8814 -15.7342
   -15.6898 -15.6625 -15.6382 -15.5368 -15.5154 -15.5032 -15.4615 -15.4504
   -15.4283 -15.4033 -15.3926 -15.3740 -15.3729 -15.3580 -15.3430 -15.3208
   -15.3176 -15.2951 -15.2869 -15.2847 -15.2516 -15.2363 -15.2264 -15.2204
   -15.2131 -15.2019 -15.1748 -15.1743 -15.1634 -15.1502 -15.1447 -15.1331
   -15.1278 -15.1090 -15.0895 -15.0741 -15.0625 -15.0437 -15.0351 -14.9690
   -14.9508 -14.9446 -14.8861 -14.8832 -14.8111 -14.7843  -7.6642  -7.6176
    -7.5758  -7.5329  -7.5260  -7.4863  -7.4404  -7.1620  -7.1314  -7.1308
    -7.1177  -7.0830  -7.0439  -7.0188  -6.9957  -6.9769  -6.9052  -6.9025
    -6.8572  -6.8495  -6.8121  -6.7784  -6.7582  -6.7254  -6.6714  -6.6429
    -6.6289  -6.6096  -6.6002  -6.5552  -6.5458  -6.5454  -6.5271  -6.5245
    -6.4730  -6.4657  -6.4503  -6.4219  -6.4160  -6.4045  -6.3770  -6.3507
    -6.3431  -6.2983  -6.2964  -6.2932  -6.2534  -6.1861  -6.1476  -6.1358
    -6.1302  -6.0567  -6.0445  -6.0242  -6.0009  -5.9937  -5.9459  -5.9369
    -5.9356  -5.9272  -5.8849  -5.8801  -5.8560  -5.8120  -5.7945  -5.6197
    -5.6048  -5.5932  -5.5778  -5.5694  -5.5522  -5.5487  -5.5312  -5.5036
    -5.5006  -5.4975  -5.4845  -5.4538  -5.4001  -5.3974  -5.3845  -5.3628
    -5.3087  -5.2772  -5.2259  -5.2109  -5.1869  -5.1459  -5.1069  -5.1055
    -5.0956  -5.0612  -5.0250  -5.0176  -4.9820  -4.9787  -4.9655  -4.9588
    -4.9451  -4.9228  -4.9090  -4.8772  -4.8602  -4.8478  -4.8195  -4.8186
    -4.8005  -4.7855  -4.7720  -4.7713  -4.7481  -4.7462  -4.7218  -4.7146
    -4.6932  -4.6765  -4.6763  -4.6324  -4.6309  -4.5720  -4.5613  -4.5538
    -4.5501  -4.5452  -4.4740  -4.4575  -4.4479  -4.4472  -4.4077  -4.3774
    -4.3660  -4.3480  -4.3219  -4.3156  -4.3021  -4.2893  -4.2562  -4.2455
    -4.2338  -4.2193  -4.2094  -4.1722  -4.1105  -4.0730  -4.0685  -4.0560
    -4.0548  -3.9981  -3.9965  -3.9811  -3.9803  -3.9675  -3.9189  -3.8956
    -3.8675  -3.8327  -3.8148  -3.7653  -3.7236  -3.6873  -3.6149  -3.5911
    -1.5506  -1.5443  -1.5184  -1.5087  -1.4980  -1.4814  -1.4656  -1.4576
    -1.4296  -1.4164  -1.4090  -1.4050  -1.3790  -1.3747  -1.3481  -1.3380
    -1.3288  -1.3218  -1.3190  -1.2926  -1.2861  -1.2691  -1.2556  -1.2542
    -1.2484  -1.2286  -1.2073  -1.2037  -1.1940  -1.1751  -1.1425  -1.1276
    -1.1218  -1.1113  -1.1097  -1.0948  -1.0791  -1.0777  -1.0655  -1.0565
    -1.0513  -1.0482  -1.0308  -1.0298  -1.0244  -1.0150  -1.0125  -1.0084
    -0.9904  -0.9845  -0.9732  -0.9669  -0.9525  -0.9303

          k = 0.0000-0.5774 0.0000 (****** PWs)   bands (ev):

   -72.9790 -72.9789 -72.9722 -72.9718 -72.9223 -72.9067 -72.9066 -72.8942
   -72.8928 -72.8928 -72.8342 -72.8342 -72.8185 -72.8184 -72.8155 -72.8151
   -72.7428 -72.7427 -44.3882 -44.3869 -44.3781 -44.3777 -44.3620 -44.3604
   -44.3475 -44.3471 -44.3346 -44.3342 -44.3318 -44.3315 -44.3267 -44.3121
   -44.3120 -44.2995 -44.2981 -44.2981 -44.2919 -44.2886 -44.2840 -44.2839
   -44.2691 -44.2691 -44.2672 -44.2671 -44.2650 -44.2617 -44.2542 -44.2542
   -44.2347 -44.2347 -44.2200 -44.2197 -44.2187 -44.2187 -44.2122 -44.2122
   -44.1954 -44.1954 -44.1930 -44.1929 -44.1866 -44.1862 -44.1836 -44.1835
   -44.1826 -44.1823 -44.1427 -44.1423 -44.1180 -44.1159 -44.1082 -44.1075
   -16.2010 -16.1094 -16.0386 -16.0110 -15.9424 -15.8787 -15.8639 -15.7815
   -15.7184 -15.6243 -15.6026 -15.5556 -15.5493 -15.5022 -15.4972 -15.4448
   -15.4196 -15.4045 -15.3991 -15.3652 -15.3581 -15.3567 -15.3413 -15.3228
   -15.2951 -15.2862 -15.2762 -15.2665 -15.2557 -15.2428 -15.2333 -15.2222
   -15.2099 -15.1962 -15.1947 -15.1758 -15.1707 -15.1499 -15.1473 -15.1335
   -15.1258 -15.1076 -15.0915 -15.0836 -15.0587 -15.0452 -15.0340 -14.9682
   -14.9502 -14.9435 -14.8845 -14.8842 -14.8111 -14.7842  -7.6557  -7.6140
    -7.5570  -7.5203  -7.5128  -7.4526  -7.3897  -7.3481  -7.2761  -7.1242
    -7.0926  -7.0403  -7.0267  -7.0176  -6.9711  -6.9647  -6.9040  -6.8958
    -6.8582  -6.8332  -6.8120  -6.7649  -6.7293  -6.7151  -6.6857  -6.6607
    -6.6533  -6.6326  -6.6170  -6.5943  -6.5587  -6.5502  -6.5223  -6.4915
    -6.4897  -6.4668  -6.4563  -6.4295  -6.4250  -6.3861  -6.3348  -6.3218
    -6.3122  -6.2693  -6.2502  -6.2282  -6.1963  -6.1931  -6.1659  -6.1513
    -6.1304  -6.1103  -6.0955  -6.0800  -6.0441  -6.0271  -5.9751  -5.9618
    -5.9420  -5.8974  -5.8542  -5.8027  -5.8010  -5.6627  -5.6557  -5.6329
    -5.6245  -5.6048  -5.5812  -5.5721  -5.5498  -5.5338  -5.5173  -5.5066
    -5.4804  -5.4670  -5.4510  -5.4240  -5.4164  -5.3758  -5.3518  -5.3214
    -5.2997  -5.2839  -5.2452  -5.2383  -5.2242  -5.2135  -5.1894  -5.1682
    -5.1537  -5.1272  -5.1190  -5.0962  -5.0816  -5.0786  -5.0587  -5.0311
    -5.0069  -4.9543  -4.9364  -4.9319  -4.9221  -4.8896  -4.8748  -4.8599
    -4.8419  -4.8242  -4.8146  -4.7917  -4.7029  -4.6876  -4.6723  -4.6714
    -4.6428  -4.6241  -4.5892  -4.5750  -4.5627  -4.5412  -4.4960  -4.4937
    -4.4854  -4.4688  -4.4452  -4.4435  -4.4244  -4.4093  -4.3942  -4.3437
    -4.3239  -4.3057  -4.2966  -4.2831  -4.2648  -4.2500  -4.2345  -4.2132
    -4.1744  -4.1586  -4.1525  -4.1258  -4.1059  -4.0882  -4.0830  -4.0606
    -4.0587  -4.0331  -4.0074  -3.9838  -3.9604  -3.9524  -3.9473  -3.9088
    -3.9021  -3.8663  -3.8335  -3.8102  -3.7739  -3.7673  -3.7057  -3.6393
    -1.5586  -1.5527  -1.5345  -1.5201  -1.4996  -1.4866  -1.4709  -1.4549
    -1.4436  -1.4229  -1.4055  -1.4003  -1.3790  -1.3641  -1.3566  -1.3376
    -1.3187  -1.3070  -1.2856  -1.2825  -1.2711  -1.2598  -1.2522  -1.2394
    -1.2229  -1.2039  -1.1969  -1.1867  -1.1740  -1.1653  -1.1596  -1.1425
    -1.1374  -1.1330  -1.1239  -1.1106  -1.0991  -1.0873  -1.0794  -1.0733
    -1.0629  -1.0501  -1.0411  -1.0350  -1.0275  -1.0225  -1.0111  -1.0031
    -0.9979  -0.9827  -0.9755  -0.9615  -0.9403  -0.9276

          k = 0.5000-0.2887 0.0000 (****** PWs)   bands (ev):

   -72.9790 -72.9789 -72.9722 -72.9718 -72.9223 -72.9067 -72.9066 -72.8942
   -72.8928 -72.8928 -72.8342 -72.8342 -72.8185 -72.8184 -72.8155 -72.8151
   -72.7428 -72.7427 -44.3882 -44.3869 -44.3781 -44.3777 -44.3620 -44.3604
   -44.3475 -44.3471 -44.3346 -44.3342 -44.3318 -44.3315 -44.3267 -44.3121
   -44.3120 -44.2995 -44.2981 -44.2981 -44.2919 -44.2886 -44.2840 -44.2839
   -44.2691 -44.2691 -44.2672 -44.2671 -44.2650 -44.2617 -44.2542 -44.2542
   -44.2347 -44.2347 -44.2200 -44.2197 -44.2187 -44.2187 -44.2122 -44.2122
   -44.1954 -44.1954 -44.1930 -44.1929 -44.1866 -44.1862 -44.1836 -44.1835
   -44.1826 -44.1823 -44.1427 -44.1423 -44.1180 -44.1159 -44.1082 -44.1075
   -16.1948 -16.1289 -16.0358 -15.9850 -15.9487 -15.8857 -15.8653 -15.7916
   -15.6904 -15.6592 -15.5859 -15.5608 -15.5504 -15.5059 -15.4982 -15.4462
   -15.4122 -15.3982 -15.3978 -15.3564 -15.3537 -15.3463 -15.3434 -15.3245
   -15.2981 -15.2938 -15.2737 -15.2683 -15.2676 -15.2496 -15.2456 -15.2156
   -15.2139 -15.1903 -15.1855 -15.1761 -15.1717 -15.1513 -15.1507 -15.1260
   -15.1223 -15.1147 -15.0888 -15.0846 -15.0589 -15.0464 -15.0315 -14.9674
   -14.9508 -14.9435 -14.8862 -14.8827 -14.8112 -14.7841  -7.6511  -7.6218
    -7.5385  -7.5352  -7.4841  -7.4552  -7.4444  -7.3111  -7.2941  -7.1253
    -7.0834  -7.0476  -7.0064  -7.0047  -6.9818  -6.9721  -6.9072  -6.8928
    -6.8486  -6.8365  -6.8218  -6.7547  -6.7261  -6.7101  -6.7038  -6.6849
    -6.6564  -6.6466  -6.6342  -6.5749  -6.5744  -6.5643  -6.5354  -6.4941
    -6.4613  -6.4436  -6.4178  -6.4090  -6.3870  -6.3693  -6.3547  -6.3254
    -6.2976  -6.2930  -6.2740  -6.2301  -6.2250  -6.1910  -6.1589  -6.1496
    -6.1414  -6.1170  -6.0832  -6.0582  -5.9954  -5.9901  -5.9868  -5.9729
    -5.9500  -5.9330  -5.9206  -5.8109  -5.7689  -5.6950  -5.6701  -5.6549
    -5.6289  -5.5906  -5.5618  -5.5605  -5.5575  -5.5311  -5.5033  -5.4872
    -5.4852  -5.4717  -5.4655  -5.4372  -5.4092  -5.4057  -5.3688  -5.2986
    -5.2894  -5.2640  -5.2483  -5.2229  -5.2191  -5.2051  -5.1832  -5.1772
    -5.1558  -5.1419  -5.1289  -5.0993  -5.0729  -5.0719  -5.0347  -5.0233
    -5.0066  -4.9666  -4.9563  -4.9359  -4.9164  -4.9100  -4.8594  -4.8465
    -4.8353  -4.8191  -4.8189  -4.7018  -4.7015  -4.6960  -4.6766  -4.6603
    -4.6519  -4.6376  -4.6213  -4.6068  -4.5627  -4.5377  -4.5183  -4.5175
    -4.4981  -4.4533  -4.4305  -4.4255  -4.4035  -4.3902  -4.3738  -4.3468
    -4.3329  -4.3190  -4.2882  -4.2836  -4.2718  -4.2414  -4.2390  -4.2340
    -4.2113  -4.1883  -4.1567  -4.1190  -4.0960  -4.0832  -4.0731  -4.0447
    -4.0359  -4.0343  -4.0234  -3.9890  -3.9603  -3.9532  -3.9476  -3.9257
    -3.9075  -3.8395  -3.8394  -3.8283  -3.8161  -3.6940  -3.6881  -3.6634
    -1.5671  -1.5595  -1.5321  -1.5150  -1.4995  -1.4968  -1.4708  -1.4514
    -1.4383  -1.4213  -1.3996  -1.3984  -1.3863  -1.3644  -1.3544  -1.3373
    -1.3101  -1.2975  -1.2878  -1.2745  -1.2653  -1.2483  -1.2465  -1.2376
    -1.2311  -1.2136  -1.1998  -1.1938  -1.1773  -1.1712  -1.1624  -1.1502
    -1.1376  -1.1188  -1.1143  -1.1103  -1.1011  -1.0903  -1.0878  -1.0844
    -1.0795  -1.0530  -1.0404  -1.0303  -1.0248  -1.0240  -1.0188  -1.0061
    -0.9974  -0.9775  -0.9706  -0.9663  -0.9376  -0.9192

          k =-0.5000-0.2887 0.0000 (****** PWs)   bands (ev):

   -72.9790 -72.9789 -72.9722 -72.9718 -72.9223 -72.9067 -72.9066 -72.8942
   -72.8928 -72.8928 -72.8342 -72.8342 -72.8185 -72.8184 -72.8155 -72.8151
   -72.7428 -72.7427 -44.3882 -44.3869 -44.3781 -44.3777 -44.3620 -44.3604
   -44.3475 -44.3471 -44.3346 -44.3342 -44.3318 -44.3315 -44.3267 -44.3121
   -44.3120 -44.2995 -44.2981 -44.2981 -44.2919 -44.2886 -44.2840 -44.2839
   -44.2691 -44.2691 -44.2672 -44.2671 -44.2650 -44.2617 -44.2542 -44.2542
   -44.2347 -44.2347 -44.2200 -44.2197 -44.2187 -44.2187 -44.2122 -44.2122
   -44.1954 -44.1954 -44.1930 -44.1929 -44.1866 -44.1862 -44.1836 -44.1835
   -44.1826 -44.1823 -44.1427 -44.1423 -44.1180 -44.1159 -44.1082 -44.1075
   -16.2010 -16.1094 -16.0385 -16.0110 -15.9425 -15.8788 -15.8638 -15.7815
   -15.7184 -15.6244 -15.6026 -15.5555 -15.5492 -15.5022 -15.4974 -15.4447
   -15.4198 -15.4044 -15.3989 -15.3654 -15.3578 -15.3568 -15.3413 -15.3227
   -15.2954 -15.2861 -15.2762 -15.2665 -15.2557 -15.2427 -15.2333 -15.2222
   -15.2098 -15.1962 -15.1947 -15.1758 -15.1707 -15.1499 -15.1473 -15.1335
   -15.1258 -15.1075 -15.0915 -15.0835 -15.0587 -15.0452 -15.0340 -14.9682
   -14.9502 -14.9435 -14.8845 -14.8842 -14.8111 -14.7842  -7.6557  -7.6141
    -7.5568  -7.5204  -7.5128  -7.4526  -7.3899  -7.3480  -7.2761  -7.1241
    -7.0926  -7.0403  -7.0267  -7.0176  -6.9710  -6.9648  -6.9040  -6.8957
    -6.8582  -6.8331  -6.8121  -6.7647  -6.7295  -6.7153  -6.6854  -6.6611
    -6.6533  -6.6321  -6.6172  -6.5942  -6.5586  -6.5503  -6.5222  -6.4916
    -6.4893  -6.4666  -6.4564  -6.4296  -6.4255  -6.3862  -6.3348  -6.3215
    -6.3125  -6.2694  -6.2504  -6.2278  -6.1963  -6.1933  -6.1659  -6.1513
    -6.1302  -6.1102  -6.0956  -6.0794  -6.0442  -6.0279  -5.9752  -5.9618
    -5.9417  -5.8973  -5.8540  -5.8026  -5.8011  -5.6632  -5.6552  -5.6324
    -5.6244  -5.6067  -5.5828  -5.5722  -5.5495  -5.5336  -5.5159  -5.5052
    -5.4798  -5.4673  -5.4523  -5.4240  -5.4161  -5.3757  -5.3516  -5.3215
    -5.2996  -5.2846  -5.2456  -5.2386  -5.2232  -5.2137  -5.1892  -5.1684
    -5.1530  -5.1270  -5.1193  -5.0962  -5.0818  -5.0789  -5.0589  -5.0309
    -5.0064  -4.9544  -4.9366  -4.9322  -4.9220  -4.8894  -4.8747  -4.8597
    -4.8418  -4.8248  -4.8150  -4.7919  -4.7028  -4.6873  -4.6723  -4.6710
    -4.6428  -4.6242  -4.5891  -4.5748  -4.5627  -4.5412  -4.4963  -4.4939
    -4.4855  -4.4685  -4.4454  -4.4435  -4.4246  -4.4094  -4.3944  -4.3436
    -4.3238  -4.3056  -4.2965  -4.2834  -4.2646  -4.2500  -4.2344  -4.2131
    -4.1743  -4.1587  -4.1526  -4.1259  -4.1058  -4.0883  -4.0831  -4.0606
    -4.0586  -4.0330  -4.0073  -3.9837  -3.9604  -3.9524  -3.9474  -3.9089
    -3.9019  -3.8663  -3.8336  -3.8101  -3.7740  -3.7675  -3.7055  -3.6394
    -1.5579  -1.5547  -1.5307  -1.5260  -1.5002  -1.4789  -1.4701  -1.4547
    -1.4436  -1.4231  -1.4120  -1.3980  -1.3777  -1.3689  -1.3565  -1.3352
    -1.3205  -1.3093  -1.2859  -1.2800  -1.2712  -1.2532  -1.2524  -1.2422
    -1.2235  -1.2078  -1.1959  -1.1880  -1.1721  -1.1625  -1.1598  -1.1387
    -1.1383  -1.1317  -1.1235  -1.1127  -1.1023  -1.0859  -1.0784  -1.0725
    -1.0662  -1.0492  -1.0416  -1.0368  -1.0272  -1.0214  -1.0108  -1.0049
    -0.9974  -0.9826  -0.9764  -0.9594  -0.9400  -0.9282

     highest occupied, lowest unoccupied level (ev):    -3.3238   -1.5671

!    total energy              =  -24931.16828292 Ry
     total all-electron energy =    -24931.168283 Ry
     estimated scf accuracy    <          7.0E-11 Ry

     The total energy is the sum of the following terms:
     one-electron contribution =  -25177.32255521 Ry
     hartree contribution      =   12523.82582014 Ry
     xc contribution           =    -743.77787616 Ry
     ewald contribution        =    8913.20911809 Ry
     Hubbard energy            =       0.01028495 Ry
     one-center paw contrib.   =  -20447.11307472 Ry

     total magnetization       =    54.00 Bohr mag/cell
     absolute magnetization    =    65.34 Bohr mag/cell

     convergence has been achieved in  12 iterations

     negative rho (up, down):  1.305E-01 1.474E-01

     Forces acting on atoms (cartesian axes, Ry/au):

     atom    1 type  1   force =    -0.00113541   -0.00199558    0.00012091
     atom    2 type  3   force =    -0.00246512   -0.00778498    0.00226496
     atom    3 type  3   force =    -0.00550865   -0.00602016    0.00226520
     atom    4 type  2   force =     0.00487212   -0.02270306   -0.00065662
     atom    5 type  2   force =    -0.00320545   -0.00555911   -0.00949232
     atom    6 type  2   force =    -0.02210350   -0.00713530   -0.00065826
     atom    7 type  2   force =     0.00731212   -0.02442388   -0.00194503
     atom    8 type  2   force =     0.00246935    0.00427617    0.00889108
     atom    9 type  2   force =    -0.02481101   -0.00588394   -0.00194312
     atom   10 type  3   force =    -0.00177871   -0.00209664    0.00022800
     atom   11 type  3   force =    -0.00562214   -0.00546399    0.00214586
     atom   12 type  2   force =     0.00494637    0.00062170   -0.00971018
     atom   13 type  2   force =    -0.00289835   -0.00482916   -0.00926268
     atom   14 type  2   force =    -0.02182149   -0.00648027   -0.00078181
     atom   15 type  2   force =    -0.00561025    0.00087582    0.00924601
     atom   16 type  2   force =     0.00235906    0.00469337    0.00945668
     atom   17 type  2   force =    -0.02497347   -0.00541897   -0.00195901
     atom   18 type  3   force =    -0.00134567   -0.00138991   -0.00052515
     atom   19 type  3   force =    -0.01444187    0.02876714    0.00308889
     atom   20 type  2   force =     0.00466521    0.00073133   -0.00975766
     atom   21 type  2   force =    -0.00418141    0.00236428   -0.00760075
     atom   22 type  2   force =    -0.01977132   -0.00451676    0.00137802
     atom   23 type  2   force =    -0.00560580    0.00077170    0.00953158
     atom   24 type  2   force =    -0.00279672    0.01174676    0.00748427
     atom   25 type  2   force =    -0.02316264    0.00011854   -0.00335622
     atom   26 type  3   force =    -0.00191555   -0.00760801    0.00214505
     atom   27 type  3   force =    -0.00093045   -0.00261010    0.00022985
     atom   28 type  2   force =     0.00529682   -0.02213113   -0.00078006
     atom   29 type  2   force =    -0.00272771   -0.00493452   -0.00926664
     atom   30 type  2   force =    -0.00192759    0.00462129   -0.00970786
     atom   31 type  2   force =     0.00779364   -0.02433201   -0.00196117
     atom   32 type  2   force =     0.00287970    0.00441286    0.00945621
     atom   33 type  2   force =     0.00356045   -0.00442933    0.00924925
     atom   34 type  3   force =    -0.00116732   -0.00194744    0.00011842
     atom   35 type  2   force =     0.00530405    0.00155769   -0.00961796
     atom   36 type  2   force =    -0.00209548   -0.00437155   -0.00894937
     atom   37 type  2   force =    -0.00172530    0.00533441   -0.00986698
     atom   38 type  2   force =    -0.00495340    0.00135196    0.00904092
     atom   39 type  2   force =     0.00303186    0.00450686    0.00974395
     atom   40 type  2   force =     0.00343332   -0.00396180    0.00928594
     atom   41 type  3   force =    -0.00068063   -0.00120350   -0.00063806
     atom   42 type  3   force =    -0.00990703    0.03240298    0.00109821
     atom   43 type  2   force =     0.00519027    0.00121093   -0.00990325
     atom   44 type  2   force =    -0.00376813    0.00280693   -0.00757545
     atom   45 type  2   force =    -0.00022023    0.00755315   -0.00794205
     atom   46 type  2   force =    -0.00513941    0.00081811    0.00957024
     atom   47 type  2   force =    -0.00238062    0.01192899    0.00802033
     atom   48 type  2   force =     0.00497941    0.00145623    0.00795459
     atom   49 type  3   force =     0.03213198    0.00187584    0.00308808
     atom   50 type  3   force =    -0.00052777   -0.00186159   -0.00052461
     atom   51 type  2   force =     0.00597382   -0.01937592    0.00137918
     atom   52 type  2   force =     0.00414348   -0.00244340   -0.00760139
     atom   53 type  2   force =    -0.00170385    0.00440281   -0.00976009
     atom   54 type  2   force =     0.01168521   -0.01999594   -0.00335731
     atom   55 type  2   force =     0.01157665    0.00344870    0.00748472
     atom   56 type  2   force =     0.00346563   -0.00447255    0.00953203
     atom   57 type  3   force =     0.03302031    0.00761991    0.00109840
     atom   58 type  3   force =    -0.00069301   -0.00118278   -0.00063804
     atom   59 type  2   force =     0.00665206    0.00359263   -0.00794270
     atom   60 type  2   force =     0.00429227   -0.00186787   -0.00757652
     atom   61 type  2   force =    -0.00175069    0.00476368   -0.00965846
     atom   62 type  2   force =    -0.00122866    0.00504403    0.00795682
     atom   63 type  2   force =     0.01153050    0.00390445    0.00802460
     atom   64 type  2   force =     0.00286921   -0.00407181    0.00932293
     atom   65 type  3   force =     0.03346276    0.00838059    0.00038669
     atom   66 type  3   force =    -0.00947732    0.03316942    0.00038853
     atom   67 type  2   force =     0.00636325    0.00365310   -0.00799761
     atom   68 type  2   force =     0.00304438    0.00527141   -0.00613038
     atom   69 type  2   force =    -0.00002295    0.00732919   -0.00799347
     atom   70 type  2   force =    -0.00133159    0.00475885    0.00826511
     atom   71 type  2   force =     0.00641448    0.01110575    0.00583083
     atom   72 type  2   force =     0.00479390    0.00125347    0.00826588

     Total force =     0.137277     Total SCF correction =     0.000007


     Computing stress (Cartesian axis) and pressure


     negative rho (up, down):  1.305E-01 1.474E-01
          total   stress  (Ry/bohr**3)                   (kbar)     P=        1.83
   0.00001232  -0.00000122   0.00000070            1.81       -0.18        0.10
  -0.00000122   0.00001091   0.00000121           -0.18        1.61        0.18
   0.00000070   0.00000121   0.00001412            0.10        0.18        2.08


     Writing all to output data dir ./Cr_0_0.05/Cr_0_0.save/ :
     XML data file, charge density, pseudopotentials, collected wavefunctions

     init_run     :    205.06s CPU    123.57s WALL (       1 calls)
     electrons    :   3524.87s CPU   1903.50s WALL (       1 calls)
     forces       :   2445.22s CPU   1636.07s WALL (       1 calls)
     stress       :   6101.18s CPU   5045.89s WALL (       1 calls)

     Called by init_run:
     wfcinit      :    186.96s CPU    105.33s WALL (       1 calls)
     potinit      :      3.58s CPU      3.58s WALL (       1 calls)
     hinit0       :      2.18s CPU      2.19s WALL (       1 calls)

     Called by electrons:
     c_bands      :   3077.27s CPU   1635.63s WALL (      13 calls)
     sum_band     :    398.47s CPU    224.56s WALL (      13 calls)
     v_of_rho     :     15.63s CPU     13.31s WALL (      13 calls)
     newd         :     23.63s CPU     22.95s WALL (      13 calls)
     PAW_pot      :      8.64s CPU      6.12s WALL (      13 calls)
     mix_rho      :      2.39s CPU      1.89s WALL (      13 calls)

     Called by c_bands:
     init_us_2    :     22.87s CPU     11.74s WALL (     256 calls)
     init_us_2:cp :     22.87s CPU     11.74s WALL (     256 calls)
     cegterg      :   3050.36s CPU   1619.44s WALL (     104 calls)

     Called by *egterg:
     cdiaghg      :    335.33s CPU    192.94s WALL (     574 calls)
     h_psi        :   1811.23s CPU    935.49s WALL (     590 calls)
     s_psi        :    233.38s CPU    117.61s WALL (     630 calls)
     g_psi        :      6.40s CPU      3.26s WALL (     478 calls)

     Called by h_psi:
     h_psi:calbec :    225.22s CPU    116.74s WALL (     590 calls)
     vloc_psi     :   1357.80s CPU    695.12s WALL (     590 calls)
     add_vuspsi   :    193.89s CPU     97.88s WALL (     590 calls)
     vhpsi        :     28.88s CPU     16.11s WALL (     590 calls)

     General routines
     calbec       :   2399.34s CPU   1243.35s WALL (   56852 calls)
     fft          :     16.94s CPU     16.29s WALL (     365 calls)
     ffts         :      2.18s CPU      1.90s WALL (      52 calls)
     fftw         :   1216.70s CPU    625.75s WALL (  264728 calls)
     interpolate  :      2.62s CPU      2.20s WALL (      26 calls)

     Parallel routines

     Hubbard U routines
     new_ns       :      5.83s CPU      4.16s WALL (      13 calls)
     vhpsi        :     28.88s CPU     16.11s WALL (     590 calls)
     force_hub    :   2413.03s CPU   1617.98s WALL (       1 calls)
                                        0.00s GPU  (       1 calls)
     stres_hub    :   5561.05s CPU   4760.26s WALL (       1 calls)
                                        0.00s GPU  (       1 calls)

     PWSCF        :      3h25m CPU      2h25m WALL


   This run was terminated on:   0:58:52  27Sep2025            

=------------------------------------------------------------------------------=
   JOB DONE.
=------------------------------------------------------------------------------=
[1758931132.332037] [node073:3227979:0]          mpool.c:43   UCX  WARN  object 0x7017540 was not returned to mpool ucp_requests
[1758931132.332056] [node073:3227979:0]          mpool.c:43   UCX  WARN  object 0x7019140 was not returned to mpool ucp_requests
[1758931132.332058] [node073:3227979:0]          mpool.c:43   UCX  WARN  object 0x701a480 was not returned to mpool ucp_requests
[1758931132.332059] [node073:3227979:0]          mpool.c:43   UCX  WARN  object 0x701b440 was not returned to mpool ucp_requests
[1758931132.332061] [node073:3227979:0]          mpool.c:43   UCX  WARN  object 0x7004d00 was not returned to mpool ucp_requests
[1758931132.332062] [node073:3227979:0]          mpool.c:43   UCX  WARN  object 0x7008880 was not returned to mpool ucp_requests
[1758931132.332063] [node073:3227979:0]          mpool.c:43   UCX  WARN  object 0x7009300 was not returned to mpool ucp_requests
[1758931132.332064] [node073:3227979:0]          mpool.c:43   UCX  WARN  object 0x700bd00 was not returned to mpool ucp_requests
[1758931132.332066] [node073:3227979:0]          mpool.c:43   UCX  WARN  object 0x700e8c0 was not returned to mpool ucp_requests
[1758931132.332067] [node073:3227979:0]          mpool.c:43   UCX  WARN  object 0x437bdc0 was not returned to mpool ucp_requests
[1758931132.332068] [node073:3227979:0]          mpool.c:43   UCX  WARN  object 0x437d480 was not returned to mpool ucp_requests
[1758931132.332069] [node073:3227979:0]          mpool.c:43   UCX  WARN  object 0x437db80 was not returned to mpool ucp_requests
[1758931132.332070] [node073:3227979:0]          mpool.c:43   UCX  WARN  object 0x437fb00 was not returned to mpool ucp_requests
[1758931132.332072] [node073:3227979:0]          mpool.c:43   UCX  WARN  object 0x4386400 was not returned to mpool ucp_requests
[1758931132.332073] [node073:3227979:0]          mpool.c:43   UCX  WARN  object 0x4386b00 was not returned to mpool ucp_requests
[1758931132.331470] [node073:3227995:0]          mpool.c:43   UCX  WARN  object 0x69a1080 was not returned to mpool ucp_requests
[1758931132.331489] [node073:3227995:0]          mpool.c:43   UCX  WARN  object 0x69a1240 was not returned to mpool ucp_requests
[1758931132.331491] [node073:3227995:0]          mpool.c:43   UCX  WARN  object 0x69a6800 was not returned to mpool ucp_requests
[1758931132.331493] [node073:3227995:0]          mpool.c:43   UCX  WARN  object 0x6990480 was not returned to mpool ucp_requests
[1758931132.331494] [node073:3227995:0]          mpool.c:43   UCX  WARN  object 0x6990640 was not returned to mpool ucp_requests
[1758931132.331495] [node073:3227995:0]          mpool.c:43   UCX  WARN  object 0x6995c00 was not returned to mpool ucp_requests
[1758931132.331496] [node073:3227995:0]          mpool.c:43   UCX  WARN  object 0x6995dc0 was not returned to mpool ucp_requests
[1758931132.331497] [node073:3227995:0]          mpool.c:43   UCX  WARN  object 0x6996840 was not returned to mpool ucp_requests
[1758931132.331499] [node073:3227995:0]          mpool.c:43   UCX  WARN  object 0x6999cc0 was not returned to mpool ucp_requests
[1758931132.331500] [node073:3227995:0]          mpool.c:43   UCX  WARN  object 0x3d0f840 was not returned to mpool ucp_requests
[1758931132.331501] [node073:3227995:0]          mpool.c:43   UCX  WARN  object 0x3d16300 was not returned to mpool ucp_requests
[1758931132.331502] [node073:3227995:0]          mpool.c:43   UCX  WARN  object 0x3d17d40 was not returned to mpool ucp_requests
[1758931132.331503] [node073:3227995:0]          mpool.c:43   UCX  WARN  object 0x3d18b40 was not returned to mpool ucp_requests
[1758931132.339275] [node073:3227991:0]          mpool.c:43   UCX  WARN  object 0x72efcc0 was not returned to mpool ucp_requests
[1758931132.339294] [node073:3227991:0]          mpool.c:43   UCX  WARN  object 0x72db180 was not returned to mpool ucp_requests
[1758931132.339295] [node073:3227991:0]          mpool.c:43   UCX  WARN  object 0x72e26c0 was not returned to mpool ucp_requests
[1758931132.339297] [node073:3227991:0]          mpool.c:43   UCX  WARN  object 0x4652dc0 was not returned to mpool ucp_requests
[1758931132.339298] [node073:3227991:0]          mpool.c:43   UCX  WARN  object 0x4656cc0 was not returned to mpool ucp_requests
[1758931132.339300] [node073:3227991:0]          mpool.c:43   UCX  WARN  object 0x465db00 was not returned to mpool ucp_requests
[1758931132.339301] [node073:3227991:0]          mpool.c:43   UCX  WARN  object 0x465f380 was not returned to mpool ucp_requests
