
     Program PWSCF v.7.3 starts on 26Sep2025 at 22:34:34 

     This program is part of the open-source Quantum ESPRESSO suite
     for quantum simulation of materials; please cite
         "P. Giannozzi et al., J. Phys.:Condens. Matter 21 395502 (2009);
         "P. Giannozzi et al., J. Phys.:Condens. Matter 29 465901 (2017);
         "P. Giannozzi et al., J. Chem. Phys. 152 154105 (2020);
          URL http://www.quantum-espresso.org", 
     in publications or presentations arising from this work. More details at
     http://www.quantum-espresso.org/quote

     Parallel version (MPI & OpenMP), running on     256 processor cores
     Number of MPI processes:               128
     Threads/MPI process:                     2

     MPI processes distributed on     2 nodes
     437708 MiB available memory on the printing compute node when the environment starts

     Reading input from Cr_0_0.1.in
Warning: card &CELL ignored
Warning: card / ignored
Warning: card &FCP ignored
Warning: card / ignored
Warning: card &RISM ignored
Warning: card / ignored

     Current dimensions of program PWSCF are:
     Max number of different atomic species (ntypx) = 10
     Max number of k-points (npk) =  40000
     Max angular momentum in pseudopotentials (lmaxx) =  4
read_pp_mesh; mismatch in mesh size, discarding the one in header
read_pp_mesh; mismatch in mesh size, discarding the one in header
read_pp_mesh; mismatch in mesh size, discarding the one in header
     file Cr.GGA-PBE-paw.UPF: wavefunction(s)  3S 4S 3P 4P 3D 4D renormalized
     file I.GGA-PBE-paw.UPF: wavefunction(s)  6S 6P renormalized
     file Cr.GGA-PBE-paw.UPF: wavefunction(s)  3S 4S 3P 4P 3D 4D renormalized

     IMPORTANT: XC functional enforced from input :
     Exchange-correlation= PBE
                           (   1   4   3   4   0   0   0)
     Any further DFT definition will be discarded
     Please, verify this is what you really want


     R & G space division:  proc/nbgrp/npool/nimage =     128
     Subspace diagonalization in iterative solution of the eigenvalue problem:
     one sub-group per band group will be used
     ELPA distributed-memory algorithm (size of sub-group:  3*  3 procs)


     Parallelization info
     --------------------
     sticks:   dense  smooth     PW     G-vecs:    dense   smooth      PW
     Min         509     305     78               140391    65241    8388
     Max         510     306     79               140404    65254    8400
     Sum       65263   39121   9985             17971031  8351671 1074593

     Using Slab Decomposition



     bravais-lattice index     =            0
     lattice parameter (alat)  =      39.7293  a.u.
     unit-cell volume          =   72410.5124 (a.u.)^3
     number of atoms/cell      =           72
     number of atomic types    =            3
     number of electrons       =       630.00 (up: 342.00, down: 288.00)
     number of Kohn-Sham states=          342
     kinetic-energy cutoff     =      90.0000  Ry
     charge density cutoff     =     600.0000  Ry
     scf convergence threshold =      1.0E-10
     mixing beta               =       0.3000
     number of iterations used =            8  plain     mixing
     Exchange-correlation= PBE
                           (   1   4   3   4   0   0   0)
     Hubbard projectors: ortho-atomic
     Hubbard parameters of DFT+U (Dudarev formulation) in eV:
     U(Cr1-3d) =  0.0000
     J0(Cr1-3d) =  0.0000
     beta(Cr1-3d) =  0.1000

     Internal variables: lda_plus_u =T, lda_plus_u_kind = 0

     celldm(1)=  39.729285  celldm(2)=   0.000000  celldm(3)=   0.000000
     celldm(4)=   0.000000  celldm(5)=   0.000000  celldm(6)=   0.000000

     crystal axes: (cart. coord. in units of alat)
               a(1) = (   1.000000   0.000000   0.000000 )  
               a(2) = (  -0.500000   0.866025   0.000000 )  
               a(3) = (   0.000000   0.000000   1.333333 )  

     reciprocal axes: (cart. coord. in units 2 pi/alat)
               b(1) = (  1.000000  0.577350 -0.000000 )  
               b(2) = (  0.000000  1.154701  0.000000 )  
               b(3) = (  0.000000 -0.000000  0.750000 )  


     PseudoPot. # 1 for Cr read from file:
     ./Cr.GGA-PBE-paw.UPF
     MD5 check sum: 389087661106aa6caf57455f2e439c97
     Pseudo is Projector augmented-wave + core cor, Zval = 14.0
     Generated using ATOMPAW code
     Shape of augmentation charge: SINC**2
     Using radial grid of 2342 points,  6 beta functions with: 
                l(1) =   0
                l(2) =   0
                l(3) =   1
                l(4) =   1
                l(5) =   2
                l(6) =   2
     Q(r) pseudized with 0 coefficients 


     PseudoPot. # 2 for I  read from file:
     ./I.GGA-PBE-paw.UPF
     MD5 check sum: 736bb4145856fa7ed29d0984862794a4
     Pseudo is Projector augmented-wave + core cor, Zval =  7.0
     Generated using ATOMPAW code
     Shape of augmentation charge: SINC**2
     Using radial grid of 2342 points,  4 beta functions with: 
                l(1) =   0
                l(2) =   0
                l(3) =   1
                l(4) =   1
     Q(r) pseudized with 0 coefficients 


     PseudoPot. # 3 for Cr read from file:
     ./Cr.GGA-PBE-paw.UPF
     MD5 check sum: 389087661106aa6caf57455f2e439c97
     Pseudo is Projector augmented-wave + core cor, Zval = 14.0
     Generated using ATOMPAW code
     Shape of augmentation charge: SINC**2
     Using radial grid of 2342 points,  6 beta functions with: 
                l(1) =   0
                l(2) =   0
                l(3) =   1
                l(4) =   1
                l(5) =   2
                l(6) =   2
     Q(r) pseudized with 0 coefficients 


     atomic species   valence    mass     pseudopotential
     Cr1              14.00    51.99610     Cr( 1.00)
     I                 7.00   126.90447     I ( 1.00)
     Cr               14.00    51.99610     Cr( 1.00)

     Starting magnetic structure 
     atomic species   magnetization
     Cr1             0.214
     I               0.000
     Cr              0.214

     No symmetry found



   Cartesian axes

     site n.     atom                  positions (alat units)
         1        Cr1    tau(   1) = (   0.3271041   0.3777073   0.4295967  )
         2        Cr     tau(   2) = (   0.1635521   0.0944268   0.4295967  )
         3        Cr     tau(   3) = (   0.0000000   0.1888536   0.4295967  )
         4        I      tau(   4) = (   0.2103614  -0.0000006   0.3558127  )
         5        I      tau(   5) = (   0.0583708   0.1011024   0.3558127  )
         6        I      tau(   6) = (  -0.1051802   0.1821787   0.3558127  )
         7        I      tau(   7) = (   0.1167427  -0.0000005   0.5033806  )
         8        I      tau(   8) = (   0.1051802   0.1821786   0.5033806  )
         9        I      tau(   9) = (  -0.0583709   0.1011024   0.5033806  )
        10        Cr     tau(  10) = (  -0.0000000   0.3777073   0.4295967  )
        11        Cr     tau(  11) = (  -0.1635521   0.4721341   0.4295967  )
        12        I      tau(  12) = (   0.0468094   0.2832798   0.3558127  )
        13        I      tau(  13) = (  -0.1051813   0.3843829   0.3558127  )
        14        I      tau(  14) = (  -0.2687322   0.4654591   0.3558127  )
        15        I      tau(  15) = (  -0.0468094   0.2832799   0.5033806  )
        16        I      tau(  16) = (  -0.0583718   0.4654591   0.5033806  )
        17        I      tau(  17) = (  -0.2219229   0.3843829   0.5033806  )
        18        Cr     tau(  18) = (  -0.1635521   0.6609878   0.4295967  )
        19        Cr     tau(  19) = (  -0.3271041   0.7554146   0.4295967  )
        20        I      tau(  20) = (  -0.1167427   0.5665603   0.3558127  )
        21        I      tau(  21) = (  -0.2687333   0.6676634   0.3558127  )
        22        I      tau(  22) = (  -0.4322843   0.7487396   0.3558127  )
        23        I      tau(  23) = (  -0.2103614   0.5665604   0.5033806  )
        24        I      tau(  24) = (  -0.2219239   0.7487396   0.5033806  )
        25        I      tau(  25) = (  -0.3854750   0.6676633   0.5033806  )
        26        Cr     tau(  26) = (   0.4906562   0.0944268   0.4295967  )
        27        Cr     tau(  27) = (   0.3271041   0.1888536   0.4295967  )
        28        I      tau(  28) = (   0.5374655  -0.0000006   0.3558127  )
        29        I      tau(  29) = (   0.3854749   0.1011024   0.3558127  )
        30        I      tau(  30) = (   0.2219239   0.1821787   0.3558127  )
        31        I      tau(  31) = (   0.4438468  -0.0000005   0.5033806  )
        32        I      tau(  32) = (   0.4322844   0.1821786   0.5033806  )
        33        I      tau(  33) = (   0.2687332   0.1011024   0.5033806  )
        34        Cr     tau(  34) = (   0.1635521   0.4721341   0.4295967  )
        35        I      tau(  35) = (   0.3739135   0.2832798   0.3558127  )
        36        I      tau(  36) = (   0.2219229   0.3843829   0.3558127  )
        37        I      tau(  37) = (   0.0583719   0.4654591   0.3558127  )
        38        I      tau(  38) = (   0.2802947   0.2832799   0.5033806  )
        39        I      tau(  39) = (   0.2687323   0.4654591   0.5033806  )
        40        I      tau(  40) = (   0.1051812   0.3843829   0.5033806  )
        41        Cr     tau(  41) = (   0.1635521   0.6609878   0.4295967  )
        42        Cr     tau(  42) = (   0.0000000   0.7554146   0.4295967  )
        43        I      tau(  43) = (   0.2103614   0.5665603   0.3558127  )
        44        I      tau(  44) = (   0.0583708   0.6676634   0.3558127  )
        45        I      tau(  45) = (  -0.1051802   0.7487396   0.3558127  )
        46        I      tau(  46) = (   0.1167427   0.5665604   0.5033806  )
        47        I      tau(  47) = (   0.1051802   0.7487396   0.5033806  )
        48        I      tau(  48) = (  -0.0583709   0.6676633   0.5033806  )
        49        Cr     tau(  49) = (   0.8177603   0.0944268   0.4295967  )
        50        Cr     tau(  50) = (   0.6542082   0.1888536   0.4295967  )
        51        I      tau(  51) = (   0.8645697  -0.0000006   0.3558127  )
        52        I      tau(  52) = (   0.7125790   0.1011024   0.3558127  )
        53        I      tau(  53) = (   0.5490281   0.1821787   0.3558127  )
        54        I      tau(  54) = (   0.7709509  -0.0000005   0.5033806  )
        55        I      tau(  55) = (   0.7593885   0.1821786   0.5033806  )
        56        I      tau(  56) = (   0.5958374   0.1011024   0.5033806  )
        57        Cr     tau(  57) = (   0.6542082   0.3777073   0.4295967  )
        58        Cr     tau(  58) = (   0.4906562   0.4721341   0.4295967  )
        59        I      tau(  59) = (   0.7010176   0.2832798   0.3558127  )
        60        I      tau(  60) = (   0.5490270   0.3843829   0.3558127  )
        61        I      tau(  61) = (   0.3854760   0.4654591   0.3558127  )
        62        I      tau(  62) = (   0.6073989   0.2832799   0.5033806  )
        63        I      tau(  63) = (   0.5958364   0.4654591   0.5033806  )
        64        I      tau(  64) = (   0.4322853   0.3843829   0.5033806  )
        65        Cr     tau(  65) = (   0.4906562   0.6609878   0.4295967  )
        66        Cr     tau(  66) = (   0.3271041   0.7554146   0.4295967  )
        67        I      tau(  67) = (   0.5374655   0.5665603   0.3558127  )
        68        I      tau(  68) = (   0.3854749   0.6676634   0.3558127  )
        69        I      tau(  69) = (   0.2219239   0.7487396   0.3558127  )
        70        I      tau(  70) = (   0.4438468   0.5665604   0.5033806  )
        71        I      tau(  71) = (   0.4322844   0.7487396   0.5033806  )
        72        I      tau(  72) = (   0.2687332   0.6676633   0.5033806  )

     number of k points=     4
                       cart. coord. in units 2pi/alat
        k(    1) = (   0.0000000   0.0000000   0.0000000), wk =   0.2500000
        k(    2) = (   0.0000000  -0.5773503   0.0000000), wk =   0.2500000
        k(    3) = (   0.5000000  -0.2886751   0.0000000), wk =   0.2500000
        k(    4) = (  -0.5000000  -0.2886751   0.0000000), wk =   0.2500000

     Dense  grid: 17971031 G-vectors     FFT dimensions: ( 320, 320, 432)

     Smooth grid:  8351671 G-vectors     FFT dimensions: ( 240, 240, 320)

     Estimated max dynamical RAM per process >       1.67 GB

     Estimated total dynamical RAM >     213.14 GB
     Generating pointlists ...
     new r_m :   0.0531 (alat units)  2.1084 (a.u.) for type    1
     new r_m :   0.0531 (alat units)  2.1084 (a.u.) for type    2
     new r_m :   0.0531 (alat units)  2.1084 (a.u.) for type    3

     The initial density is read from file :
     ./Cr_0_0.1/Cr_0_0.save/charge-density


     negative rho (up, down):  1.304E-01 1.474E-01

     STARTING HUBBARD OCCUPATIONS:

     =================== HUBBARD OCCUPATIONS ===================
     ------------------------ ATOM    1 ------------------------
     Tr[ns(  1)] (up, down, total) =   3.59974  0.76815  4.36789
     Atomic magnetic moment for atom   1 =   2.83159
     SPIN  1
     eigenvalues:
       0.445  0.446  0.901  0.901  0.907
     eigenvectors (columns):
      -0.000  0.000 -0.031 -0.030  0.999
      -0.800  0.188  0.535  0.197  0.022
      -0.188 -0.801  0.197 -0.534 -0.010
       0.556 -0.130  0.770  0.283  0.032
      -0.130 -0.554 -0.284  0.772  0.014
     occupation matrix ns (before diag.):
       0.907  0.000 -0.000  0.000  0.000
       0.000  0.593 -0.000  0.214 -0.000
      -0.000 -0.000  0.594  0.000 -0.213
       0.000  0.214  0.000  0.752  0.000
       0.000 -0.000 -0.213  0.000  0.754
     SPIN  2
     eigenvalues:
       0.078  0.086  0.087  0.258  0.259
     eigenvectors (columns):
      -0.999  0.034 -0.028  0.001 -0.000
      -0.022 -0.542  0.133  0.800 -0.218
       0.011 -0.133 -0.540  0.218  0.802
      -0.033 -0.805  0.197 -0.539  0.146
      -0.016  0.198  0.807  0.146  0.537
     occupation matrix ns (before diag.):
       0.078 -0.000  0.000 -0.000 -0.000
      -0.000  0.204 -0.000 -0.080 -0.000
       0.000 -0.000  0.206 -0.000  0.080
      -0.000 -0.080 -0.000  0.140  0.000
      -0.000 -0.000  0.080  0.000  0.140

     Number of occupied Hubbard levels =    4.3679

     Atomic wfc used for Hubbard projectors are orthogonalized

     Starting wfcs are  756 atomic wfcs
     Checking if some PAW data can be deallocated... 

     total cpu time spent up to now is      126.2 secs

     Self-consistent Calculation

     iteration #  1     ecut=    90.00 Ry     beta= 0.30
     Davidson diagonalization with overlap
     ethr =  1.00E-05,  avg # of iterations =  8.6

     =================== HUBBARD OCCUPATIONS ===================
     ------------------------ ATOM    1 ------------------------
     Tr[ns(  1)] (up, down, total) =   3.57586  0.79148  4.36734
     Atomic magnetic moment for atom   1 =   2.78438
     SPIN  1
     eigenvalues:
       0.434  0.436  0.900  0.900  0.906
     eigenvectors (columns):
      -0.000  0.000 -0.033 -0.033  0.999
      -0.799  0.191  0.535  0.197  0.024
      -0.191 -0.800  0.197 -0.534 -0.011
       0.555 -0.132  0.770  0.283  0.035
      -0.132 -0.553 -0.284  0.772  0.016
     occupation matrix ns (before diag.):
       0.906  0.000 -0.000  0.000  0.000
       0.000  0.586 -0.000  0.218 -0.000
      -0.000 -0.000  0.586  0.000 -0.217
       0.000  0.218  0.000  0.748  0.000
       0.000 -0.000 -0.217  0.000  0.750
     SPIN  2
     eigenvalues:
       0.081  0.089  0.090  0.265  0.266
     eigenvectors (columns):
      -0.999  0.035 -0.029  0.001 -0.000
      -0.022 -0.541  0.133  0.801 -0.217
       0.011 -0.134 -0.539  0.217  0.802
      -0.035 -0.805  0.199 -0.539  0.145
      -0.017  0.199  0.807  0.145  0.537
     occupation matrix ns (before diag.):
       0.082 -0.000  0.000 -0.000 -0.000
      -0.000  0.210 -0.000 -0.082 -0.000
       0.000 -0.000  0.212 -0.000  0.081
      -0.000 -0.082 -0.000  0.144  0.000
      -0.000 -0.000  0.081  0.000  0.144

     Number of occupied Hubbard levels =    4.3673

     Threshold (ethr) on eigenvalues was too large:
     Diagonalizing with lowered threshold

     Davidson diagonalization with overlap
     ethr =  7.32E-09,  avg # of iterations =  5.0

     negative rho (up, down):  1.305E-01 1.474E-01

     total cpu time spent up to now is      677.5 secs

     total energy              =  -24931.15800705 Ry
     estimated scf accuracy    <       0.00004555 Ry

     total magnetization       =    54.00 Bohr mag/cell
     absolute magnetization    =    65.33 Bohr mag/cell

     iteration #  2     ecut=    90.00 Ry     beta= 0.30
     Davidson diagonalization with overlap
     ethr =  7.23E-09,  avg # of iterations =  4.2

     negative rho (up, down):  1.305E-01 1.474E-01

     total cpu time spent up to now is      779.9 secs

     total energy              =  -24931.15801693 Ry
     estimated scf accuracy    <       0.00004096 Ry

     total magnetization       =    54.00 Bohr mag/cell
     absolute magnetization    =    65.33 Bohr mag/cell

     iteration #  3     ecut=    90.00 Ry     beta= 0.30
     Davidson diagonalization with overlap
     ethr =  6.50E-09,  avg # of iterations =  2.9

     negative rho (up, down):  1.305E-01 1.474E-01

     total cpu time spent up to now is      878.5 secs

     total energy              =  -24931.15804463 Ry
     estimated scf accuracy    <       0.00001955 Ry

     total magnetization       =    54.00 Bohr mag/cell
     absolute magnetization    =    65.32 Bohr mag/cell

     iteration #  4     ecut=    90.00 Ry     beta= 0.30
     Davidson diagonalization with overlap
     ethr =  3.10E-09,  avg # of iterations =  5.2

     negative rho (up, down):  1.305E-01 1.474E-01

     total cpu time spent up to now is      996.5 secs

     total energy              =  -24931.15805558 Ry
     estimated scf accuracy    <       0.00000729 Ry

     total magnetization       =    54.00 Bohr mag/cell
     absolute magnetization    =    65.31 Bohr mag/cell

     iteration #  5     ecut=    90.00 Ry     beta= 0.30
     Davidson diagonalization with overlap
     ethr =  1.16E-09,  avg # of iterations =  5.0

     negative rho (up, down):  1.305E-01 1.473E-01

     total cpu time spent up to now is     1118.4 secs

     total energy              =  -24931.15805899 Ry
     estimated scf accuracy    <       0.00000250 Ry

     total magnetization       =    54.00 Bohr mag/cell
     absolute magnetization    =    65.30 Bohr mag/cell

     iteration #  6     ecut=    90.00 Ry     beta= 0.30
     Davidson diagonalization with overlap
     ethr =  3.97E-10,  avg # of iterations =  4.6

     negative rho (up, down):  1.305E-01 1.473E-01

     total cpu time spent up to now is     1232.4 secs

     total energy              =  -24931.15805964 Ry
     estimated scf accuracy    <       0.00000023 Ry

     total magnetization       =    54.00 Bohr mag/cell
     absolute magnetization    =    65.29 Bohr mag/cell

     iteration #  7     ecut=    90.00 Ry     beta= 0.30
     Davidson diagonalization with overlap
     ethr =  3.69E-11,  avg # of iterations =  5.6

     negative rho (up, down):  1.305E-01 1.473E-01

     total cpu time spent up to now is     1375.3 secs

     total energy              =  -24931.15805976 Ry
     estimated scf accuracy    <       0.00000009 Ry

     total magnetization       =    54.00 Bohr mag/cell
     absolute magnetization    =    65.29 Bohr mag/cell

     iteration #  8     ecut=    90.00 Ry     beta= 0.30
     Davidson diagonalization with overlap
     ethr =  1.40E-11,  avg # of iterations =  3.2

     negative rho (up, down):  1.305E-01 1.473E-01

     total cpu time spent up to now is     1483.6 secs

     total energy              =  -24931.15805980 Ry
     estimated scf accuracy    <       0.00000003 Ry

     total magnetization       =    54.00 Bohr mag/cell
     absolute magnetization    =    65.29 Bohr mag/cell

     iteration #  9     ecut=    90.00 Ry     beta= 0.30
     Davidson diagonalization with overlap
     ethr =  5.12E-12,  avg # of iterations =  4.6

     negative rho (up, down):  1.305E-01 1.473E-01

     total cpu time spent up to now is     1618.0 secs

     total energy              =  -24931.15805982 Ry
     estimated scf accuracy    <       0.00000001 Ry

     total magnetization       =    54.00 Bohr mag/cell
     absolute magnetization    =    65.29 Bohr mag/cell

     iteration # 10     ecut=    90.00 Ry     beta= 0.30
     Davidson diagonalization with overlap
     ethr =  1.97E-12,  avg # of iterations =  4.0

     negative rho (up, down):  1.305E-01 1.473E-01

     total cpu time spent up to now is     1732.8 secs

     total energy              =  -24931.15805983 Ry
     estimated scf accuracy    <          3.7E-09 Ry

     total magnetization       =    54.00 Bohr mag/cell
     absolute magnetization    =    65.29 Bohr mag/cell

     iteration # 11     ecut=    90.00 Ry     beta= 0.30
     Davidson diagonalization with overlap
     ethr =  5.91E-13,  avg # of iterations =  3.5

     negative rho (up, down):  1.305E-01 1.473E-01

     total cpu time spent up to now is     1850.2 secs

     total energy              =  -24931.15805983 Ry
     estimated scf accuracy    <          2.4E-09 Ry

     total magnetization       =    54.00 Bohr mag/cell
     absolute magnetization    =    65.29 Bohr mag/cell

     iteration # 12     ecut=    90.00 Ry     beta= 0.30
     Davidson diagonalization with overlap
     ethr =  3.85E-13,  avg # of iterations =  2.6

     negative rho (up, down):  1.305E-01 1.473E-01

     total cpu time spent up to now is     1955.3 secs

     total energy              =  -24931.15805983 Ry
     estimated scf accuracy    <          3.2E-10 Ry

     total magnetization       =    54.00 Bohr mag/cell
     absolute magnetization    =    65.29 Bohr mag/cell

     iteration # 13     ecut=    90.00 Ry     beta= 0.30
     Davidson diagonalization with overlap
     ethr =  1.00E-13,  avg # of iterations =  4.6

     negative rho (up, down):  1.305E-01 1.473E-01

     total cpu time spent up to now is     2083.1 secs

     total energy              =  -24931.15805983 Ry
     estimated scf accuracy    <          3.0E-10 Ry

     total magnetization       =    54.00 Bohr mag/cell
     absolute magnetization    =    65.29 Bohr mag/cell

     iteration # 14     ecut=    90.00 Ry     beta= 0.30
     Davidson diagonalization with overlap
     ethr =  1.00E-13,  avg # of iterations =  2.0

     negative rho (up, down):  1.305E-01 1.473E-01

     Magnetic moment per site  (integrated on atomic sphere of radius R)
     atom   1 (R=0.053)  charge= 12.4119  magn=  2.8613
     atom   2 (R=0.053)  charge= 12.4086  magn=  2.9137
     atom   3 (R=0.053)  charge= 12.4086  magn=  2.9136
     atom   4 (R=0.053)  charge=  4.0328  magn= -0.0666
     atom   5 (R=0.053)  charge=  4.0497  magn= -0.0521
     atom   6 (R=0.053)  charge=  4.0328  magn= -0.0666
     atom   7 (R=0.053)  charge=  4.0248  magn= -0.0723
     atom   8 (R=0.053)  charge=  4.0502  magn= -0.0557
     atom   9 (R=0.053)  charge=  4.0248  magn= -0.0723
     atom  10 (R=0.053)  charge= 12.4124  magn=  2.9204
     atom  11 (R=0.053)  charge= 12.4091  magn=  2.9162
     atom  12 (R=0.053)  charge=  4.0513  magn= -0.0515
     atom  13 (R=0.053)  charge=  4.0498  magn= -0.0517
     atom  14 (R=0.053)  charge=  4.0336  magn= -0.0637
     atom  15 (R=0.053)  charge=  4.0500  magn= -0.0523
     atom  16 (R=0.053)  charge=  4.0513  magn= -0.0522
     atom  17 (R=0.053)  charge=  4.0253  magn= -0.0709
     atom  18 (R=0.053)  charge= 12.4122  magn=  2.9227
     atom  19 (R=0.053)  charge= 12.3252  magn=  3.0168
     atom  20 (R=0.053)  charge=  4.0507  magn= -0.0525
     atom  21 (R=0.053)  charge=  4.0444  magn= -0.0604
     atom  22 (R=0.053)  charge=  4.0302  magn= -0.0695
     atom  23 (R=0.053)  charge=  4.0499  magn= -0.0520
     atom  24 (R=0.053)  charge=  4.0486  magn= -0.0515
     atom  25 (R=0.053)  charge=  4.0214  magn= -0.0769
     atom  26 (R=0.053)  charge= 12.4090  magn=  2.9163
     atom  27 (R=0.053)  charge= 12.4125  magn=  2.9204
     atom  28 (R=0.053)  charge=  4.0336  magn= -0.0637
     atom  29 (R=0.053)  charge=  4.0498  magn= -0.0512
     atom  30 (R=0.053)  charge=  4.0513  magn= -0.0514
     atom  31 (R=0.053)  charge=  4.0253  magn= -0.0709
     atom  32 (R=0.053)  charge=  4.0513  magn= -0.0521
     atom  33 (R=0.053)  charge=  4.0500  magn= -0.0518
     atom  34 (R=0.053)  charge= 12.4129  magn=  2.9234
     atom  35 (R=0.053)  charge=  4.0517  magn= -0.0432
     atom  36 (R=0.053)  charge=  4.0498  magn= -0.0449
     atom  37 (R=0.053)  charge=  4.0520  magn= -0.0490
     atom  38 (R=0.053)  charge=  4.0504  magn= -0.0443
     atom  39 (R=0.053)  charge=  4.0522  magn= -0.0427
     atom  40 (R=0.053)  charge=  4.0506  magn= -0.0506
     atom  41 (R=0.053)  charge= 12.4124  magn=  2.9259
     atom  42 (R=0.053)  charge= 12.3292  magn=  3.0258
     atom  43 (R=0.053)  charge=  4.0514  magn= -0.0503
     atom  44 (R=0.053)  charge=  4.0448  magn= -0.0597
     atom  45 (R=0.053)  charge=  4.0486  magn= -0.0544
     atom  46 (R=0.053)  charge=  4.0508  magn= -0.0500
     atom  47 (R=0.053)  charge=  4.0495  magn= -0.0482
     atom  48 (R=0.053)  charge=  4.0467  magn= -0.0568
     atom  49 (R=0.053)  charge= 12.3252  magn=  3.0168
     atom  50 (R=0.053)  charge= 12.4122  magn=  2.9227
     atom  51 (R=0.053)  charge=  4.0302  magn= -0.0695
     atom  52 (R=0.053)  charge=  4.0444  magn= -0.0604
     atom  53 (R=0.053)  charge=  4.0507  magn= -0.0524
     atom  54 (R=0.053)  charge=  4.0214  magn= -0.0769
     atom  55 (R=0.053)  charge=  4.0486  magn= -0.0515
     atom  56 (R=0.053)  charge=  4.0499  magn= -0.0520
     atom  57 (R=0.053)  charge= 12.3292  magn=  3.0260
     atom  58 (R=0.053)  charge= 12.4125  magn=  2.9259
     atom  59 (R=0.053)  charge=  4.0486  magn= -0.0544
     atom  60 (R=0.053)  charge=  4.0448  magn= -0.0596
     atom  61 (R=0.053)  charge=  4.0512  magn= -0.0447
     atom  62 (R=0.053)  charge=  4.0467  magn= -0.0567
     atom  63 (R=0.053)  charge=  4.0495  magn= -0.0478
     atom  64 (R=0.053)  charge=  4.0505  magn= -0.0445
     atom  65 (R=0.053)  charge= 12.3290  magn=  3.0300
     atom  66 (R=0.053)  charge= 12.3290  magn=  3.0299
     atom  67 (R=0.053)  charge=  4.0480  magn= -0.0551
     atom  68 (R=0.053)  charge=  4.0397  magn= -0.0675
     atom  69 (R=0.053)  charge=  4.0480  magn= -0.0555
     atom  70 (R=0.053)  charge=  4.0471  magn= -0.0558
     atom  71 (R=0.053)  charge=  4.0465  magn= -0.0471
     atom  72 (R=0.053)  charge=  4.0471  magn= -0.0558

     total cpu time spent up to now is     2176.8 secs

     End of self-consistent calculation

     =================== HUBBARD OCCUPATIONS ===================
     ------------------------ ATOM    1 ------------------------
     Tr[ns(  1)] (up, down, total) =   3.56832  0.80333  4.37165
     Atomic magnetic moment for atom   1 =   2.76499
     SPIN  1
     eigenvalues:
       0.430  0.432  0.900  0.900  0.906
     eigenvectors (columns):
      -0.000  0.000 -0.034 -0.033  0.999
      -0.799  0.191  0.535  0.196  0.024
      -0.190 -0.800  0.197 -0.534 -0.011
       0.555 -0.132  0.770  0.283  0.035
      -0.132 -0.553 -0.284  0.772  0.016
     occupation matrix ns (before diag.):
       0.906  0.000 -0.000  0.000  0.000
       0.000  0.583 -0.000  0.220 -0.000
      -0.000 -0.000  0.583  0.000 -0.219
       0.000  0.220  0.000  0.747  0.000
       0.000 -0.000 -0.219  0.000  0.748
     SPIN  2
     eigenvalues:
       0.082  0.090  0.091  0.270  0.271
     eigenvectors (columns):
      -0.999  0.036 -0.030  0.001 -0.000
      -0.023 -0.541  0.134  0.801 -0.216
       0.011 -0.135 -0.539  0.216  0.803
      -0.035 -0.805  0.199 -0.539  0.144
      -0.017  0.200  0.807  0.145  0.537
     occupation matrix ns (before diag.):
       0.082 -0.000  0.000 -0.000 -0.000
      -0.000  0.214 -0.000 -0.083 -0.000
       0.000 -0.000  0.215 -0.000  0.083
      -0.000 -0.083 -0.000  0.146  0.000
      -0.000 -0.000  0.083  0.000  0.146

     Number of occupied Hubbard levels =    4.3717

 ------ SPIN UP ------------


          k = 0.0000 0.0000 0.0000 (****** PWs)   bands (ev):

   -76.1369 -76.1368 -76.0608 -76.0607 -76.0125 -76.0117 -75.9807 -75.9806
   -75.9317 -75.9299 -75.9299 -75.9209 -75.8506 -75.8506 -75.8503 -75.8495
   -75.7724 -75.7723 -47.4875 -47.4865 -47.4631 -47.4620 -47.4577 -47.4573
   -47.4084 -47.4083 -47.3879 -47.3878 -47.3822 -47.3820 -47.3519 -47.3512
   -47.3455 -47.3447 -47.3392 -47.3386 -47.3272 -47.3272 -47.3058 -47.3058
   -47.3013 -47.3013 -47.2701 -47.2695 -47.2695 -47.2638 -47.2630 -47.2630
   -47.2610 -47.2579 -47.2559 -47.2558 -47.2516 -47.2489 -47.1888 -47.1888
   -47.1884 -47.1876 -47.1834 -47.1833 -47.1815 -47.1809 -47.1794 -47.1788
   -47.1762 -47.1762 -47.1101 -47.1098 -47.1063 -47.1043 -47.0972 -47.0970
   -16.2049 -16.0679 -16.0165 -15.9911 -15.9549 -15.8952 -15.8620 -15.7103
   -15.6639 -15.6337 -15.6074 -15.4953 -15.4791 -15.4551 -15.4255 -15.4087
   -15.3806 -15.3555 -15.3468 -15.3335 -15.3326 -15.3113 -15.2941 -15.2755
   -15.2695 -15.2480 -15.2385 -15.2361 -15.2035 -15.1894 -15.1760 -15.1719
   -15.1655 -15.1540 -15.1266 -15.1214 -15.1126 -15.1057 -15.0989 -15.0829
   -15.0765 -15.0641 -15.0313 -15.0224 -15.0069 -14.9957 -14.9860 -14.9100
   -14.8806 -14.8793 -14.8183 -14.8158 -14.7420 -14.7134  -7.9480  -7.8742
    -7.8371  -7.7907  -7.7802  -7.7423  -7.6950  -7.4066  -7.3792  -7.3756
    -7.3655  -7.3295  -7.2906  -7.2644  -7.2337  -7.2190  -7.1427  -7.1356
    -6.9818  -6.9474  -6.9408  -6.8970  -6.8800  -6.8578  -6.8477  -6.8380
    -6.8108  -6.8103  -6.7732  -6.7488  -6.7286  -6.7217  -6.7035  -6.6869
    -6.6834  -6.6713  -6.6483  -6.6403  -6.6282  -6.6029  -6.5880  -6.5875
    -6.5635  -6.5392  -6.5052  -6.4944  -6.4729  -6.4647  -6.4263  -6.4047
    -6.3966  -6.3756  -6.3417  -6.3399  -6.3355  -6.2961  -6.2829  -6.2652
    -6.2543  -6.2329  -6.1925  -6.1625  -6.1523  -6.1216  -6.1179  -6.0788
    -6.0514  -6.0281  -6.0213  -5.9874  -5.9849  -5.9794  -5.9690  -5.9359
    -5.9270  -5.9152  -5.8884  -5.8858  -5.8550  -5.8428  -5.8052  -5.7738
    -5.6801  -5.6505  -5.6269  -5.6187  -5.5731  -5.5159  -5.4967  -5.4704
    -5.4571  -5.4278  -5.3846  -5.3622  -5.3476  -5.3182  -5.2864  -5.2646
    -5.2446  -5.2258  -5.2112  -5.1978  -5.1764  -5.1714  -5.1519  -5.1397
    -5.1246  -5.1202  -5.0616  -5.0446  -5.0249  -5.0195  -5.0183  -5.0063
    -4.9875  -4.9785  -4.9502  -4.9447  -4.9277  -4.9108  -4.8742  -4.8670
    -4.8526  -4.8392  -4.8183  -4.7860  -4.7761  -4.7667  -4.7365  -4.7107
    -4.7053  -4.6933  -4.6840  -4.6760  -4.6751  -4.6263  -4.6084  -4.5529
    -4.5370  -4.5144  -4.4822  -4.4467  -4.4364  -4.4312  -4.3969  -4.3955
    -4.3717  -4.3692  -4.3552  -4.3476  -4.3429  -4.3189  -4.3157  -4.2880
    -4.2817  -4.2357  -4.2184  -4.2135  -4.1850  -4.1806  -4.1536  -4.1253
    -4.1025  -4.0837  -4.0750  -4.0503  -4.0131  -4.0064  -4.0020  -3.9845
    -3.9524  -3.9488  -3.9306  -3.9258  -3.9195  -3.9096  -3.8947  -3.8890
    -3.8825  -3.8780  -3.8741  -3.8501  -3.8385  -3.8333  -3.8275  -3.8252
    -3.8167  -3.8113  -3.7891  -3.7816  -3.7662  -3.7614  -3.7487  -3.7274
    -3.7164  -3.6995  -3.6909  -3.6837  -3.6351  -3.6227  -3.6153  -3.5985
    -3.5960  -3.5754  -3.5019  -3.4951  -3.4882  -3.4692  -3.4395  -3.4314
    -3.4177  -3.3936  -3.3511  -3.3482  -3.3395  -3.3218

          k = 0.0000-0.5774 0.0000 (****** PWs)   bands (ev):

   -76.1369 -76.1368 -76.0608 -76.0607 -76.0125 -76.0117 -75.9807 -75.9806
   -75.9317 -75.9299 -75.9299 -75.9209 -75.8506 -75.8506 -75.8503 -75.8495
   -75.7724 -75.7723 -47.4875 -47.4865 -47.4631 -47.4620 -47.4577 -47.4573
   -47.4084 -47.4083 -47.3879 -47.3878 -47.3822 -47.3820 -47.3519 -47.3512
   -47.3455 -47.3447 -47.3392 -47.3386 -47.3272 -47.3272 -47.3058 -47.3058
   -47.3013 -47.3013 -47.2701 -47.2695 -47.2695 -47.2638 -47.2630 -47.2630
   -47.2610 -47.2579 -47.2559 -47.2558 -47.2516 -47.2489 -47.1888 -47.1888
   -47.1884 -47.1876 -47.1834 -47.1833 -47.1815 -47.1809 -47.1794 -47.1788
   -47.1762 -47.1762 -47.1101 -47.1098 -47.1063 -47.1043 -47.0972 -47.0970
   -16.1938 -16.0987 -16.0245 -15.9979 -15.9275 -15.8641 -15.8454 -15.7598
   -15.6898 -15.5931 -15.5687 -15.5203 -15.5165 -15.4640 -15.4516 -15.3951
   -15.3756 -15.3603 -15.3514 -15.3243 -15.3122 -15.3101 -15.2931 -15.2749
   -15.2522 -15.2413 -15.2305 -15.2175 -15.2064 -15.1963 -15.1817 -15.1725
   -15.1608 -15.1485 -15.1426 -15.1260 -15.1222 -15.1028 -15.1023 -15.0839
   -15.0757 -15.0629 -15.0340 -15.0283 -15.0040 -14.9958 -14.9871 -14.9087
   -14.8799 -14.8789 -14.8169 -14.8166 -14.7419 -14.7133  -7.9330  -7.8809
    -7.8178  -7.7820  -7.7660  -7.7042  -7.6418  -7.5967  -7.5256  -7.3730
    -7.3394  -7.2835  -7.2733  -7.2604  -7.2133  -7.1992  -7.1362  -7.1299
    -6.9739  -6.9478  -6.9352  -6.8957  -6.8738  -6.8650  -6.8372  -6.8358
    -6.8207  -6.8047  -6.7834  -6.7622  -6.7333  -6.7284  -6.7244  -6.7049
    -6.6968  -6.6754  -6.6515  -6.6445  -6.6283  -6.5972  -6.5628  -6.5479
    -6.5263  -6.5126  -6.4889  -6.4818  -6.4553  -6.4408  -6.4247  -6.4129
    -6.3974  -6.3896  -6.3795  -6.3321  -6.3213  -6.2918  -6.2785  -6.2676
    -6.2482  -6.2236  -6.1893  -6.1831  -6.1576  -6.1053  -6.0806  -6.0739
    -6.0568  -6.0403  -6.0199  -5.9980  -5.9792  -5.9756  -5.9587  -5.9187
    -5.9081  -5.8952  -5.8610  -5.8424  -5.8234  -5.7987  -5.7759  -5.7170
    -5.6486  -5.6181  -5.5951  -5.5912  -5.5683  -5.5514  -5.5308  -5.5247
    -5.5073  -5.4883  -5.4671  -5.4459  -5.4365  -5.4053  -5.3876  -5.3627
    -5.3455  -5.3169  -5.3026  -5.2635  -5.2418  -5.2275  -5.1990  -5.1480
    -5.1306  -5.1123  -5.0913  -5.0742  -5.0501  -5.0245  -5.0041  -4.9714
    -4.9501  -4.9153  -4.9037  -4.8930  -4.8760  -4.8519  -4.8120  -4.7991
    -4.7810  -4.7631  -4.7430  -4.7333  -4.7084  -4.6912  -4.6820  -4.6681
    -4.6612  -4.6389  -4.6177  -4.6027  -4.5960  -4.5655  -4.5525  -4.5408
    -4.5336  -4.5236  -4.5015  -4.4904  -4.4699  -4.4426  -4.4396  -4.4336
    -4.4100  -4.4054  -4.3816  -4.3714  -4.3442  -4.3041  -4.2916  -4.2678
    -4.2608  -4.2469  -4.2260  -4.2061  -4.1935  -4.1760  -4.1727  -4.1663
    -4.1555  -4.1419  -4.1162  -4.1073  -4.0833  -4.0620  -4.0390  -3.9997
    -3.9793  -3.9678  -3.9462  -3.9264  -3.9213  -3.9070  -3.8877  -3.8819
    -3.8783  -3.8682  -3.8548  -3.8518  -3.8441  -3.8346  -3.8253  -3.8117
    -3.8059  -3.7883  -3.7833  -3.7766  -3.7658  -3.7486  -3.7228  -3.7076
    -3.6895  -3.6814  -3.6592  -3.6425  -3.6355  -3.6254  -3.6154  -3.6003
    -3.5977  -3.5799  -3.5684  -3.5292  -3.4734  -3.4634  -3.4239  -3.4218
    -3.4072  -3.3958  -3.3704  -3.3512  -3.3407  -3.3259

          k = 0.5000-0.2887 0.0000 (****** PWs)   bands (ev):

   -76.1369 -76.1368 -76.0608 -76.0607 -76.0125 -76.0117 -75.9807 -75.9806
   -75.9317 -75.9299 -75.9299 -75.9209 -75.8506 -75.8506 -75.8503 -75.8495
   -75.7724 -75.7723 -47.4875 -47.4865 -47.4631 -47.4620 -47.4577 -47.4573
   -47.4084 -47.4083 -47.3879 -47.3878 -47.3822 -47.3820 -47.3519 -47.3512
   -47.3455 -47.3447 -47.3392 -47.3386 -47.3272 -47.3272 -47.3058 -47.3058
   -47.3013 -47.3013 -47.2701 -47.2695 -47.2695 -47.2638 -47.2630 -47.2630
   -47.2610 -47.2579 -47.2559 -47.2558 -47.2516 -47.2489 -47.1888 -47.1888
   -47.1884 -47.1876 -47.1834 -47.1833 -47.1815 -47.1809 -47.1794 -47.1788
   -47.1762 -47.1762 -47.1101 -47.1098 -47.1063 -47.1043 -47.0972 -47.0970
   -16.1875 -16.1186 -16.0222 -15.9706 -15.9338 -15.8685 -15.8517 -15.7685
   -15.6567 -15.6293 -15.5557 -15.5250 -15.5195 -15.4715 -15.4496 -15.3967
   -15.3643 -15.3544 -15.3501 -15.3129 -15.3092 -15.3005 -15.2967 -15.2774
   -15.2521 -15.2480 -15.2280 -15.2211 -15.2176 -15.2027 -15.1951 -15.1643
   -15.1626 -15.1445 -15.1389 -15.1257 -15.1223 -15.1044 -15.1032 -15.0770
   -15.0747 -15.0686 -15.0309 -15.0300 -15.0027 -14.9979 -14.9849 -14.9073
   -14.8802 -14.8796 -14.8183 -14.8154 -14.7420 -14.7133  -7.9269  -7.8933
    -7.7952  -7.7916  -7.7449  -7.7046  -7.6976  -7.5589  -7.5435  -7.3741
    -7.3314  -7.2914  -7.2485  -7.2439  -7.2249  -7.2190  -7.1422  -7.1246
    -6.9709  -6.9458  -6.9403  -6.8938  -6.8778  -6.8705  -6.8429  -6.8322
    -6.8259  -6.8112  -6.7995  -6.7664  -6.7639  -6.7531  -6.7099  -6.6968
    -6.6697  -6.6668  -6.6230  -6.6211  -6.5995  -6.5875  -6.5610  -6.5229
    -6.5199  -6.5041  -6.5004  -6.4990  -6.4680  -6.4538  -6.4314  -6.4078
    -6.3913  -6.3744  -6.3727  -6.3595  -6.3086  -6.3061  -6.2874  -6.2797
    -6.2661  -6.2480  -6.1950  -6.1817  -6.1232  -6.1155  -6.0735  -6.0641
    -6.0366  -6.0323  -6.0208  -5.9949  -5.9917  -5.9678  -5.9450  -5.9148
    -5.9089  -5.8988  -5.8973  -5.8709  -5.8628  -5.8418  -5.7920  -5.6705
    -5.6467  -5.6067  -5.5717  -5.5533  -5.5446  -5.5262  -5.5211  -5.5082
    -5.5027  -5.4884  -5.4757  -5.4651  -5.4463  -5.4311  -5.3945  -5.3770
    -5.3649  -5.3450  -5.3296  -5.2640  -5.2261  -5.2013  -5.1818  -5.1522
    -5.1258  -5.0840  -5.0782  -5.0599  -5.0474  -5.0246  -4.9995  -4.9945
    -4.9445  -4.9384  -4.9137  -4.8748  -4.8711  -4.8375  -4.8110  -4.7994
    -4.7834  -4.7774  -4.7342  -4.7319  -4.7155  -4.6988  -4.6856  -4.6646
    -4.6621  -4.6302  -4.6267  -4.6025  -4.5949  -4.5798  -4.5673  -4.5615
    -4.5457  -4.5076  -4.4706  -4.4696  -4.4586  -4.4573  -4.4365  -4.4245
    -4.4162  -4.4053  -4.4047  -4.3848  -4.3558  -4.2926  -4.2849  -4.2735
    -4.2648  -4.2318  -4.2202  -4.2092  -4.1986  -4.1822  -4.1733  -4.1557
    -4.1468  -4.1303  -4.1265  -4.0958  -4.0798  -4.0772  -4.0215  -4.0099
    -3.9861  -3.9658  -3.9385  -3.9303  -3.9113  -3.9090  -3.9050  -3.8919
    -3.8805  -3.8783  -3.8639  -3.8562  -3.8436  -3.8311  -3.8215  -3.8156
    -3.8054  -3.7952  -3.7870  -3.7685  -3.7607  -3.7387  -3.7240  -3.7049
    -3.6905  -3.6839  -3.6657  -3.6492  -3.6290  -3.6219  -3.6212  -3.6086
    -3.5749  -3.5723  -3.5546  -3.5298  -3.4931  -3.4490  -3.4432  -3.4243
    -3.4215  -3.3842  -3.3592  -3.3562  -3.3308  -3.3255

          k =-0.5000-0.2887 0.0000 (****** PWs)   bands (ev):

   -76.1369 -76.1368 -76.0608 -76.0607 -76.0125 -76.0117 -75.9807 -75.9806
   -75.9317 -75.9299 -75.9299 -75.9209 -75.8506 -75.8506 -75.8503 -75.8495
   -75.7724 -75.7723 -47.4875 -47.4865 -47.4631 -47.4620 -47.4577 -47.4573
   -47.4084 -47.4083 -47.3879 -47.3878 -47.3822 -47.3820 -47.3519 -47.3512
   -47.3455 -47.3447 -47.3392 -47.3386 -47.3272 -47.3272 -47.3058 -47.3058
   -47.3013 -47.3013 -47.2701 -47.2695 -47.2695 -47.2638 -47.2630 -47.2630
   -47.2610 -47.2579 -47.2559 -47.2558 -47.2516 -47.2489 -47.1888 -47.1888
   -47.1884 -47.1876 -47.1834 -47.1833 -47.1815 -47.1809 -47.1794 -47.1788
   -47.1762 -47.1762 -47.1101 -47.1098 -47.1063 -47.1043 -47.0972 -47.0970
   -16.1938 -16.0986 -16.0247 -15.9980 -15.9274 -15.8640 -15.8454 -15.7599
   -15.6898 -15.5932 -15.5686 -15.5207 -15.5163 -15.4635 -15.4516 -15.3951
   -15.3754 -15.3607 -15.3517 -15.3241 -15.3125 -15.3101 -15.2929 -15.2750
   -15.2515 -15.2414 -15.2307 -15.2176 -15.2063 -15.1963 -15.1819 -15.1725
   -15.1608 -15.1486 -15.1425 -15.1260 -15.1221 -15.1029 -15.1023 -15.0838
   -15.0757 -15.0630 -15.0339 -15.0284 -15.0039 -14.9959 -14.9871 -14.9087
   -14.8799 -14.8789 -14.8169 -14.8166 -14.7419 -14.7133  -7.9331  -7.8807
    -7.8181  -7.7819  -7.7660  -7.7045  -7.6412  -7.5969  -7.5256  -7.3729
    -7.3394  -7.2840  -7.2732  -7.2603  -7.2131  -7.1991  -7.1361  -7.1300
    -6.9739  -6.9474  -6.9354  -6.8965  -6.8725  -6.8661  -6.8362  -6.8353
    -6.8213  -6.8060  -6.7825  -6.7628  -6.7334  -6.7288  -6.7237  -6.7050
    -6.6972  -6.6755  -6.6517  -6.6443  -6.6285  -6.5966  -6.5631  -6.5473
    -6.5247  -6.5130  -6.4863  -6.4832  -6.4570  -6.4416  -6.4260  -6.4112
    -6.3971  -6.3890  -6.3811  -6.3325  -6.3214  -6.2916  -6.2794  -6.2687
    -6.2467  -6.2236  -6.1896  -6.1820  -6.1583  -6.1091  -6.0821  -6.0693
    -6.0500  -6.0385  -6.0194  -5.9983  -5.9814  -5.9801  -5.9597  -5.9180
    -5.9082  -5.8946  -5.8610  -5.8432  -5.8228  -5.7997  -5.7771  -5.7159
    -5.6475  -5.6193  -5.5975  -5.5879  -5.5714  -5.5527  -5.5278  -5.5235
    -5.5074  -5.4879  -5.4664  -5.4457  -5.4375  -5.4062  -5.3863  -5.3625
    -5.3455  -5.3179  -5.3028  -5.2651  -5.2417  -5.2253  -5.1994  -5.1475
    -5.1333  -5.1130  -5.0917  -5.0728  -5.0499  -5.0220  -5.0046  -4.9710
    -4.9508  -4.9149  -4.9042  -4.8937  -4.8751  -4.8496  -4.8122  -4.8000
    -4.7781  -4.7647  -4.7441  -4.7322  -4.7075  -4.6888  -4.6827  -4.6706
    -4.6645  -4.6406  -4.6164  -4.6039  -4.5966  -4.5656  -4.5531  -4.5395
    -4.5343  -4.5241  -4.5040  -4.4887  -4.4699  -4.4460  -4.4416  -4.4301
    -4.4056  -4.4023  -4.3793  -4.3741  -4.3429  -4.3036  -4.2906  -4.2721
    -4.2603  -4.2497  -4.2244  -4.2055  -4.1937  -4.1757  -4.1708  -4.1659
    -4.1564  -4.1460  -4.1167  -4.1080  -4.0786  -4.0616  -4.0400  -4.0000
    -3.9787  -3.9632  -3.9487  -3.9309  -3.9193  -3.9049  -3.8930  -3.8813
    -3.8775  -3.8677  -3.8541  -3.8476  -3.8434  -3.8357  -3.8249  -3.8178
    -3.8082  -3.7876  -3.7837  -3.7727  -3.7635  -3.7499  -3.7252  -3.7106
    -3.6859  -3.6801  -3.6577  -3.6455  -3.6337  -3.6252  -3.6144  -3.6017
    -3.5980  -3.5771  -3.5696  -3.5311  -3.4755  -3.4621  -3.4232  -3.4187
    -3.4098  -3.3958  -3.3691  -3.3514  -3.3429  -3.3249

 ------ SPIN DOWN ----------


          k = 0.0000 0.0000 0.0000 (****** PWs)   bands (ev):

   -72.9789 -72.9787 -72.9721 -72.9713 -72.9492 -72.9067 -72.9064 -72.8938
   -72.8927 -72.8927 -72.8342 -72.8341 -72.8184 -72.8183 -72.8154 -72.8147
   -72.7427 -72.7426 -44.3881 -44.3868 -44.3780 -44.3772 -44.3619 -44.3602
   -44.3529 -44.3474 -44.3466 -44.3344 -44.3338 -44.3317 -44.3313 -44.3177
   -44.3144 -44.3121 -44.3118 -44.2990 -44.2981 -44.2980 -44.2839 -44.2837
   -44.2691 -44.2690 -44.2671 -44.2670 -44.2645 -44.2613 -44.2541 -44.2541
   -44.2347 -44.2346 -44.2199 -44.2193 -44.2187 -44.2185 -44.2121 -44.2121
   -44.1953 -44.1953 -44.1929 -44.1928 -44.1865 -44.1858 -44.1836 -44.1834
   -44.1825 -44.1819 -44.1426 -44.1422 -44.1179 -44.1158 -44.1082 -44.1074
   -16.2115 -16.0788 -16.0316 -16.0021 -15.9699 -15.9089 -15.8812 -15.7339
   -15.6896 -15.6623 -15.6378 -15.5367 -15.5153 -15.5029 -15.4611 -15.4503
   -15.4281 -15.4031 -15.3922 -15.3734 -15.3725 -15.3575 -15.3430 -15.3205
   -15.3174 -15.2949 -15.2867 -15.2844 -15.2514 -15.2361 -15.2263 -15.2201
   -15.2129 -15.2017 -15.1747 -15.1742 -15.1633 -15.1499 -15.1445 -15.1330
   -15.1277 -15.1088 -15.0894 -15.0740 -15.0623 -15.0435 -15.0350 -14.9689
   -14.9508 -14.9445 -14.8861 -14.8831 -14.8111 -14.7842  -7.6639  -7.6176
    -7.5756  -7.5329  -7.5260  -7.4862  -7.4404  -7.1619  -7.1313  -7.1305
    -7.1177  -7.0828  -7.0439  -7.0187  -6.9957  -6.9768  -6.9052  -6.9025
    -6.8570  -6.8490  -6.8117  -6.7784  -6.7581  -6.7254  -6.6717  -6.6428
    -6.6288  -6.6099  -6.6001  -6.5552  -6.5458  -6.5455  -6.5271  -6.5245
    -6.4728  -6.4658  -6.4503  -6.4223  -6.4161  -6.4048  -6.3771  -6.3507
    -6.3431  -6.2982  -6.2964  -6.2932  -6.2534  -6.1863  -6.1476  -6.1360
    -6.1302  -6.0569  -6.0447  -6.0244  -6.0012  -5.9937  -5.9462  -5.9370
    -5.9364  -5.9271  -5.8848  -5.8807  -5.8567  -5.8126  -5.7945  -5.6205
    -5.6049  -5.5932  -5.5783  -5.5700  -5.5554  -5.5490  -5.5315  -5.5048
    -5.5022  -5.4980  -5.4846  -5.4538  -5.4003  -5.3973  -5.3845  -5.3630
    -5.3096  -5.2776  -5.2261  -5.2117  -5.1869  -5.1467  -5.1077  -5.1055
    -5.0956  -5.0613  -5.0249  -5.0177  -4.9821  -4.9787  -4.9653  -4.9590
    -4.9452  -4.9230  -4.9088  -4.8773  -4.8602  -4.8480  -4.8193  -4.8185
    -4.8004  -4.7857  -4.7722  -4.7711  -4.7481  -4.7463  -4.7219  -4.7147
    -4.6931  -4.6767  -4.6763  -4.6323  -4.6309  -4.5722  -4.5613  -4.5537
    -4.5502  -4.5453  -4.4739  -4.4576  -4.4479  -4.4473  -4.4077  -4.3775
    -4.3657  -4.3480  -4.3219  -4.3156  -4.3022  -4.2893  -4.2560  -4.2457
    -4.2340  -4.2192  -4.2094  -4.1724  -4.1105  -4.0729  -4.0683  -4.0560
    -4.0548  -3.9981  -3.9965  -3.9811  -3.9801  -3.9674  -3.9188  -3.8955
    -3.8674  -3.8326  -3.8145  -3.7653  -3.7235  -3.6870  -3.6147  -3.5910
    -1.5546  -1.5495  -1.5307  -1.5165  -1.5103  -1.4848  -1.4712  -1.4576
    -1.4396  -1.4215  -1.4119  -1.4054  -1.3793  -1.3776  -1.3494  -1.3415
    -1.3300  -1.3278  -1.3192  -1.2943  -1.2908  -1.2718  -1.2595  -1.2550
    -1.2523  -1.2302  -1.2093  -1.2058  -1.1960  -1.1818  -1.1454  -1.1356
    -1.1220  -1.1143  -1.1133  -1.0964  -1.0823  -1.0792  -1.0722  -1.0568
    -1.0523  -1.0489  -1.0347  -1.0298  -1.0247  -1.0163  -1.0137  -1.0102
    -0.9910  -0.9850  -0.9740  -0.9680  -0.9533  -0.9312

          k = 0.0000-0.5774 0.0000 (****** PWs)   bands (ev):

   -72.9789 -72.9787 -72.9721 -72.9713 -72.9492 -72.9067 -72.9064 -72.8938
   -72.8927 -72.8927 -72.8342 -72.8341 -72.8184 -72.8183 -72.8154 -72.8147
   -72.7427 -72.7426 -44.3881 -44.3868 -44.3780 -44.3772 -44.3619 -44.3602
   -44.3529 -44.3474 -44.3466 -44.3344 -44.3338 -44.3317 -44.3313 -44.3177
   -44.3144 -44.3121 -44.3118 -44.2990 -44.2981 -44.2980 -44.2839 -44.2837
   -44.2691 -44.2690 -44.2671 -44.2670 -44.2645 -44.2613 -44.2541 -44.2541
   -44.2347 -44.2346 -44.2199 -44.2193 -44.2187 -44.2185 -44.2121 -44.2121
   -44.1953 -44.1953 -44.1929 -44.1928 -44.1865 -44.1858 -44.1836 -44.1834
   -44.1825 -44.1819 -44.1426 -44.1422 -44.1179 -44.1158 -44.1082 -44.1074
   -16.2005 -16.1091 -16.0385 -16.0107 -15.9421 -15.8784 -15.8636 -15.7814
   -15.7183 -15.6240 -15.6025 -15.5555 -15.5489 -15.5019 -15.4968 -15.4447
   -15.4192 -15.4044 -15.3988 -15.3645 -15.3579 -15.3563 -15.3411 -15.3226
   -15.2945 -15.2859 -15.2759 -15.2663 -15.2555 -15.2426 -15.2332 -15.2221
   -15.2097 -15.1961 -15.1945 -15.1757 -15.1706 -15.1498 -15.1471 -15.1333
   -15.1256 -15.1074 -15.0914 -15.0835 -15.0585 -15.0450 -15.0339 -14.9681
   -14.9501 -14.9435 -14.8845 -14.8841 -14.8110 -14.7841  -7.6554  -7.6139
    -7.5571  -7.5202  -7.5129  -7.4524  -7.3896  -7.3481  -7.2761  -7.1241
    -7.0925  -7.0402  -7.0266  -7.0175  -6.9710  -6.9647  -6.9038  -6.8957
    -6.8579  -6.8328  -6.8116  -6.7649  -6.7291  -6.7149  -6.6858  -6.6607
    -6.6531  -6.6328  -6.6171  -6.5945  -6.5588  -6.5502  -6.5224  -6.4916
    -6.4900  -6.4668  -6.4564  -6.4297  -6.4249  -6.3861  -6.3348  -6.3221
    -6.3121  -6.2692  -6.2500  -6.2285  -6.1963  -6.1934  -6.1660  -6.1513
    -6.1307  -6.1106  -6.0955  -6.0807  -6.0442  -6.0272  -5.9753  -5.9618
    -5.9423  -5.8974  -5.8548  -5.8031  -5.8010  -5.6627  -5.6569  -5.6339
    -5.6248  -5.6052  -5.5816  -5.5722  -5.5506  -5.5341  -5.5194  -5.5088
    -5.4812  -5.4670  -5.4511  -5.4240  -5.4167  -5.3758  -5.3520  -5.3215
    -5.2998  -5.2841  -5.2452  -5.2384  -5.2255  -5.2140  -5.1896  -5.1682
    -5.1543  -5.1273  -5.1190  -5.0967  -5.0815  -5.0786  -5.0591  -5.0314
    -5.0073  -4.9542  -4.9364  -4.9322  -4.9222  -4.8897  -4.8750  -4.8600
    -4.8421  -4.8242  -4.8145  -4.7918  -4.7030  -4.6878  -4.6722  -4.6716
    -4.6427  -4.6240  -4.5892  -4.5750  -4.5626  -4.5412  -4.4959  -4.4936
    -4.4852  -4.4690  -4.4452  -4.4435  -4.4243  -4.4093  -4.3941  -4.3439
    -4.3239  -4.3057  -4.2966  -4.2830  -4.2649  -4.2499  -4.2344  -4.2132
    -4.1744  -4.1586  -4.1523  -4.1257  -4.1059  -4.0882  -4.0828  -4.0606
    -4.0585  -4.0330  -4.0075  -3.9837  -3.9603  -3.9523  -3.9472  -3.9088
    -3.9023  -3.8663  -3.8334  -3.8102  -3.7738  -3.7672  -3.7055  -3.6393
    -1.5644  -1.5529  -1.5486  -1.5275  -1.5079  -1.4986  -1.4726  -1.4576
    -1.4466  -1.4244  -1.4091  -1.4059  -1.3802  -1.3659  -1.3583  -1.3437
    -1.3198  -1.3080  -1.2913  -1.2842  -1.2757  -1.2644  -1.2533  -1.2431
    -1.2240  -1.2070  -1.2020  -1.1898  -1.1816  -1.1686  -1.1600  -1.1496
    -1.1386  -1.1342  -1.1251  -1.1136  -1.0999  -1.0903  -1.0807  -1.0748
    -1.0638  -1.0514  -1.0442  -1.0365  -1.0279  -1.0237  -1.0139  -1.0040
    -0.9982  -0.9834  -0.9763  -0.9643  -0.9413  -0.9283

          k = 0.5000-0.2887 0.0000 (****** PWs)   bands (ev):

   -72.9789 -72.9787 -72.9721 -72.9713 -72.9492 -72.9067 -72.9064 -72.8938
   -72.8927 -72.8927 -72.8342 -72.8341 -72.8184 -72.8183 -72.8154 -72.8147
   -72.7427 -72.7426 -44.3881 -44.3868 -44.3780 -44.3772 -44.3619 -44.3602
   -44.3529 -44.3474 -44.3466 -44.3344 -44.3338 -44.3317 -44.3313 -44.3177
   -44.3144 -44.3121 -44.3118 -44.2990 -44.2981 -44.2980 -44.2839 -44.2837
   -44.2691 -44.2690 -44.2671 -44.2670 -44.2645 -44.2613 -44.2541 -44.2541
   -44.2347 -44.2346 -44.2199 -44.2193 -44.2187 -44.2185 -44.2121 -44.2121
   -44.1953 -44.1953 -44.1929 -44.1928 -44.1865 -44.1858 -44.1836 -44.1834
   -44.1825 -44.1819 -44.1426 -44.1422 -44.1179 -44.1158 -44.1082 -44.1074
   -16.1943 -16.1287 -16.0355 -15.9848 -15.9485 -15.8854 -15.8649 -15.7914
   -15.6903 -15.6590 -15.5856 -15.5606 -15.5502 -15.5055 -15.4979 -15.4461
   -15.4119 -15.3979 -15.3976 -15.3562 -15.3532 -15.3458 -15.3431 -15.3243
   -15.2975 -15.2937 -15.2734 -15.2679 -15.2673 -15.2494 -15.2455 -15.2155
   -15.2138 -15.1900 -15.1854 -15.1760 -15.1716 -15.1512 -15.1505 -15.1259
   -15.1222 -15.1145 -15.0887 -15.0845 -15.0587 -15.0462 -15.0315 -14.9673
   -14.9508 -14.9435 -14.8862 -14.8826 -14.8111 -14.7841  -7.6509  -7.6217
    -7.5385  -7.5351  -7.4841  -7.4553  -7.4443  -7.3110  -7.2940  -7.1251
    -7.0834  -7.0475  -7.0064  -7.0047  -6.9818  -6.9720  -6.9071  -6.8927
    -6.8483  -6.8360  -6.8215  -6.7546  -6.7260  -6.7101  -6.7040  -6.6848
    -6.6564  -6.6464  -6.6341  -6.5749  -6.5745  -6.5648  -6.5354  -6.4943
    -6.4613  -6.4438  -6.4181  -6.4089  -6.3871  -6.3693  -6.3547  -6.3254
    -6.2978  -6.2931  -6.2741  -6.2305  -6.2251  -6.1912  -6.1589  -6.1497
    -6.1414  -6.1169  -6.0833  -6.0582  -5.9956  -5.9904  -5.9870  -5.9732
    -5.9502  -5.9330  -5.9208  -5.8123  -5.7689  -5.6953  -5.6708  -5.6552
    -5.6300  -5.5907  -5.5627  -5.5608  -5.5593  -5.5331  -5.5034  -5.4884
    -5.4854  -5.4717  -5.4655  -5.4373  -5.4094  -5.4058  -5.3688  -5.2990
    -5.2896  -5.2643  -5.2485  -5.2229  -5.2194  -5.2068  -5.1837  -5.1771
    -5.1559  -5.1418  -5.1292  -5.0994  -5.0732  -5.0723  -5.0347  -5.0233
    -5.0069  -4.9669  -4.9564  -4.9363  -4.9163  -4.9100  -4.8593  -4.8465
    -4.8356  -4.8192  -4.8188  -4.7021  -4.7014  -4.6958  -4.6768  -4.6601
    -4.6519  -4.6374  -4.6213  -4.6069  -4.5628  -4.5375  -4.5183  -4.5172
    -4.4980  -4.4535  -4.4306  -4.4255  -4.4037  -4.3904  -4.3737  -4.3467
    -4.3329  -4.3189  -4.2882  -4.2837  -4.2719  -4.2413  -4.2388  -4.2340
    -4.2113  -4.1882  -4.1567  -4.1189  -4.0959  -4.0831  -4.0730  -4.0446
    -4.0358  -4.0342  -4.0234  -3.9891  -3.9604  -3.9532  -3.9476  -3.9256
    -3.9075  -3.8395  -3.8393  -3.8284  -3.8161  -3.6938  -3.6881  -3.6632
    -1.5714  -1.5643  -1.5451  -1.5229  -1.5075  -1.5016  -1.4711  -1.4605
    -1.4429  -1.4226  -1.4015  -1.3995  -1.3907  -1.3701  -1.3573  -1.3404
    -1.3150  -1.2997  -1.2900  -1.2766  -1.2678  -1.2494  -1.2476  -1.2432
    -1.2326  -1.2165  -1.2043  -1.1992  -1.1842  -1.1736  -1.1669  -1.1513
    -1.1390  -1.1214  -1.1163  -1.1138  -1.1014  -1.0920  -1.0899  -1.0846
    -1.0816  -1.0545  -1.0430  -1.0342  -1.0265  -1.0246  -1.0190  -1.0083
    -0.9977  -0.9784  -0.9718  -0.9671  -0.9392  -0.9195

          k =-0.5000-0.2887 0.0000 (****** PWs)   bands (ev):

   -72.9789 -72.9787 -72.9721 -72.9713 -72.9492 -72.9067 -72.9064 -72.8938
   -72.8927 -72.8927 -72.8342 -72.8341 -72.8184 -72.8183 -72.8154 -72.8147
   -72.7427 -72.7426 -44.3881 -44.3868 -44.3780 -44.3772 -44.3619 -44.3602
   -44.3529 -44.3474 -44.3466 -44.3344 -44.3338 -44.3317 -44.3313 -44.3177
   -44.3144 -44.3121 -44.3118 -44.2990 -44.2981 -44.2980 -44.2839 -44.2837
   -44.2691 -44.2690 -44.2671 -44.2670 -44.2645 -44.2613 -44.2541 -44.2541
   -44.2347 -44.2346 -44.2199 -44.2193 -44.2187 -44.2185 -44.2121 -44.2121
   -44.1953 -44.1953 -44.1929 -44.1928 -44.1865 -44.1858 -44.1836 -44.1834
   -44.1825 -44.1819 -44.1426 -44.1422 -44.1179 -44.1158 -44.1082 -44.1074
   -16.2005 -16.1092 -16.0382 -16.0107 -15.9423 -15.8786 -15.8636 -15.7812
   -15.7183 -15.6241 -15.6025 -15.5552 -15.5489 -15.5020 -15.4972 -15.4445
   -15.4197 -15.4041 -15.3985 -15.3648 -15.3574 -15.3565 -15.3412 -15.3224
   -15.2951 -15.2856 -15.2759 -15.2664 -15.2555 -15.2425 -15.2332 -15.2221
   -15.2096 -15.1961 -15.1946 -15.1758 -15.1706 -15.1497 -15.1471 -15.1334
   -15.1257 -15.1073 -15.0914 -15.0834 -15.0585 -15.0450 -15.0339 -14.9681
   -14.9501 -14.9435 -14.8845 -14.8841 -14.8110 -14.7841  -7.6554  -7.6141
    -7.5566  -7.5204  -7.5127  -7.4526  -7.3899  -7.3480  -7.2760  -7.1239
    -7.0925  -7.0403  -7.0267  -7.0175  -6.9709  -6.9648  -6.9039  -6.8956
    -6.8579  -6.8327  -6.8117  -6.7645  -6.7296  -6.7154  -6.6853  -6.6613
    -6.6532  -6.6318  -6.6174  -6.5943  -6.5586  -6.5503  -6.5222  -6.4918
    -6.4892  -6.4663  -6.4566  -6.4298  -6.4258  -6.3863  -6.3348  -6.3216
    -6.3125  -6.2695  -6.2506  -6.2278  -6.1962  -6.1938  -6.1661  -6.1514
    -6.1303  -6.1102  -6.0956  -6.0795  -6.0444  -6.0287  -5.9753  -5.9618
    -5.9417  -5.8973  -5.8544  -5.8032  -5.8011  -5.6637  -5.6559  -5.6331
    -5.6245  -5.6091  -5.5847  -5.5723  -5.5499  -5.5336  -5.5165  -5.5059
    -5.4800  -5.4675  -5.4537  -5.4240  -5.4160  -5.3757  -5.3515  -5.3215
    -5.2996  -5.2856  -5.2461  -5.2391  -5.2235  -5.2143  -5.1892  -5.1686
    -5.1530  -5.1270  -5.1196  -5.0967  -5.0819  -5.0790  -5.0595  -5.0310
    -5.0063  -4.9545  -4.9367  -4.9327  -4.9220  -4.8894  -4.8748  -4.8596
    -4.8417  -4.8254  -4.8154  -4.7920  -4.7027  -4.6871  -4.6722  -4.6709
    -4.6427  -4.6242  -4.5890  -4.5746  -4.5626  -4.5411  -4.4967  -4.4940
    -4.4854  -4.4684  -4.4455  -4.4434  -4.4247  -4.4095  -4.3946  -4.3435
    -4.3237  -4.3055  -4.2964  -4.2835  -4.2646  -4.2499  -4.2344  -4.2129
    -4.1742  -4.1587  -4.1526  -4.1258  -4.1057  -4.0883  -4.0830  -4.0605
    -4.0585  -4.0329  -4.0074  -3.9836  -3.9603  -3.9525  -3.9475  -3.9089
    -3.9018  -3.8663  -3.8337  -3.8100  -3.7739  -3.7676  -3.7052  -3.6393
    -1.5658  -1.5565  -1.5419  -1.5351  -1.5076  -1.4859  -1.4716  -1.4572
    -1.4458  -1.4288  -1.4184  -1.4008  -1.3784  -1.3759  -1.3586  -1.3374
    -1.3239  -1.3116  -1.2872  -1.2811  -1.2748  -1.2592  -1.2529  -1.2469
    -1.2258  -1.2126  -1.1998  -1.1931  -1.1735  -1.1659  -1.1635  -1.1403
    -1.1394  -1.1322  -1.1250  -1.1182  -1.1065  -1.0874  -1.0788  -1.0733
    -1.0696  -1.0498  -1.0444  -1.0401  -1.0275  -1.0217  -1.0135  -1.0065
    -0.9974  -0.9832  -0.9781  -0.9604  -0.9410  -0.9296

     highest occupied, lowest unoccupied level (ev):    -3.3218   -1.5714

!    total energy              =  -24931.15805983 Ry
     total all-electron energy =    -24931.158060 Ry
     estimated scf accuracy    <          4.5E-11 Ry

     The total energy is the sum of the following terms:
     one-electron contribution =  -25177.32410802 Ry
     hartree contribution      =   12523.82647691 Ry
     xc contribution           =    -743.77350952 Ry
     ewald contribution        =    8913.20911809 Ry
     Hubbard energy            =       0.02032232 Ry
     one-center paw contrib.   =  -20447.11635961 Ry

     total magnetization       =    54.00 Bohr mag/cell
     absolute magnetization    =    65.29 Bohr mag/cell

     convergence has been achieved in  14 iterations

     negative rho (up, down):  1.305E-01 1.473E-01

     Forces acting on atoms (cartesian axes, Ry/au):

     atom    1 type  1   force =    -0.00114672   -0.00201905    0.00012170
     atom    2 type  3   force =    -0.00247119   -0.00779352    0.00226555
     atom    3 type  3   force =    -0.00551200   -0.00602236    0.00226525
     atom    4 type  2   force =     0.00487333   -0.02270155   -0.00065647
     atom    5 type  2   force =    -0.00320598   -0.00555917   -0.00949256
     atom    6 type  2   force =    -0.02210346   -0.00713427   -0.00065867
     atom    7 type  2   force =     0.00731252   -0.02442279   -0.00194533
     atom    8 type  2   force =     0.00246650    0.00427752    0.00889342
     atom    9 type  2   force =    -0.02481006   -0.00588427   -0.00194278
     atom   10 type  3   force =    -0.00178827   -0.00209748    0.00022702
     atom   11 type  3   force =    -0.00562305   -0.00546396    0.00214578
     atom   12 type  2   force =     0.00494594    0.00061896   -0.00971223
     atom   13 type  2   force =    -0.00289745   -0.00482946   -0.00926240
     atom   14 type  2   force =    -0.02182190   -0.00647962   -0.00078233
     atom   15 type  2   force =    -0.00561066    0.00087555    0.00924614
     atom   16 type  2   force =     0.00236115    0.00469397    0.00945677
     atom   17 type  2   force =    -0.02497227   -0.00541893   -0.00195840
     atom   18 type  3   force =    -0.00134625   -0.00138997   -0.00052514
     atom   19 type  3   force =    -0.01444218    0.02876655    0.00308901
     atom   20 type  2   force =     0.00466533    0.00073173   -0.00975759
     atom   21 type  2   force =    -0.00418126    0.00236417   -0.00760053
     atom   22 type  2   force =    -0.01977070   -0.00451628    0.00137752
     atom   23 type  2   force =    -0.00560570    0.00077179    0.00953141
     atom   24 type  2   force =    -0.00279661    0.01174676    0.00748412
     atom   25 type  2   force =    -0.02316243    0.00011763   -0.00335593
     atom   26 type  3   force =    -0.00190987   -0.00761561    0.00214429
     atom   27 type  3   force =    -0.00093049   -0.00264272    0.00023062
     atom   28 type  2   force =     0.00529650   -0.02213037   -0.00077987
     atom   29 type  2   force =    -0.00272970   -0.00494045   -0.00927060
     atom   30 type  2   force =    -0.00191591    0.00465123   -0.00970778
     atom   31 type  2   force =     0.00779207   -0.02433069   -0.00196153
     atom   32 type  2   force =     0.00286791    0.00444229    0.00945605
     atom   33 type  2   force =     0.00356304   -0.00443554    0.00925293
     atom   34 type  3   force =    -0.00119071   -0.00193413    0.00011665
     atom   35 type  2   force =     0.00513377    0.00192657   -0.00937633
     atom   36 type  2   force =    -0.00169771   -0.00440141   -0.00871025
     atom   37 type  2   force =    -0.00172928    0.00533950   -0.00987043
     atom   38 type  2   force =    -0.00478068    0.00172056    0.00880029
     atom   39 type  2   force =     0.00326043    0.00418042    0.00950221
     atom   40 type  2   force =     0.00346407   -0.00396714    0.00928619
     atom   41 type  3   force =    -0.00068359   -0.00119572   -0.00063683
     atom   42 type  3   force =    -0.00990682    0.03240266    0.00109822
     atom   43 type  2   force =     0.00520927    0.00118710   -0.00990327
     atom   44 type  2   force =    -0.00376839    0.00280522   -0.00757554
     atom   45 type  2   force =    -0.00021997    0.00755317   -0.00794177
     atom   46 type  2   force =    -0.00514495    0.00081946    0.00957449
     atom   47 type  2   force =    -0.00238035    0.01192878    0.00802025
     atom   48 type  2   force =     0.00497929    0.00145623    0.00795438
     atom   49 type  3   force =     0.03213231    0.00187598    0.00308819
     atom   50 type  3   force =    -0.00052435   -0.00186269   -0.00052447
     atom   51 type  2   force =     0.00597417   -0.01937610    0.00137883
     atom   52 type  2   force =     0.00414241   -0.00244377   -0.00760191
     atom   53 type  2   force =    -0.00170137    0.00440374   -0.00976248
     atom   54 type  2   force =     0.01168467   -0.01999618   -0.00335681
     atom   55 type  2   force =     0.01157646    0.00344953    0.00748498
     atom   56 type  2   force =     0.00346619   -0.00447287    0.00953241
     atom   57 type  3   force =     0.03302791    0.00761947    0.00109952
     atom   58 type  3   force =    -0.00067367   -0.00117202   -0.00063775
     atom   59 type  2   force =     0.00665291    0.00359159   -0.00794329
     atom   60 type  2   force =     0.00426104   -0.00187304   -0.00757779
     atom   61 type  2   force =    -0.00197197    0.00444038   -0.00941744
     atom   62 type  2   force =    -0.00122830    0.00504064    0.00795903
     atom   63 type  2   force =     0.01153429    0.00390978    0.00802893
     atom   64 type  2   force =     0.00247705   -0.00409995    0.00908363
     atom   65 type  3   force =     0.03346633    0.00838733    0.00038501
     atom   66 type  3   force =    -0.00947689    0.03317255    0.00038834
     atom   67 type  2   force =     0.00636864    0.00365439   -0.00800217
     atom   68 type  2   force =     0.00304234    0.00527315   -0.00613218
     atom   69 type  2   force =    -0.00002318    0.00732992   -0.00799391
     atom   70 type  2   force =    -0.00135116    0.00473451    0.00826627
     atom   71 type  2   force =     0.00641422    0.01110689    0.00583145
     atom   72 type  2   force =     0.00479541    0.00125540    0.00826787

     Total force =     0.137162     Total SCF correction =     0.000007


     Computing stress (Cartesian axis) and pressure


     negative rho (up, down):  1.305E-01 1.473E-01
          total   stress  (Ry/bohr**3)                   (kbar)     P=        1.82
   0.00001225  -0.00000122   0.00000070            1.80       -0.18        0.10
  -0.00000122   0.00001084   0.00000121           -0.18        1.59        0.18
   0.00000070   0.00000121   0.00001406            0.10        0.18        2.07


     Writing all to output data dir ./Cr_0_0.1/Cr_0_0.save/ :
     XML data file, charge density, pseudopotentials, collected wavefunctions

     init_run     :    206.94s CPU    125.47s WALL (       1 calls)
     electrons    :   3802.69s CPU   2051.57s WALL (       1 calls)
     forces       :   2446.48s CPU   1634.98s WALL (       1 calls)
     stress       :   6088.35s CPU   5035.86s WALL (       1 calls)

     Called by init_run:
     wfcinit      :    188.85s CPU    107.33s WALL (       1 calls)
     potinit      :      3.55s CPU      3.50s WALL (       1 calls)
     hinit0       :      2.24s CPU      2.24s WALL (       1 calls)

     Called by electrons:
     c_bands      :   3281.09s CPU   1738.81s WALL (      15 calls)
     sum_band     :    464.28s CPU    263.03s WALL (      15 calls)
     v_of_rho     :     17.96s CPU     14.71s WALL (      15 calls)
     newd         :     27.51s CPU     26.39s WALL (      15 calls)
     PAW_pot      :      9.84s CPU      7.00s WALL (      15 calls)
     mix_rho      :      2.92s CPU      2.32s WALL (      15 calls)

     Called by c_bands:
     init_us_2    :     25.66s CPU     13.24s WALL (     288 calls)
     init_us_2:cp :     25.66s CPU     13.24s WALL (     288 calls)
     cegterg      :   3250.15s CPU   1720.08s WALL (     120 calls)

     Called by *egterg:
     cdiaghg      :    329.25s CPU    188.29s WALL (     639 calls)
     h_psi        :   1962.12s CPU   1009.56s WALL (     655 calls)
     s_psi        :    252.13s CPU    127.00s WALL (     695 calls)
     g_psi        :      7.18s CPU      3.65s WALL (     527 calls)

     Called by h_psi:
     h_psi:calbec :    244.56s CPU    126.58s WALL (     655 calls)
     vloc_psi     :   1469.17s CPU    749.24s WALL (     655 calls)
     add_vuspsi   :    212.91s CPU    107.35s WALL (     655 calls)
     vhpsi        :     29.56s CPU     16.02s WALL (     655 calls)

     General routines
     calbec       :   2428.31s CPU   1258.57s WALL (   57014 calls)
     fft          :     18.65s CPU     17.69s WALL (     415 calls)
     ffts         :      2.24s CPU      1.97s WALL (      60 calls)
     fftw         :   1308.78s CPU    671.94s WALL (  290740 calls)
     interpolate  :      2.81s CPU      2.34s WALL (      30 calls)

     Parallel routines

     Hubbard U routines
     new_ns       :      6.77s CPU      4.84s WALL (      15 calls)
     vhpsi        :     29.56s CPU     16.02s WALL (     655 calls)
     force_hub    :   2414.43s CPU   1616.94s WALL (       1 calls)
                                        0.00s GPU  (       1 calls)
     stres_hub    :   5549.19s CPU   4750.30s WALL (       1 calls)
                                        0.00s GPU  (       1 calls)

     PWSCF        :      3h29m CPU      2h28m WALL


   This run was terminated on:   1: 2:45  27Sep2025            

=------------------------------------------------------------------------------=
   JOB DONE.
=------------------------------------------------------------------------------=
[1758931365.579007] [node078:2153798:0]          mpool.c:43   UCX  WARN  object 0x68fe240 was not returned to mpool ucp_requests
[1758931365.579027] [node078:2153798:0]          mpool.c:43   UCX  WARN  object 0x68fecc0 was not returned to mpool ucp_requests
[1758931365.579029] [node078:2153798:0]          mpool.c:43   UCX  WARN  object 0x68eaa80 was not returned to mpool ucp_requests
[1758931365.579031] [node078:2153798:0]          mpool.c:43   UCX  WARN  object 0x3cf78c0 was not returned to mpool ucp_requests
[1758931365.579032] [node078:2153798:0]          mpool.c:43   UCX  WARN  object 0x3cfc780 was not returned to mpool ucp_requests
[1758931365.579033] [node078:2153798:0]          mpool.c:43   UCX  WARN  object 0x3cfc940 was not returned to mpool ucp_requests
[1758931365.579034] [node078:2153798:0]          mpool.c:43   UCX  WARN  object 0x3cfd040 was not returned to mpool ucp_requests
[1758931365.579028] [node078:2153802:0]          mpool.c:43   UCX  WARN  object 0x6a8d2c0 was not returned to mpool ucp_requests
[1758931365.579049] [node078:2153802:0]          mpool.c:43   UCX  WARN  object 0x6a8e7c0 was not returned to mpool ucp_requests
[1758931365.579051] [node078:2153802:0]          mpool.c:43   UCX  WARN  object 0x6a8f080 was not returned to mpool ucp_requests
[1758931365.579052] [node078:2153802:0]          mpool.c:43   UCX  WARN  object 0x6a8fe80 was not returned to mpool ucp_requests
[1758931365.579054] [node078:2153802:0]          mpool.c:43   UCX  WARN  object 0x6a90740 was not returned to mpool ucp_requests
[1758931365.579055] [node078:2153802:0]          mpool.c:43   UCX  WARN  object 0x6a7a540 was not returned to mpool ucp_requests
[1758931365.579056] [node078:2153802:0]          mpool.c:43   UCX  WARN  object 0x6a7d100 was not returned to mpool ucp_requests
[1758931365.579057] [node078:2153802:0]          mpool.c:43   UCX  WARN  object 0x6a818c0 was not returned to mpool ucp_requests
[1758931365.579058] [node078:2153802:0]          mpool.c:43   UCX  WARN  object 0x6a84d40 was not returned to mpool ucp_requests
[1758931365.579060] [node078:2153802:0]          mpool.c:43   UCX  WARN  object 0x6a85280 was not returned to mpool ucp_requests
[1758931365.579061] [node078:2153802:0]          mpool.c:43   UCX  WARN  object 0x3e94740 was not returned to mpool ucp_requests
[1758931365.579062] [node078:2153802:0]          mpool.c:43   UCX  WARN  object 0x3e97680 was not returned to mpool ucp_requests
[1758931365.579063] [node078:2153802:0]          mpool.c:43   UCX  WARN  object 0x3e99d00 was not returned to mpool ucp_requests
[1758931365.579054] [node078:2153786:0]          mpool.c:43   UCX  WARN  object 0x6246740 was not returned to mpool ucp_requests
[1758931365.579076] [node078:2153786:0]          mpool.c:43   UCX  WARN  object 0x624a9c0 was not returned to mpool ucp_requests
[1758931365.579078] [node078:2153786:0]          mpool.c:43   UCX  WARN  object 0x624d740 was not returned to mpool ucp_requests
[1758931365.579080] [node078:2153786:0]          mpool.c:43   UCX  WARN  object 0x623a4c0 was not returned to mpool ucp_requests
[1758931365.579081] [node078:2153786:0]          mpool.c:43   UCX  WARN  object 0x623bb80 was not returned to mpool ucp_requests
[1758931365.579082] [node078:2153786:0]          mpool.c:43   UCX  WARN  object 0x623cec0 was not returned to mpool ucp_requests
[1758931365.579083] [node078:2153786:0]          mpool.c:43   UCX  WARN  object 0x623d940 was not returned to mpool ucp_requests
[1758931365.579084] [node078:2153786:0]          mpool.c:43   UCX  WARN  object 0x623db00 was not returned to mpool ucp_requests
[1758931365.579086] [node078:2153786:0]          mpool.c:43   UCX  WARN  object 0x36429c0 was not returned to mpool ucp_requests
[1758931365.579087] [node078:2153786:0]          mpool.c:43   UCX  WARN  object 0x36445c0 was not returned to mpool ucp_requests
[1758931365.579088] [node078:2153786:0]          mpool.c:43   UCX  WARN  object 0x3646fc0 was not returned to mpool ucp_requests
[1758931365.579089] [node078:2153786:0]          mpool.c:43   UCX  WARN  object 0x3647500 was not returned to mpool ucp_requests
[1758931365.579090] [node078:2153786:0]          mpool.c:43   UCX  WARN  object 0x3649100 was not returned to mpool ucp_requests
[1758931365.579091] [node078:2153786:0]          mpool.c:43   UCX  WARN  object 0x364e180 was not returned to mpool ucp_requests
[1758931365.579092] [node078:2153786:0]          mpool.c:43   UCX  WARN  object 0x364e500 was not returned to mpool ucp_requests
