
     Program PWSCF v.7.3 starts on 26Sep2025 at 20:24:33 

     This program is part of the open-source Quantum ESPRESSO suite
     for quantum simulation of materials; please cite
         "P. Giannozzi et al., J. Phys.:Condens. Matter 21 395502 (2009);
         "P. Giannozzi et al., J. Phys.:Condens. Matter 29 465901 (2017);
         "P. Giannozzi et al., J. Chem. Phys. 152 154105 (2020);
          URL http://www.quantum-espresso.org", 
     in publications or presentations arising from this work. More details at
     http://www.quantum-espresso.org/quote

     Parallel version (MPI & OpenMP), running on     256 processor cores
     Number of MPI processes:               128
     Threads/MPI process:                     2

     MPI processes distributed on     2 nodes
     435370 MiB available memory on the printing compute node when the environment starts

     Reading input from Cr_0_-0.05.in
Warning: card &CELL ignored
Warning: card / ignored
Warning: card &FCP ignored
Warning: card / ignored
Warning: card &RISM ignored
Warning: card / ignored

     Current dimensions of program PWSCF are:
     Max number of different atomic species (ntypx) = 10
     Max number of k-points (npk) =  40000
     Max angular momentum in pseudopotentials (lmaxx) =  4
read_pp_mesh; mismatch in mesh size, discarding the one in header
read_pp_mesh; mismatch in mesh size, discarding the one in header
read_pp_mesh; mismatch in mesh size, discarding the one in header
     file Cr.GGA-PBE-paw.UPF: wavefunction(s)  3S 4S 3P 4P 3D 4D renormalized
     file I.GGA-PBE-paw.UPF: wavefunction(s)  6S 6P renormalized
     file Cr.GGA-PBE-paw.UPF: wavefunction(s)  3S 4S 3P 4P 3D 4D renormalized

     IMPORTANT: XC functional enforced from input :
     Exchange-correlation= PBE
                           (   1   4   3   4   0   0   0)
     Any further DFT definition will be discarded
     Please, verify this is what you really want


     R & G space division:  proc/nbgrp/npool/nimage =     128
     Subspace diagonalization in iterative solution of the eigenvalue problem:
     one sub-group per band group will be used
     ELPA distributed-memory algorithm (size of sub-group:  3*  3 procs)


     Parallelization info
     --------------------
     sticks:   dense  smooth     PW     G-vecs:    dense   smooth      PW
     Min         509     305     78               140391    65241    8388
     Max         510     306     79               140404    65254    8400
     Sum       65263   39121   9985             17971031  8351671 1074593

     Using Slab Decomposition



     bravais-lattice index     =            0
     lattice parameter (alat)  =      39.7293  a.u.
     unit-cell volume          =   72410.5124 (a.u.)^3
     number of atoms/cell      =           72
     number of atomic types    =            3
     number of electrons       =       630.00 (up: 342.00, down: 288.00)
     number of Kohn-Sham states=          342
     kinetic-energy cutoff     =      90.0000  Ry
     charge density cutoff     =     600.0000  Ry
     scf convergence threshold =      1.0E-10
     mixing beta               =       0.3000
     number of iterations used =            8  plain     mixing
     Exchange-correlation= PBE
                           (   1   4   3   4   0   0   0)
     Hubbard projectors: ortho-atomic
     Hubbard parameters of DFT+U (Dudarev formulation) in eV:
     U(Cr1-3d) =  0.0000
     J0(Cr1-3d) =  0.0000
     beta(Cr1-3d) = -0.0500

     Internal variables: lda_plus_u =T, lda_plus_u_kind = 0

     celldm(1)=  39.729285  celldm(2)=   0.000000  celldm(3)=   0.000000
     celldm(4)=   0.000000  celldm(5)=   0.000000  celldm(6)=   0.000000

     crystal axes: (cart. coord. in units of alat)
               a(1) = (   1.000000   0.000000   0.000000 )  
               a(2) = (  -0.500000   0.866025   0.000000 )  
               a(3) = (   0.000000   0.000000   1.333333 )  

     reciprocal axes: (cart. coord. in units 2 pi/alat)
               b(1) = (  1.000000  0.577350 -0.000000 )  
               b(2) = (  0.000000  1.154701  0.000000 )  
               b(3) = (  0.000000 -0.000000  0.750000 )  


     PseudoPot. # 1 for Cr read from file:
     ./Cr.GGA-PBE-paw.UPF
     MD5 check sum: 389087661106aa6caf57455f2e439c97
     Pseudo is Projector augmented-wave + core cor, Zval = 14.0
     Generated using ATOMPAW code
     Shape of augmentation charge: SINC**2
     Using radial grid of 2342 points,  6 beta functions with: 
                l(1) =   0
                l(2) =   0
                l(3) =   1
                l(4) =   1
                l(5) =   2
                l(6) =   2
     Q(r) pseudized with 0 coefficients 


     PseudoPot. # 2 for I  read from file:
     ./I.GGA-PBE-paw.UPF
     MD5 check sum: 736bb4145856fa7ed29d0984862794a4
     Pseudo is Projector augmented-wave + core cor, Zval =  7.0
     Generated using ATOMPAW code
     Shape of augmentation charge: SINC**2
     Using radial grid of 2342 points,  4 beta functions with: 
                l(1) =   0
                l(2) =   0
                l(3) =   1
                l(4) =   1
     Q(r) pseudized with 0 coefficients 


     PseudoPot. # 3 for Cr read from file:
     ./Cr.GGA-PBE-paw.UPF
     MD5 check sum: 389087661106aa6caf57455f2e439c97
     Pseudo is Projector augmented-wave + core cor, Zval = 14.0
     Generated using ATOMPAW code
     Shape of augmentation charge: SINC**2
     Using radial grid of 2342 points,  6 beta functions with: 
                l(1) =   0
                l(2) =   0
                l(3) =   1
                l(4) =   1
                l(5) =   2
                l(6) =   2
     Q(r) pseudized with 0 coefficients 


     atomic species   valence    mass     pseudopotential
     Cr1              14.00    51.99610     Cr( 1.00)
     I                 7.00   126.90447     I ( 1.00)
     Cr               14.00    51.99610     Cr( 1.00)

     Starting magnetic structure 
     atomic species   magnetization
     Cr1             0.214
     I               0.000
     Cr              0.214

     No symmetry found



   Cartesian axes

     site n.     atom                  positions (alat units)
         1        Cr1    tau(   1) = (   0.3271041   0.3777073   0.4295967  )
         2        Cr     tau(   2) = (   0.1635521   0.0944268   0.4295967  )
         3        Cr     tau(   3) = (   0.0000000   0.1888536   0.4295967  )
         4        I      tau(   4) = (   0.2103614  -0.0000006   0.3558127  )
         5        I      tau(   5) = (   0.0583708   0.1011024   0.3558127  )
         6        I      tau(   6) = (  -0.1051802   0.1821787   0.3558127  )
         7        I      tau(   7) = (   0.1167427  -0.0000005   0.5033806  )
         8        I      tau(   8) = (   0.1051802   0.1821786   0.5033806  )
         9        I      tau(   9) = (  -0.0583709   0.1011024   0.5033806  )
        10        Cr     tau(  10) = (  -0.0000000   0.3777073   0.4295967  )
        11        Cr     tau(  11) = (  -0.1635521   0.4721341   0.4295967  )
        12        I      tau(  12) = (   0.0468094   0.2832798   0.3558127  )
        13        I      tau(  13) = (  -0.1051813   0.3843829   0.3558127  )
        14        I      tau(  14) = (  -0.2687322   0.4654591   0.3558127  )
        15        I      tau(  15) = (  -0.0468094   0.2832799   0.5033806  )
        16        I      tau(  16) = (  -0.0583718   0.4654591   0.5033806  )
        17        I      tau(  17) = (  -0.2219229   0.3843829   0.5033806  )
        18        Cr     tau(  18) = (  -0.1635521   0.6609878   0.4295967  )
        19        Cr     tau(  19) = (  -0.3271041   0.7554146   0.4295967  )
        20        I      tau(  20) = (  -0.1167427   0.5665603   0.3558127  )
        21        I      tau(  21) = (  -0.2687333   0.6676634   0.3558127  )
        22        I      tau(  22) = (  -0.4322843   0.7487396   0.3558127  )
        23        I      tau(  23) = (  -0.2103614   0.5665604   0.5033806  )
        24        I      tau(  24) = (  -0.2219239   0.7487396   0.5033806  )
        25        I      tau(  25) = (  -0.3854750   0.6676633   0.5033806  )
        26        Cr     tau(  26) = (   0.4906562   0.0944268   0.4295967  )
        27        Cr     tau(  27) = (   0.3271041   0.1888536   0.4295967  )
        28        I      tau(  28) = (   0.5374655  -0.0000006   0.3558127  )
        29        I      tau(  29) = (   0.3854749   0.1011024   0.3558127  )
        30        I      tau(  30) = (   0.2219239   0.1821787   0.3558127  )
        31        I      tau(  31) = (   0.4438468  -0.0000005   0.5033806  )
        32        I      tau(  32) = (   0.4322844   0.1821786   0.5033806  )
        33        I      tau(  33) = (   0.2687332   0.1011024   0.5033806  )
        34        Cr     tau(  34) = (   0.1635521   0.4721341   0.4295967  )
        35        I      tau(  35) = (   0.3739135   0.2832798   0.3558127  )
        36        I      tau(  36) = (   0.2219229   0.3843829   0.3558127  )
        37        I      tau(  37) = (   0.0583719   0.4654591   0.3558127  )
        38        I      tau(  38) = (   0.2802947   0.2832799   0.5033806  )
        39        I      tau(  39) = (   0.2687323   0.4654591   0.5033806  )
        40        I      tau(  40) = (   0.1051812   0.3843829   0.5033806  )
        41        Cr     tau(  41) = (   0.1635521   0.6609878   0.4295967  )
        42        Cr     tau(  42) = (   0.0000000   0.7554146   0.4295967  )
        43        I      tau(  43) = (   0.2103614   0.5665603   0.3558127  )
        44        I      tau(  44) = (   0.0583708   0.6676634   0.3558127  )
        45        I      tau(  45) = (  -0.1051802   0.7487396   0.3558127  )
        46        I      tau(  46) = (   0.1167427   0.5665604   0.5033806  )
        47        I      tau(  47) = (   0.1051802   0.7487396   0.5033806  )
        48        I      tau(  48) = (  -0.0583709   0.6676633   0.5033806  )
        49        Cr     tau(  49) = (   0.8177603   0.0944268   0.4295967  )
        50        Cr     tau(  50) = (   0.6542082   0.1888536   0.4295967  )
        51        I      tau(  51) = (   0.8645697  -0.0000006   0.3558127  )
        52        I      tau(  52) = (   0.7125790   0.1011024   0.3558127  )
        53        I      tau(  53) = (   0.5490281   0.1821787   0.3558127  )
        54        I      tau(  54) = (   0.7709509  -0.0000005   0.5033806  )
        55        I      tau(  55) = (   0.7593885   0.1821786   0.5033806  )
        56        I      tau(  56) = (   0.5958374   0.1011024   0.5033806  )
        57        Cr     tau(  57) = (   0.6542082   0.3777073   0.4295967  )
        58        Cr     tau(  58) = (   0.4906562   0.4721341   0.4295967  )
        59        I      tau(  59) = (   0.7010176   0.2832798   0.3558127  )
        60        I      tau(  60) = (   0.5490270   0.3843829   0.3558127  )
        61        I      tau(  61) = (   0.3854760   0.4654591   0.3558127  )
        62        I      tau(  62) = (   0.6073989   0.2832799   0.5033806  )
        63        I      tau(  63) = (   0.5958364   0.4654591   0.5033806  )
        64        I      tau(  64) = (   0.4322853   0.3843829   0.5033806  )
        65        Cr     tau(  65) = (   0.4906562   0.6609878   0.4295967  )
        66        Cr     tau(  66) = (   0.3271041   0.7554146   0.4295967  )
        67        I      tau(  67) = (   0.5374655   0.5665603   0.3558127  )
        68        I      tau(  68) = (   0.3854749   0.6676634   0.3558127  )
        69        I      tau(  69) = (   0.2219239   0.7487396   0.3558127  )
        70        I      tau(  70) = (   0.4438468   0.5665604   0.5033806  )
        71        I      tau(  71) = (   0.4322844   0.7487396   0.5033806  )
        72        I      tau(  72) = (   0.2687332   0.6676633   0.5033806  )

     number of k points=     4
                       cart. coord. in units 2pi/alat
        k(    1) = (   0.0000000   0.0000000   0.0000000), wk =   0.2500000
        k(    2) = (   0.0000000  -0.5773503   0.0000000), wk =   0.2500000
        k(    3) = (   0.5000000  -0.2886751   0.0000000), wk =   0.2500000
        k(    4) = (  -0.5000000  -0.2886751   0.0000000), wk =   0.2500000

     Dense  grid: 17971031 G-vectors     FFT dimensions: ( 320, 320, 432)

     Smooth grid:  8351671 G-vectors     FFT dimensions: ( 240, 240, 320)

     Estimated max dynamical RAM per process >       1.67 GB

     Estimated total dynamical RAM >     213.14 GB
     Generating pointlists ...
     new r_m :   0.0531 (alat units)  2.1084 (a.u.) for type    1
     new r_m :   0.0531 (alat units)  2.1084 (a.u.) for type    2
     new r_m :   0.0531 (alat units)  2.1084 (a.u.) for type    3

     The initial density is read from file :
     ./Cr_0_-0.05/Cr_0_0.save/charge-density


     negative rho (up, down):  1.304E-01 1.474E-01

     STARTING HUBBARD OCCUPATIONS:

     =================== HUBBARD OCCUPATIONS ===================
     ------------------------ ATOM    1 ------------------------
     Tr[ns(  1)] (up, down, total) =   3.59974  0.76815  4.36789
     Atomic magnetic moment for atom   1 =   2.83159
     SPIN  1
     eigenvalues:
       0.445  0.446  0.901  0.901  0.907
     eigenvectors (columns):
      -0.000  0.000 -0.031 -0.030  0.999
      -0.800  0.188  0.535  0.197  0.022
      -0.188 -0.801  0.197 -0.534 -0.010
       0.556 -0.130  0.770  0.283  0.032
      -0.130 -0.554 -0.284  0.772  0.014
     occupation matrix ns (before diag.):
       0.907  0.000 -0.000  0.000  0.000
       0.000  0.593 -0.000  0.214 -0.000
      -0.000 -0.000  0.594  0.000 -0.213
       0.000  0.214  0.000  0.752  0.000
       0.000 -0.000 -0.213  0.000  0.754
     SPIN  2
     eigenvalues:
       0.078  0.086  0.087  0.258  0.259
     eigenvectors (columns):
      -0.999  0.034 -0.028  0.001 -0.000
      -0.022 -0.542  0.133  0.800 -0.218
       0.011 -0.133 -0.540  0.218  0.802
      -0.033 -0.805  0.197 -0.539  0.146
      -0.016  0.198  0.807  0.146  0.537
     occupation matrix ns (before diag.):
       0.078 -0.000  0.000 -0.000 -0.000
      -0.000  0.204 -0.000 -0.080 -0.000
       0.000 -0.000  0.206 -0.000  0.080
      -0.000 -0.080 -0.000  0.140  0.000
      -0.000 -0.000  0.080  0.000  0.140

     Number of occupied Hubbard levels =    4.3679

     Atomic wfc used for Hubbard projectors are orthogonalized

     Starting wfcs are  756 atomic wfcs
     Checking if some PAW data can be deallocated... 

     total cpu time spent up to now is      131.0 secs

     Self-consistent Calculation

     iteration #  1     ecut=    90.00 Ry     beta= 0.30
     Davidson diagonalization with overlap
     ethr =  1.00E-05,  avg # of iterations =  8.6

     =================== HUBBARD OCCUPATIONS ===================
     ------------------------ ATOM    1 ------------------------
     Tr[ns(  1)] (up, down, total) =   3.61174  0.75675  4.36850
     Atomic magnetic moment for atom   1 =   2.85499
     SPIN  1
     eigenvalues:
       0.450  0.452  0.901  0.901  0.908
     eigenvectors (columns):
      -0.000  0.000 -0.029 -0.029  0.999
      -0.799  0.188  0.534  0.199  0.021
      -0.188 -0.800  0.199 -0.533 -0.009
       0.556 -0.130  0.769  0.286  0.031
      -0.130 -0.554 -0.287  0.770  0.014
     occupation matrix ns (before diag.):
       0.908  0.000 -0.000  0.000  0.000
       0.000  0.597 -0.000  0.211 -0.000
      -0.000 -0.000  0.597  0.000 -0.210
       0.000  0.211  0.000  0.754  0.000
       0.000 -0.000 -0.210  0.000  0.756
     SPIN  2
     eigenvalues:
       0.077  0.084  0.085  0.255  0.256
     eigenvectors (columns):
      -0.999  0.033 -0.028  0.001 -0.000
      -0.021 -0.543  0.132  0.800 -0.218
       0.011 -0.133 -0.541  0.218  0.802
      -0.033 -0.805  0.196 -0.540  0.146
      -0.016  0.197  0.807  0.146  0.537
     occupation matrix ns (before diag.):
       0.077 -0.000  0.000 -0.000 -0.000
      -0.000  0.202 -0.000 -0.079 -0.000
       0.000 -0.000  0.203 -0.000  0.079
      -0.000 -0.079 -0.000  0.137  0.000
      -0.000 -0.000  0.079  0.000  0.138

     Number of occupied Hubbard levels =    4.3685

     Threshold (ethr) on eigenvalues was too large:
     Diagonalizing with lowered threshold

     Davidson diagonalization with overlap
     ethr =  1.96E-09,  avg # of iterations =  5.6

     negative rho (up, down):  1.304E-01 1.475E-01

     total cpu time spent up to now is      733.5 secs

     total energy              =  -24931.18908082 Ry
     estimated scf accuracy    <       0.00001179 Ry

     total magnetization       =    54.00 Bohr mag/cell
     absolute magnetization    =    65.42 Bohr mag/cell

     iteration #  2     ecut=    90.00 Ry     beta= 0.30
     Davidson diagonalization with overlap
     ethr =  1.87E-09,  avg # of iterations =  4.5

     negative rho (up, down):  1.304E-01 1.475E-01

     total cpu time spent up to now is      843.2 secs

     total energy              =  -24931.18908315 Ry
     estimated scf accuracy    <       0.00001136 Ry

     total magnetization       =    54.00 Bohr mag/cell
     absolute magnetization    =    65.43 Bohr mag/cell

     iteration #  3     ecut=    90.00 Ry     beta= 0.30
     Davidson diagonalization with overlap
     ethr =  1.80E-09,  avg # of iterations =  3.5

     negative rho (up, down):  1.304E-01 1.475E-01

     total cpu time spent up to now is      946.3 secs

     total energy              =  -24931.18909001 Ry
     estimated scf accuracy    <       0.00000480 Ry

     total magnetization       =    54.00 Bohr mag/cell
     absolute magnetization    =    65.43 Bohr mag/cell

     iteration #  4     ecut=    90.00 Ry     beta= 0.30
     Davidson diagonalization with overlap
     ethr =  7.61E-10,  avg # of iterations =  5.1

     negative rho (up, down):  1.304E-01 1.475E-01

     total cpu time spent up to now is     1065.3 secs

     total energy              =  -24931.18909248 Ry
     estimated scf accuracy    <       0.00000169 Ry

     total magnetization       =    54.00 Bohr mag/cell
     absolute magnetization    =    65.44 Bohr mag/cell

     iteration #  5     ecut=    90.00 Ry     beta= 0.30
     Davidson diagonalization with overlap
     ethr =  2.68E-10,  avg # of iterations =  5.0

     negative rho (up, down):  1.304E-01 1.475E-01

     total cpu time spent up to now is     1191.4 secs

     total energy              =  -24931.18909324 Ry
     estimated scf accuracy    <       0.00000052 Ry

     total magnetization       =    54.00 Bohr mag/cell
     absolute magnetization    =    65.44 Bohr mag/cell

     iteration #  6     ecut=    90.00 Ry     beta= 0.30
     Davidson diagonalization with overlap
     ethr =  8.18E-11,  avg # of iterations =  5.1

     negative rho (up, down):  1.304E-01 1.475E-01

     total cpu time spent up to now is     1313.6 secs

     total energy              =  -24931.18909338 Ry
     estimated scf accuracy    <       0.00000005 Ry

     total magnetization       =    54.00 Bohr mag/cell
     absolute magnetization    =    65.44 Bohr mag/cell

     iteration #  7     ecut=    90.00 Ry     beta= 0.30
     Davidson diagonalization with overlap
     ethr =  7.51E-12,  avg # of iterations =  5.9

     negative rho (up, down):  1.304E-01 1.475E-01

     total cpu time spent up to now is     1459.9 secs

     total energy              =  -24931.18909340 Ry
     estimated scf accuracy    <       0.00000002 Ry

     total magnetization       =    54.00 Bohr mag/cell
     absolute magnetization    =    65.44 Bohr mag/cell

     iteration #  8     ecut=    90.00 Ry     beta= 0.30
     Davidson diagonalization with overlap
     ethr =  3.37E-12,  avg # of iterations =  4.4

     negative rho (up, down):  1.304E-01 1.475E-01

     total cpu time spent up to now is     1580.5 secs

     total energy              =  -24931.18909341 Ry
     estimated scf accuracy    <          7.5E-09 Ry

     total magnetization       =    54.00 Bohr mag/cell
     absolute magnetization    =    65.44 Bohr mag/cell

     iteration #  9     ecut=    90.00 Ry     beta= 0.30
     Davidson diagonalization with overlap
     ethr =  1.19E-12,  avg # of iterations =  4.8

     negative rho (up, down):  1.304E-01 1.475E-01

     total cpu time spent up to now is     1711.0 secs

     total energy              =  -24931.18909342 Ry
     estimated scf accuracy    <          2.2E-09 Ry

     total magnetization       =    54.00 Bohr mag/cell
     absolute magnetization    =    65.44 Bohr mag/cell

     iteration # 10     ecut=    90.00 Ry     beta= 0.30
     Davidson diagonalization with overlap
     ethr =  3.46E-13,  avg # of iterations =  4.0

     negative rho (up, down):  1.304E-01 1.475E-01

     total cpu time spent up to now is     1835.0 secs

     total energy              =  -24931.18909342 Ry
     estimated scf accuracy    <          9.6E-10 Ry

     total magnetization       =    54.00 Bohr mag/cell
     absolute magnetization    =    65.44 Bohr mag/cell

     iteration # 11     ecut=    90.00 Ry     beta= 0.30
     Davidson diagonalization with overlap
     ethr =  1.52E-13,  avg # of iterations =  4.0

     negative rho (up, down):  1.304E-01 1.475E-01

     total cpu time spent up to now is     1960.9 secs

     total energy              =  -24931.18909342 Ry
     estimated scf accuracy    <          4.8E-10 Ry

     total magnetization       =    54.00 Bohr mag/cell
     absolute magnetization    =    65.44 Bohr mag/cell

     iteration # 12     ecut=    90.00 Ry     beta= 0.30
     Davidson diagonalization with overlap
     ethr =  1.00E-13,  avg # of iterations =  2.6

     negative rho (up, down):  1.304E-01 1.475E-01

     Magnetic moment per site  (integrated on atomic sphere of radius R)
     atom   1 (R=0.053)  charge= 12.4133  magn=  2.9531
     atom   2 (R=0.053)  charge= 12.4086  magn=  2.9136
     atom   3 (R=0.053)  charge= 12.4086  magn=  2.9136
     atom   4 (R=0.053)  charge=  4.0328  magn= -0.0666
     atom   5 (R=0.053)  charge=  4.0497  magn= -0.0522
     atom   6 (R=0.053)  charge=  4.0328  magn= -0.0666
     atom   7 (R=0.053)  charge=  4.0248  magn= -0.0724
     atom   8 (R=0.053)  charge=  4.0502  magn= -0.0559
     atom   9 (R=0.053)  charge=  4.0248  magn= -0.0724
     atom  10 (R=0.053)  charge= 12.4124  magn=  2.9202
     atom  11 (R=0.053)  charge= 12.4091  magn=  2.9162
     atom  12 (R=0.053)  charge=  4.0513  magn= -0.0516
     atom  13 (R=0.053)  charge=  4.0498  magn= -0.0517
     atom  14 (R=0.053)  charge=  4.0336  magn= -0.0638
     atom  15 (R=0.053)  charge=  4.0499  magn= -0.0523
     atom  16 (R=0.053)  charge=  4.0513  magn= -0.0523
     atom  17 (R=0.053)  charge=  4.0253  magn= -0.0709
     atom  18 (R=0.053)  charge= 12.4122  magn=  2.9227
     atom  19 (R=0.053)  charge= 12.3252  magn=  3.0168
     atom  20 (R=0.053)  charge=  4.0507  magn= -0.0525
     atom  21 (R=0.053)  charge=  4.0444  magn= -0.0604
     atom  22 (R=0.053)  charge=  4.0302  magn= -0.0695
     atom  23 (R=0.053)  charge=  4.0499  magn= -0.0520
     atom  24 (R=0.053)  charge=  4.0486  magn= -0.0515
     atom  25 (R=0.053)  charge=  4.0214  magn= -0.0769
     atom  26 (R=0.053)  charge= 12.4090  magn=  2.9161
     atom  27 (R=0.053)  charge= 12.4124  magn=  2.9202
     atom  28 (R=0.053)  charge=  4.0336  magn= -0.0637
     atom  29 (R=0.053)  charge=  4.0497  magn= -0.0519
     atom  30 (R=0.053)  charge=  4.0513  magn= -0.0516
     atom  31 (R=0.053)  charge=  4.0253  magn= -0.0710
     atom  32 (R=0.053)  charge=  4.0513  magn= -0.0523
     atom  33 (R=0.053)  charge=  4.0499  magn= -0.0525
     atom  34 (R=0.053)  charge= 12.4127  magn=  2.9232
     atom  35 (R=0.053)  charge=  4.0521  magn= -0.0525
     atom  36 (R=0.053)  charge=  4.0501  magn= -0.0540
     atom  37 (R=0.053)  charge=  4.0520  magn= -0.0497
     atom  38 (R=0.053)  charge=  4.0507  magn= -0.0537
     atom  39 (R=0.053)  charge=  4.0526  magn= -0.0515
     atom  40 (R=0.053)  charge=  4.0506  magn= -0.0507
     atom  41 (R=0.053)  charge= 12.4124  magn=  2.9257
     atom  42 (R=0.053)  charge= 12.3292  magn=  3.0258
     atom  43 (R=0.053)  charge=  4.0514  magn= -0.0505
     atom  44 (R=0.053)  charge=  4.0448  magn= -0.0597
     atom  45 (R=0.053)  charge=  4.0486  magn= -0.0544
     atom  46 (R=0.053)  charge=  4.0507  magn= -0.0506
     atom  47 (R=0.053)  charge=  4.0495  magn= -0.0482
     atom  48 (R=0.053)  charge=  4.0467  magn= -0.0568
     atom  49 (R=0.053)  charge= 12.3252  magn=  3.0168
     atom  50 (R=0.053)  charge= 12.4122  magn=  2.9227
     atom  51 (R=0.053)  charge=  4.0302  magn= -0.0695
     atom  52 (R=0.053)  charge=  4.0444  magn= -0.0604
     atom  53 (R=0.053)  charge=  4.0507  magn= -0.0525
     atom  54 (R=0.053)  charge=  4.0214  magn= -0.0769
     atom  55 (R=0.053)  charge=  4.0486  magn= -0.0515
     atom  56 (R=0.053)  charge=  4.0499  magn= -0.0520
     atom  57 (R=0.053)  charge= 12.3291  magn=  3.0258
     atom  58 (R=0.053)  charge= 12.4124  magn=  2.9257
     atom  59 (R=0.053)  charge=  4.0486  magn= -0.0544
     atom  60 (R=0.053)  charge=  4.0448  magn= -0.0597
     atom  61 (R=0.053)  charge=  4.0516  magn= -0.0532
     atom  62 (R=0.053)  charge=  4.0467  magn= -0.0568
     atom  63 (R=0.053)  charge=  4.0495  magn= -0.0484
     atom  64 (R=0.053)  charge=  4.0508  magn= -0.0532
     atom  65 (R=0.053)  charge= 12.3290  magn=  3.0298
     atom  66 (R=0.053)  charge= 12.3290  magn=  3.0298
     atom  67 (R=0.053)  charge=  4.0479  magn= -0.0557
     atom  68 (R=0.053)  charge=  4.0397  magn= -0.0676
     atom  69 (R=0.053)  charge=  4.0479  magn= -0.0555
     atom  70 (R=0.053)  charge=  4.0471  magn= -0.0559
     atom  71 (R=0.053)  charge=  4.0465  magn= -0.0471
     atom  72 (R=0.053)  charge=  4.0471  magn= -0.0559

     total cpu time spent up to now is     2060.8 secs

     End of self-consistent calculation

     =================== HUBBARD OCCUPATIONS ===================
     ------------------------ ATOM    1 ------------------------
     Tr[ns(  1)] (up, down, total) =   3.61497  0.75124  4.36620
     Atomic magnetic moment for atom   1 =   2.86373
     SPIN  1
     eigenvalues:
       0.452  0.453  0.901  0.901  0.908
     eigenvectors (columns):
      -0.000  0.000 -0.029 -0.028  0.999
      -0.800  0.187  0.535  0.197  0.021
      -0.186 -0.801  0.197 -0.534 -0.009
       0.556 -0.129  0.770  0.283  0.031
      -0.129 -0.554 -0.284  0.772  0.014
     occupation matrix ns (before diag.):
       0.908  0.000 -0.000  0.000  0.000
       0.000  0.598 -0.000  0.211 -0.000
      -0.000 -0.000  0.598  0.000 -0.210
       0.000  0.211  0.000  0.755  0.000
       0.000 -0.000 -0.210  0.000  0.756
     SPIN  2
     eigenvalues:
       0.077  0.083  0.085  0.253  0.254
     eigenvectors (columns):
      -0.999  0.033 -0.027  0.001 -0.000
      -0.021 -0.543  0.132  0.800 -0.220
       0.010 -0.133 -0.541  0.219  0.801
      -0.033 -0.805  0.196 -0.539  0.147
      -0.016  0.196  0.807  0.147  0.537
     occupation matrix ns (before diag.):
       0.077 -0.000  0.000 -0.000 -0.000
      -0.000  0.200 -0.000 -0.079 -0.000
       0.000 -0.000  0.201 -0.000  0.078
      -0.000 -0.079 -0.000  0.136  0.000
      -0.000 -0.000  0.078  0.000  0.137

     Number of occupied Hubbard levels =    4.3662

 ------ SPIN UP ------------


          k = 0.0000 0.0000 0.0000 (****** PWs)   bands (ev):

   -76.1371 -76.1370 -76.0610 -76.0609 -76.0129 -76.0126 -75.9808 -75.9808
   -75.9363 -75.9329 -75.9301 -75.9301 -75.8509 -75.8508 -75.8508 -75.8505
   -75.7726 -75.7725 -47.4876 -47.4867 -47.4633 -47.4622 -47.4579 -47.4575
   -47.4085 -47.4085 -47.3881 -47.3881 -47.3824 -47.3823 -47.3523 -47.3520
   -47.3459 -47.3456 -47.3397 -47.3394 -47.3274 -47.3273 -47.3060 -47.3060
   -47.3015 -47.3014 -47.2754 -47.2713 -47.2697 -47.2697 -47.2690 -47.2663
   -47.2646 -47.2633 -47.2632 -47.2619 -47.2561 -47.2560 -47.1890 -47.1889
   -47.1888 -47.1885 -47.1837 -47.1836 -47.1819 -47.1816 -47.1799 -47.1796
   -47.1764 -47.1764 -47.1104 -47.1100 -47.1065 -47.1045 -47.0974 -47.0972
   -16.2040 -16.0675 -16.0164 -15.9902 -15.9549 -15.8949 -15.8618 -15.7101
   -15.6637 -15.6335 -15.6070 -15.4951 -15.4790 -15.4544 -15.4245 -15.4086
   -15.3803 -15.3553 -15.3459 -15.3330 -15.3314 -15.3102 -15.2942 -15.2750
   -15.2695 -15.2475 -15.2381 -15.2360 -15.2034 -15.1891 -15.1759 -15.1716
   -15.1652 -15.1538 -15.1266 -15.1215 -15.1126 -15.1057 -15.0987 -15.0829
   -15.0766 -15.0639 -15.0313 -15.0223 -15.0069 -14.9958 -14.9861 -14.9101
   -14.8808 -14.8794 -14.8184 -14.8159 -14.7421 -14.7136  -7.9490  -7.8753
    -7.8377  -7.7911  -7.7814  -7.7426  -7.6954  -7.4073  -7.3805  -7.3760
    -7.3660  -7.3309  -7.2914  -7.2647  -7.2343  -7.2197  -7.1430  -7.1360
    -6.9823  -6.9472  -6.9426  -6.8990  -6.8813  -6.8595  -6.8503  -6.8427
    -6.8136  -6.8114  -6.7741  -6.7494  -6.7294  -6.7244  -6.7061  -6.6901
    -6.6847  -6.6733  -6.6497  -6.6418  -6.6300  -6.6041  -6.5888  -6.5886
    -6.5654  -6.5399  -6.5060  -6.4952  -6.4740  -6.4690  -6.4330  -6.4053
    -6.3975  -6.3780  -6.3434  -6.3419  -6.3365  -6.3012  -6.2836  -6.2707
    -6.2552  -6.2362  -6.1937  -6.1671  -6.1530  -6.1227  -6.1183  -6.0874
    -6.0545  -6.0303  -6.0259  -5.9908  -5.9883  -5.9865  -5.9761  -5.9385
    -5.9294  -5.9197  -5.8894  -5.8863  -5.8587  -5.8439  -5.8061  -5.7744
    -5.6841  -5.6521  -5.6273  -5.6257  -5.5816  -5.5176  -5.4995  -5.4727
    -5.4614  -5.4304  -5.3878  -5.3656  -5.3487  -5.3215  -5.2897  -5.2674
    -5.2507  -5.2351  -5.2130  -5.1994  -5.1767  -5.1741  -5.1519  -5.1414
    -5.1268  -5.1218  -5.0643  -5.0472  -5.0278  -5.0209  -5.0199  -5.0079
    -4.9911  -4.9803  -4.9530  -4.9477  -4.9299  -4.9138  -4.8760  -4.8674
    -4.8549  -4.8407  -4.8190  -4.7870  -4.7801  -4.7667  -4.7382  -4.7188
    -4.7072  -4.6938  -4.6853  -4.6784  -4.6777  -4.6261  -4.6103  -4.5548
    -4.5392  -4.5161  -4.4890  -4.4484  -4.4458  -4.4334  -4.4023  -4.3960
    -4.3742  -4.3706  -4.3554  -4.3493  -4.3476  -4.3248  -4.3171  -4.2884
    -4.2865  -4.2424  -4.2206  -4.2169  -4.1947  -4.1846  -4.1547  -4.1306
    -4.1083  -4.0842  -4.0830  -4.0520  -4.0142  -4.0128  -4.0026  -3.9851
    -3.9540  -3.9514  -3.9324  -3.9264  -3.9221  -3.9145  -3.8994  -3.8939
    -3.8880  -3.8851  -3.8817  -3.8539  -3.8406  -3.8381  -3.8300  -3.8290
    -3.8189  -3.8178  -3.7944  -3.7866  -3.7684  -3.7658  -3.7496  -3.7300
    -3.7244  -3.7034  -3.6969  -3.6853  -3.6364  -3.6299  -3.6166  -3.6016
    -3.5972  -3.5794  -3.5052  -3.4975  -3.4893  -3.4718  -3.4417  -3.4355
    -3.4185  -3.3969  -3.3519  -3.3493  -3.3405  -3.3268

          k = 0.0000-0.5774 0.0000 (****** PWs)   bands (ev):

   -76.1371 -76.1370 -76.0610 -76.0609 -76.0129 -76.0126 -75.9808 -75.9808
   -75.9363 -75.9329 -75.9301 -75.9301 -75.8509 -75.8508 -75.8508 -75.8505
   -75.7726 -75.7725 -47.4876 -47.4867 -47.4633 -47.4622 -47.4579 -47.4575
   -47.4085 -47.4085 -47.3881 -47.3881 -47.3824 -47.3823 -47.3523 -47.3520
   -47.3459 -47.3456 -47.3397 -47.3394 -47.3274 -47.3273 -47.3060 -47.3060
   -47.3015 -47.3014 -47.2754 -47.2713 -47.2697 -47.2697 -47.2690 -47.2663
   -47.2646 -47.2633 -47.2632 -47.2619 -47.2561 -47.2560 -47.1890 -47.1889
   -47.1888 -47.1885 -47.1837 -47.1836 -47.1819 -47.1816 -47.1799 -47.1796
   -47.1764 -47.1764 -47.1104 -47.1100 -47.1065 -47.1045 -47.0974 -47.0972
   -16.1928 -16.0984 -16.0244 -15.9976 -15.9271 -15.8637 -15.8450 -15.7596
   -15.6898 -15.5928 -15.5685 -15.5201 -15.5160 -15.4632 -15.4508 -15.3949
   -15.3752 -15.3603 -15.3509 -15.3227 -15.3119 -15.3095 -15.2928 -15.2749
   -15.2507 -15.2408 -15.2301 -15.2175 -15.2062 -15.1961 -15.1818 -15.1725
   -15.1606 -15.1485 -15.1425 -15.1260 -15.1221 -15.1029 -15.1023 -15.0838
   -15.0757 -15.0629 -15.0338 -15.0284 -15.0040 -14.9960 -14.9872 -14.9088
   -14.8801 -14.8790 -14.8171 -14.8167 -14.7421 -14.7135  -7.9343  -7.8815
    -7.8189  -7.7824  -7.7668  -7.7052  -7.6420  -7.5972  -7.5258  -7.3750
    -7.3404  -7.2850  -7.2737  -7.2605  -7.2139  -7.1995  -7.1364  -7.1303
    -6.9744  -6.9474  -6.9360  -6.8985  -6.8744  -6.8678  -6.8413  -6.8376
    -6.8228  -6.8086  -6.7840  -6.7651  -6.7355  -6.7299  -6.7254  -6.7062
    -6.6988  -6.6766  -6.6528  -6.6456  -6.6294  -6.5977  -6.5640  -6.5497
    -6.5274  -6.5137  -6.4898  -6.4862  -6.4599  -6.4440  -6.4273  -6.4142
    -6.4007  -6.3903  -6.3824  -6.3340  -6.3227  -6.2935  -6.2810  -6.2707
    -6.2495  -6.2244  -6.1903  -6.1851  -6.1590  -6.1136  -6.0851  -6.0762
    -6.0631  -6.0434  -6.0220  -6.0047  -5.9839  -5.9823  -5.9606  -5.9194
    -5.9090  -5.8976  -5.8633  -5.8453  -5.8250  -5.8015  -5.7781  -5.7193
    -5.6496  -5.6225  -5.6004  -5.5943  -5.5763  -5.5543  -5.5342  -5.5260
    -5.5085  -5.4933  -5.4703  -5.4480  -5.4384  -5.4098  -5.3891  -5.3658
    -5.3467  -5.3225  -5.3040  -5.2667  -5.2444  -5.2278  -5.2005  -5.1491
    -5.1352  -5.1181  -5.0936  -5.0746  -5.0519  -5.0250  -5.0062  -4.9727
    -4.9515  -4.9170  -4.9059  -4.8944  -4.8765  -4.8534  -4.8132  -4.8032
    -4.7834  -4.7674  -4.7459  -4.7340  -4.7087  -4.6914  -4.6880  -4.6757
    -4.6677  -4.6434  -4.6191  -4.6050  -4.5971  -4.5672  -4.5541  -4.5464
    -4.5349  -4.5247  -4.5098  -4.4908  -4.4706  -4.4497  -4.4427  -4.4351
    -4.4141  -4.4062  -4.3830  -4.3772  -4.3466  -4.3057  -4.2918  -4.2768
    -4.2611  -4.2539  -4.2267  -4.2060  -4.1937  -4.1799  -4.1736  -4.1683
    -4.1611  -4.1489  -4.1196  -4.1140  -4.0852  -4.0632  -4.0425  -4.0057
    -3.9800  -3.9692  -3.9521  -3.9339  -3.9231  -3.9095  -3.8979  -3.8843
    -3.8825  -3.8697  -3.8562  -3.8540  -3.8462  -3.8399  -3.8338  -3.8218
    -3.8118  -3.7908  -3.7864  -3.7788  -3.7706  -3.7529  -3.7278  -3.7136
    -3.6898  -3.6829  -3.6618  -3.6469  -3.6373  -3.6308  -3.6167  -3.6052
    -3.5994  -3.5803  -3.5712  -3.5337  -3.4779  -3.4665  -3.4250  -3.4227
    -3.4114  -3.3963  -3.3714  -3.3520  -3.3442  -3.3301

          k = 0.5000-0.2887 0.0000 (****** PWs)   bands (ev):

   -76.1371 -76.1370 -76.0610 -76.0609 -76.0129 -76.0126 -75.9808 -75.9808
   -75.9363 -75.9329 -75.9301 -75.9301 -75.8509 -75.8508 -75.8508 -75.8505
   -75.7726 -75.7725 -47.4876 -47.4867 -47.4633 -47.4622 -47.4579 -47.4575
   -47.4085 -47.4085 -47.3881 -47.3881 -47.3824 -47.3823 -47.3523 -47.3520
   -47.3459 -47.3456 -47.3397 -47.3394 -47.3274 -47.3273 -47.3060 -47.3060
   -47.3015 -47.3014 -47.2754 -47.2713 -47.2697 -47.2697 -47.2690 -47.2663
   -47.2646 -47.2633 -47.2632 -47.2619 -47.2561 -47.2560 -47.1890 -47.1889
   -47.1888 -47.1885 -47.1837 -47.1836 -47.1819 -47.1816 -47.1799 -47.1796
   -47.1764 -47.1764 -47.1104 -47.1100 -47.1065 -47.1045 -47.0974 -47.0972
   -16.1864 -16.1184 -16.0218 -15.9705 -15.9336 -15.8680 -15.8512 -15.7684
   -15.6569 -15.6290 -15.5554 -15.5246 -15.5192 -15.4708 -15.4488 -15.3965
   -15.3639 -15.3544 -15.3492 -15.3121 -15.3080 -15.2998 -15.2965 -15.2772
   -15.2510 -15.2480 -15.2274 -15.2206 -15.2175 -15.2025 -15.1951 -15.1643
   -15.1627 -15.1443 -15.1390 -15.1258 -15.1223 -15.1044 -15.1033 -15.0770
   -15.0745 -15.0686 -15.0308 -15.0300 -15.0028 -14.9980 -14.9850 -14.9074
   -14.8804 -14.8797 -14.8184 -14.8155 -14.7422 -14.7134  -7.9281  -7.8940
    -7.7960  -7.7922  -7.7451  -7.7061  -7.6982  -7.5590  -7.5436  -7.3761
    -7.3324  -7.2923  -7.2488  -7.2442  -7.2254  -7.2197  -7.1425  -7.1250
    -6.9715  -6.9456  -6.9411  -6.8960  -6.8795  -6.8721  -6.8475  -6.8347
    -6.8269  -6.8134  -6.8034  -6.7681  -6.7655  -6.7539  -6.7112  -6.6989
    -6.6705  -6.6683  -6.6236  -6.6214  -6.6023  -6.5895  -6.5626  -6.5232
    -6.5207  -6.5088  -6.5030  -6.5024  -6.4720  -6.4549  -6.4339  -6.4085
    -6.3928  -6.3768  -6.3733  -6.3606  -6.3107  -6.3082  -6.2891  -6.2817
    -6.2673  -6.2486  -6.1954  -6.1908  -6.1270  -6.1170  -6.0822  -6.0673
    -6.0430  -6.0372  -6.0229  -6.0017  -5.9957  -5.9693  -5.9476  -5.9160
    -5.9137  -5.8992  -5.8991  -5.8732  -5.8631  -5.8434  -5.7937  -5.6737
    -5.6486  -5.6120  -5.5774  -5.5570  -5.5499  -5.5275  -5.5271  -5.5101
    -5.5082  -5.4908  -5.4801  -5.4659  -5.4492  -5.4344  -5.3954  -5.3800
    -5.3653  -5.3474  -5.3321  -5.2655  -5.2291  -5.2026  -5.1832  -5.1578
    -5.1271  -5.0850  -5.0814  -5.0649  -5.0484  -5.0249  -5.0024  -4.9977
    -4.9451  -4.9392  -4.9145  -4.8759  -4.8747  -4.8392  -4.8127  -4.8007
    -4.7882  -4.7800  -4.7369  -4.7355  -4.7185  -4.7064  -4.6870  -4.6684
    -4.6641  -4.6310  -4.6299  -4.6056  -4.5962  -4.5817  -4.5683  -4.5632
    -4.5482  -4.5099  -4.4739  -4.4714  -4.4596  -4.4589  -4.4420  -4.4300
    -4.4242  -4.4072  -4.4053  -4.3909  -4.3639  -4.2932  -4.2856  -4.2754
    -4.2664  -4.2347  -4.2210  -4.2144  -4.2006  -4.1863  -4.1741  -4.1621
    -4.1521  -4.1378  -4.1285  -4.0959  -4.0813  -4.0786  -4.0276  -4.0103
    -3.9938  -3.9704  -3.9415  -3.9317  -3.9144  -3.9130  -3.9071  -3.8933
    -3.8839  -3.8805  -3.8703  -3.8627  -3.8514  -3.8371  -3.8271  -3.8262
    -3.8066  -3.7984  -3.7903  -3.7731  -3.7651  -3.7397  -3.7270  -3.7107
    -3.6926  -3.6914  -3.6666  -3.6521  -3.6303  -3.6264  -3.6230  -3.6125
    -3.5766  -3.5751  -3.5558  -3.5312  -3.4990  -3.4506  -3.4504  -3.4249
    -3.4216  -3.3869  -3.3601  -3.3583  -3.3360  -3.3260

          k =-0.5000-0.2887 0.0000 (****** PWs)   bands (ev):

   -76.1371 -76.1370 -76.0610 -76.0609 -76.0129 -76.0126 -75.9808 -75.9808
   -75.9363 -75.9329 -75.9301 -75.9301 -75.8509 -75.8508 -75.8508 -75.8505
   -75.7726 -75.7725 -47.4876 -47.4867 -47.4633 -47.4622 -47.4579 -47.4575
   -47.4085 -47.4085 -47.3881 -47.3881 -47.3824 -47.3823 -47.3523 -47.3520
   -47.3459 -47.3456 -47.3397 -47.3394 -47.3274 -47.3273 -47.3060 -47.3060
   -47.3015 -47.3014 -47.2754 -47.2713 -47.2697 -47.2697 -47.2690 -47.2663
   -47.2646 -47.2633 -47.2632 -47.2619 -47.2561 -47.2560 -47.1890 -47.1889
   -47.1888 -47.1885 -47.1837 -47.1836 -47.1819 -47.1816 -47.1799 -47.1796
   -47.1764 -47.1764 -47.1104 -47.1100 -47.1065 -47.1045 -47.0974 -47.0972
   -16.1928 -16.0984 -16.0243 -15.9976 -15.9272 -15.8637 -15.8450 -15.7596
   -15.6898 -15.5927 -15.5686 -15.5200 -15.5161 -15.4635 -15.4508 -15.3949
   -15.3753 -15.3601 -15.3507 -15.3228 -15.3117 -15.3095 -15.2929 -15.2748
   -15.2510 -15.2408 -15.2301 -15.2174 -15.2062 -15.1961 -15.1817 -15.1725
   -15.1606 -15.1484 -15.1425 -15.1261 -15.1221 -15.1029 -15.1023 -15.0838
   -15.0757 -15.0629 -15.0339 -15.0283 -15.0040 -14.9960 -14.9872 -14.9088
   -14.8801 -14.8790 -14.8171 -14.8167 -14.7421 -14.7135  -7.9342  -7.8816
    -7.8187  -7.7824  -7.7668  -7.7051  -7.6423  -7.5970  -7.5258  -7.3750
    -7.3404  -7.2847  -7.2738  -7.2606  -7.2140  -7.1995  -7.1364  -7.1302
    -6.9744  -6.9477  -6.9359  -6.8981  -6.8751  -6.8671  -6.8423  -6.8374
    -6.8226  -6.8080  -6.7844  -6.7648  -6.7356  -6.7296  -6.7257  -6.7061
    -6.6986  -6.6765  -6.6527  -6.6458  -6.6294  -6.5981  -6.5639  -6.5501
    -6.5284  -6.5134  -6.4912  -6.4853  -6.4590  -6.4434  -6.4268  -6.4152
    -6.4006  -6.3906  -6.3816  -6.3338  -6.3227  -6.2936  -6.2804  -6.2702
    -6.2503  -6.2244  -6.1902  -6.1858  -6.1586  -6.1112  -6.0845  -6.0791
    -6.0669  -6.0435  -6.0223  -6.0039  -5.9827  -5.9807  -5.9601  -5.9197
    -5.9090  -5.8979  -5.8633  -5.8449  -5.8253  -5.8010  -5.7775  -5.7199
    -5.6502  -5.6219  -5.5989  -5.5958  -5.5750  -5.5537  -5.5362  -5.5262
    -5.5084  -5.4936  -5.4706  -5.4480  -5.4379  -5.4096  -5.3898  -5.3658
    -5.3467  -5.3218  -5.3040  -5.2659  -5.2444  -5.2289  -5.2003  -5.1494
    -5.1338  -5.1178  -5.0935  -5.0752  -5.0521  -5.0264  -5.0059  -4.9729
    -4.9512  -4.9172  -4.9056  -4.8941  -4.8770  -4.8547  -4.8131  -4.8027
    -4.7850  -4.7664  -4.7455  -4.7345  -4.7091  -4.6926  -4.6875  -4.6733
    -4.6669  -4.6426  -4.6197  -4.6044  -4.5969  -4.5670  -4.5537  -4.5474
    -4.5345  -4.5245  -4.5084  -4.4916  -4.4706  -4.4477  -4.4425  -4.4367
    -4.4167  -4.4075  -4.3840  -4.3759  -4.3471  -4.3060  -4.2922  -4.2739
    -4.2614  -4.2532  -4.2275  -4.2063  -4.1936  -4.1804  -4.1736  -4.1686
    -4.1605  -4.1469  -4.1195  -4.1145  -4.0873  -4.0633  -4.0420  -4.0057
    -3.9806  -3.9710  -3.9507  -3.9314  -3.9244  -3.9105  -3.8953  -3.8862
    -3.8814  -3.8698  -3.8576  -3.8552  -3.8467  -3.8389  -3.8339  -3.8180
    -3.8121  -3.7914  -3.7863  -3.7803  -3.7711  -3.7521  -3.7268  -3.7130
    -3.6912  -3.6834  -3.6620  -3.6457  -3.6383  -3.6310  -3.6170  -3.6048
    -3.5992  -3.5812  -3.5707  -3.5330  -3.4769  -3.4673  -3.4252  -3.4240
    -3.4104  -3.3963  -3.3718  -3.3518  -3.3431  -3.3307

 ------ SPIN DOWN ----------


          k = 0.0000 0.0000 0.0000 (****** PWs)   bands (ev):

   -72.9792 -72.9791 -72.9728 -72.9724 -72.9069 -72.9068 -72.8951 -72.8929
   -72.8929 -72.8667 -72.8344 -72.8344 -72.8187 -72.8186 -72.8161 -72.8157
   -72.7430 -72.7429 -44.3884 -44.3871 -44.3786 -44.3783 -44.3622 -44.3605
   -44.3480 -44.3477 -44.3351 -44.3348 -44.3320 -44.3317 -44.3123 -44.3122
   -44.3004 -44.2983 -44.2983 -44.2841 -44.2841 -44.2727 -44.2693 -44.2693
   -44.2674 -44.2673 -44.2659 -44.2626 -44.2543 -44.2543 -44.2386 -44.2353
   -44.2348 -44.2348 -44.2206 -44.2202 -44.2189 -44.2189 -44.2123 -44.2123
   -44.1955 -44.1955 -44.1931 -44.1931 -44.1871 -44.1868 -44.1839 -44.1838
   -44.1831 -44.1828 -44.1429 -44.1425 -44.1182 -44.1161 -44.1084 -44.1077
   -16.2129 -16.0797 -16.0319 -16.0037 -15.9703 -15.9097 -15.8817 -15.7346
   -15.6902 -15.6629 -15.6388 -15.5371 -15.5157 -15.5037 -15.4623 -15.4508
   -15.4287 -15.4037 -15.3935 -15.3752 -15.3735 -15.3589 -15.3432 -15.3214
   -15.3179 -15.2957 -15.2873 -15.2852 -15.2519 -15.2366 -15.2266 -15.2208
   -15.2134 -15.2024 -15.1749 -15.1744 -15.1635 -15.1506 -15.1451 -15.1332
   -15.1280 -15.1094 -15.0897 -15.0743 -15.0630 -15.0439 -15.0353 -14.9691
   -14.9509 -14.9448 -14.8863 -14.8833 -14.8112 -14.7844  -7.6646  -7.6175
    -7.5761  -7.5330  -7.5259  -7.4865  -7.4405  -7.1621  -7.1316  -7.1310
    -7.1177  -7.0833  -7.0440  -7.0189  -6.9957  -6.9769  -6.9054  -6.9027
    -6.8575  -6.8506  -6.8129  -6.7785  -6.7584  -6.7256  -6.6708  -6.6429
    -6.6291  -6.6091  -6.6003  -6.5553  -6.5458  -6.5449  -6.5272  -6.5245
    -6.4734  -6.4655  -6.4504  -6.4211  -6.4158  -6.4039  -6.3770  -6.3506
    -6.3432  -6.2985  -6.2963  -6.2933  -6.2535  -6.1858  -6.1476  -6.1354
    -6.1302  -6.0563  -6.0442  -6.0239  -6.0004  -5.9937  -5.9454  -5.9367
    -5.9339  -5.9272  -5.8850  -5.8791  -5.8547  -5.8108  -5.7946  -5.6185
    -5.6048  -5.5933  -5.5772  -5.5682  -5.5485  -5.5463  -5.5303  -5.5033
    -5.4965  -5.4949  -5.4843  -5.4537  -5.3997  -5.3974  -5.3847  -5.3626
    -5.3068  -5.2763  -5.2253  -5.2093  -5.1869  -5.1442  -5.1060  -5.1050
    -5.0955  -5.0610  -5.0251  -5.0174  -4.9819  -4.9785  -4.9658  -4.9584
    -4.9448  -4.9226  -4.9093  -4.8771  -4.8601  -4.8475  -4.8200  -4.8186
    -4.8008  -4.7851  -4.7717  -4.7713  -4.7482  -4.7460  -4.7217  -4.7145
    -4.6933  -4.6767  -4.6759  -4.6326  -4.6306  -4.5717  -4.5614  -4.5540
    -4.5501  -4.5452  -4.4743  -4.4571  -4.4479  -4.4467  -4.4076  -4.3774
    -4.3663  -4.3481  -4.3219  -4.3157  -4.3018  -4.2893  -4.2566  -4.2452
    -4.2334  -4.2193  -4.2093  -4.1718  -4.1104  -4.0733  -4.0689  -4.0562
    -4.0549  -3.9981  -3.9967  -3.9812  -3.9805  -3.9677  -3.9190  -3.8957
    -3.8677  -3.8327  -3.8153  -3.7654  -3.7240  -3.6877  -3.6152  -3.5914
    -1.5491  -1.5390  -1.5075  -1.5035  -1.4796  -1.4727  -1.4576  -1.4548
    -1.4160  -1.4081  -1.4046  -1.3938  -1.3777  -1.3687  -1.3456  -1.3327
    -1.3281  -1.3188  -1.3112  -1.2901  -1.2762  -1.2653  -1.2552  -1.2460
    -1.2391  -1.2243  -1.2049  -1.2006  -1.1880  -1.1629  -1.1372  -1.1217
    -1.1160  -1.1033  -1.0992  -1.0909  -1.0710  -1.0704  -1.0553  -1.0520
    -1.0456  -1.0420  -1.0294  -1.0236  -1.0223  -1.0102  -1.0046  -0.9994
    -0.9893  -0.9820  -0.9712  -0.9622  -0.9505  -0.9289

          k = 0.0000-0.5774 0.0000 (****** PWs)   bands (ev):

   -72.9792 -72.9791 -72.9728 -72.9724 -72.9069 -72.9068 -72.8951 -72.8929
   -72.8929 -72.8667 -72.8344 -72.8344 -72.8187 -72.8186 -72.8161 -72.8157
   -72.7430 -72.7429 -44.3884 -44.3871 -44.3786 -44.3783 -44.3622 -44.3605
   -44.3480 -44.3477 -44.3351 -44.3348 -44.3320 -44.3317 -44.3123 -44.3122
   -44.3004 -44.2983 -44.2983 -44.2841 -44.2841 -44.2727 -44.2693 -44.2693
   -44.2674 -44.2673 -44.2659 -44.2626 -44.2543 -44.2543 -44.2386 -44.2353
   -44.2348 -44.2348 -44.2206 -44.2202 -44.2189 -44.2189 -44.2123 -44.2123
   -44.1955 -44.1955 -44.1931 -44.1931 -44.1871 -44.1868 -44.1839 -44.1838
   -44.1831 -44.1828 -44.1429 -44.1425 -44.1182 -44.1161 -44.1084 -44.1077
   -16.2020 -16.1099 -16.0389 -16.0115 -15.9430 -15.8793 -15.8643 -15.7819
   -15.7186 -15.6250 -15.6029 -15.5559 -15.5499 -15.5027 -15.4980 -15.4449
   -15.4204 -15.4048 -15.3996 -15.3666 -15.3585 -15.3574 -15.3417 -15.3231
   -15.2963 -15.2868 -15.2767 -15.2669 -15.2560 -15.2430 -15.2334 -15.2224
   -15.2103 -15.1965 -15.1951 -15.1760 -15.1709 -15.1501 -15.1477 -15.1337
   -15.1261 -15.1079 -15.0917 -15.0837 -15.0591 -15.0454 -15.0342 -14.9683
   -14.9503 -14.9437 -14.8847 -14.8843 -14.8112 -14.7843  -7.6561  -7.6141
    -7.5570  -7.5205  -7.5128  -7.4528  -7.3899  -7.3482  -7.2763  -7.1243
    -7.0926  -7.0404  -7.0268  -7.0177  -6.9711  -6.9649  -6.9042  -6.8959
    -6.8587  -6.8340  -6.8128  -6.7649  -6.7297  -6.7153  -6.6854  -6.6608
    -6.6535  -6.6322  -6.6169  -6.5940  -6.5586  -6.5503  -6.5222  -6.4914
    -6.4892  -6.4668  -6.4560  -6.4291  -6.4252  -6.3861  -6.3348  -6.3212
    -6.3126  -6.2694  -6.2504  -6.2276  -6.1964  -6.1924  -6.1656  -6.1511
    -6.1299  -6.1099  -6.0956  -6.0787  -6.0438  -6.0271  -5.9749  -5.9619
    -5.9415  -5.8974  -5.8532  -5.8018  -5.8009  -5.6628  -5.6537  -5.6310
    -5.6239  -5.6043  -5.5804  -5.5720  -5.5485  -5.5334  -5.5133  -5.5021
    -5.4786  -5.4671  -5.4507  -5.4241  -5.4158  -5.3757  -5.3515  -5.3214
    -5.2995  -5.2834  -5.2452  -5.2381  -5.2214  -5.2126  -5.1889  -5.1683
    -5.1524  -5.1269  -5.1190  -5.0952  -5.0817  -5.0788  -5.0579  -5.0305
    -5.0061  -4.9544  -4.9366  -4.9314  -4.9221  -4.8893  -4.8741  -4.8599
    -4.8417  -4.8241  -4.8148  -4.7916  -4.7027  -4.6872  -4.6725  -4.6709
    -4.6429  -4.6243  -4.5893  -4.5749  -4.5628  -4.5413  -4.4962  -4.4939
    -4.4859  -4.4684  -4.4452  -4.4436  -4.4245  -4.4093  -4.3944  -4.3435
    -4.3239  -4.3056  -4.2967  -4.2835  -4.2646  -4.2503  -4.2346  -4.2132
    -4.1743  -4.1588  -4.1528  -4.1261  -4.1058  -4.0883  -4.0834  -4.0608
    -4.0589  -4.0332  -4.0072  -3.9838  -3.9607  -3.9524  -3.9474  -3.9089
    -3.9018  -3.8663  -3.8337  -3.8102  -3.7741  -3.7676  -3.7061  -3.6395
    -1.5538  -1.5516  -1.5213  -1.5134  -1.4903  -1.4698  -1.4607  -1.4509
    -1.4365  -1.4196  -1.4029  -1.3861  -1.3756  -1.3618  -1.3518  -1.3294
    -1.3174  -1.3060  -1.2843  -1.2767  -1.2644  -1.2514  -1.2397  -1.2338
    -1.2208  -1.2024  -1.1894  -1.1781  -1.1694  -1.1599  -1.1433  -1.1364
    -1.1305  -1.1249  -1.1200  -1.1019  -1.0938  -1.0814  -1.0765  -1.0691
    -1.0573  -1.0463  -1.0355  -1.0279  -1.0248  -1.0187  -1.0037  -0.9999
    -0.9953  -0.9807  -0.9714  -0.9529  -0.9363  -0.9264

          k = 0.5000-0.2887 0.0000 (****** PWs)   bands (ev):

   -72.9792 -72.9791 -72.9728 -72.9724 -72.9069 -72.9068 -72.8951 -72.8929
   -72.8929 -72.8667 -72.8344 -72.8344 -72.8187 -72.8186 -72.8161 -72.8157
   -72.7430 -72.7429 -44.3884 -44.3871 -44.3786 -44.3783 -44.3622 -44.3605
   -44.3480 -44.3477 -44.3351 -44.3348 -44.3320 -44.3317 -44.3123 -44.3122
   -44.3004 -44.2983 -44.2983 -44.2841 -44.2841 -44.2727 -44.2693 -44.2693
   -44.2674 -44.2673 -44.2659 -44.2626 -44.2543 -44.2543 -44.2386 -44.2353
   -44.2348 -44.2348 -44.2206 -44.2202 -44.2189 -44.2189 -44.2123 -44.2123
   -44.1955 -44.1955 -44.1931 -44.1931 -44.1871 -44.1868 -44.1839 -44.1838
   -44.1831 -44.1828 -44.1429 -44.1425 -44.1182 -44.1161 -44.1084 -44.1077
   -16.1958 -16.1293 -16.0363 -15.9853 -15.9491 -15.8864 -15.8660 -15.7919
   -15.6906 -15.6596 -15.5865 -15.5612 -15.5509 -15.5065 -15.4987 -15.4465
   -15.4128 -15.3989 -15.3981 -15.3570 -15.3547 -15.3471 -15.3440 -15.3248
   -15.2991 -15.2940 -15.2743 -15.2689 -15.2680 -15.2499 -15.2457 -15.2159
   -15.2141 -15.1907 -15.1857 -15.1763 -15.1719 -15.1515 -15.1511 -15.1262
   -15.1226 -15.1151 -15.0890 -15.0849 -15.0593 -15.0467 -15.0317 -14.9675
   -14.9510 -14.9437 -14.8864 -14.8828 -14.8113 -14.7842  -7.6516  -7.6218
    -7.5386  -7.5354  -7.4843  -7.4550  -7.4446  -7.3112  -7.2942  -7.1255
    -7.0835  -7.0477  -7.0065  -7.0048  -6.9819  -6.9721  -6.9073  -6.8931
    -6.8490  -6.8375  -6.8223  -6.7549  -6.7263  -6.7101  -6.7035  -6.6851
    -6.6564  -6.6469  -6.6344  -6.5751  -6.5741  -6.5633  -6.5353  -6.4937
    -6.4615  -6.4433  -6.4173  -6.4091  -6.3867  -6.3694  -6.3546  -6.3255
    -6.2974  -6.2927  -6.2740  -6.2293  -6.2247  -6.1906  -6.1590  -6.1494
    -6.1414  -6.1171  -6.0830  -6.0583  -5.9953  -5.9896  -5.9866  -5.9724
    -5.9497  -5.9332  -5.9203  -5.8082  -5.7689  -5.6945  -5.6688  -5.6545
    -5.6271  -5.5903  -5.5612  -5.5598  -5.5531  -5.5275  -5.5032  -5.4858
    -5.4833  -5.4714  -5.4655  -5.4372  -5.4088  -5.4054  -5.3690  -5.2978
    -5.2891  -5.2635  -5.2479  -5.2228  -5.2186  -5.2015  -5.1823  -5.1771
    -5.1557  -5.1420  -5.1282  -5.0991  -5.0726  -5.0707  -5.0348  -5.0233
    -5.0060  -4.9659  -4.9563  -4.9352  -4.9163  -4.9100  -4.8596  -4.8466
    -4.8345  -4.8191  -4.8188  -4.7016  -4.7012  -4.6963  -4.6761  -4.6605
    -4.6518  -4.6379  -4.6214  -4.6067  -4.5627  -4.5381  -4.5183  -4.5179
    -4.4983  -4.4530  -4.4303  -4.4254  -4.4032  -4.3899  -4.3739  -4.3470
    -4.3331  -4.3193  -4.2883  -4.2835  -4.2717  -4.2417  -4.2394  -4.2338
    -4.2114  -4.1885  -4.1568  -4.1191  -4.0961  -4.0834  -4.0733  -4.0449
    -4.0360  -4.0344  -4.0235  -3.9889  -3.9601  -3.9533  -3.9478  -3.9259
    -3.9076  -3.8396  -3.8395  -3.8282  -3.8161  -3.6944  -3.6883  -3.6637
    -1.5649  -1.5533  -1.5182  -1.5094  -1.4942  -1.4790  -1.4705  -1.4393
    -1.4265  -1.4189  -1.3996  -1.3939  -1.3756  -1.3562  -1.3494  -1.3324
    -1.3019  -1.2937  -1.2827  -1.2716  -1.2601  -1.2459  -1.2450  -1.2304
    -1.2272  -1.2091  -1.1933  -1.1846  -1.1679  -1.1604  -1.1532  -1.1383
    -1.1340  -1.1147  -1.1116  -1.1031  -1.0978  -1.0863  -1.0848  -1.0782
    -1.0711  -1.0481  -1.0354  -1.0249  -1.0197  -1.0177  -1.0156  -0.9957
    -0.9947  -0.9752  -0.9664  -0.9636  -0.9331  -0.9180

          k =-0.5000-0.2887 0.0000 (****** PWs)   bands (ev):

   -72.9792 -72.9791 -72.9728 -72.9724 -72.9069 -72.9068 -72.8951 -72.8929
   -72.8929 -72.8667 -72.8344 -72.8344 -72.8187 -72.8186 -72.8161 -72.8157
   -72.7430 -72.7429 -44.3884 -44.3871 -44.3786 -44.3783 -44.3622 -44.3605
   -44.3480 -44.3477 -44.3351 -44.3348 -44.3320 -44.3317 -44.3123 -44.3122
   -44.3004 -44.2983 -44.2983 -44.2841 -44.2841 -44.2727 -44.2693 -44.2693
   -44.2674 -44.2673 -44.2659 -44.2626 -44.2543 -44.2543 -44.2386 -44.2353
   -44.2348 -44.2348 -44.2206 -44.2202 -44.2189 -44.2189 -44.2123 -44.2123
   -44.1955 -44.1955 -44.1931 -44.1931 -44.1871 -44.1868 -44.1839 -44.1838
   -44.1831 -44.1828 -44.1429 -44.1425 -44.1182 -44.1161 -44.1084 -44.1077
   -16.2020 -16.1098 -16.0391 -16.0115 -15.9429 -15.8793 -15.8643 -15.7820
   -15.7186 -15.6249 -15.6029 -15.5560 -15.5499 -15.5027 -15.4978 -15.4450
   -15.4202 -15.4049 -15.3998 -15.3665 -15.3587 -15.3573 -15.3416 -15.3232
   -15.2960 -15.2869 -15.2767 -15.2668 -15.2560 -15.2431 -15.2334 -15.2224
   -15.2103 -15.1965 -15.1950 -15.1760 -15.1709 -15.1501 -15.1478 -15.1337
   -15.1260 -15.1079 -15.0917 -15.0838 -15.0591 -15.0454 -15.0342 -14.9683
   -14.9503 -14.9437 -14.8847 -14.8843 -14.8112 -14.7843  -7.6561  -7.6140
    -7.5572  -7.5204  -7.5128  -7.4527  -7.3898  -7.3482  -7.2763  -7.1244
    -7.0926  -7.0404  -7.0268  -7.0177  -6.9712  -6.9648  -6.9041  -6.8960
    -6.8587  -6.8340  -6.8128  -6.7651  -6.7294  -6.7151  -6.6857  -6.6605
    -6.6535  -6.6327  -6.6167  -6.5940  -6.5587  -6.5502  -6.5223  -6.4913
    -6.4895  -6.4670  -6.4559  -6.4291  -6.4248  -6.3860  -6.3348  -6.3214
    -6.3124  -6.2693  -6.2501  -6.2279  -6.1965  -6.1922  -6.1656  -6.1511
    -6.1302  -6.1101  -6.0955  -6.0792  -6.0438  -6.0264  -5.9749  -5.9619
    -5.9418  -5.8975  -5.8534  -5.8019  -5.8007  -5.6624  -5.6540  -5.6315
    -5.6241  -5.6027  -5.5787  -5.5717  -5.5487  -5.5336  -5.5148  -5.5036
    -5.4794  -5.4669  -5.4493  -5.4241  -5.4161  -5.3757  -5.3518  -5.3214
    -5.2996  -5.2827  -5.2448  -5.2377  -5.2224  -5.2124  -5.1890  -5.1681
    -5.1530  -5.1271  -5.1187  -5.0952  -5.0815  -5.0785  -5.0577  -5.0307
    -5.0067  -4.9542  -4.9364  -4.9312  -4.9222  -4.8895  -4.8743  -4.8601
    -4.8418  -4.8235  -4.8144  -4.7915  -4.7029  -4.6876  -4.6724  -4.6712
    -4.6429  -4.6243  -4.5894  -4.5751  -4.5628  -4.5413  -4.4958  -4.4937
    -4.4858  -4.4687  -4.4451  -4.4436  -4.4242  -4.4092  -4.3941  -4.3437
    -4.3240  -4.3057  -4.2967  -4.2832  -4.2647  -4.2502  -4.2346  -4.2134
    -4.1745  -4.1587  -4.1527  -4.1260  -4.1059  -4.0883  -4.0833  -4.0608
    -4.0589  -4.0333  -4.0072  -3.9838  -3.9607  -3.9524  -3.9473  -3.9089
    -3.9021  -3.8663  -3.8336  -3.8103  -3.7741  -3.7674  -3.7062  -3.6395
    -1.5549  -1.5501  -1.5220  -1.5110  -1.4887  -1.4714  -1.4666  -1.4517
    -1.4354  -1.4206  -1.4004  -1.3845  -1.3774  -1.3581  -1.3518  -1.3308
    -1.3161  -1.3034  -1.2833  -1.2782  -1.2620  -1.2517  -1.2488  -1.2321
    -1.2204  -1.1997  -1.1875  -1.1795  -1.1695  -1.1573  -1.1477  -1.1375
    -1.1312  -1.1267  -1.1207  -1.1006  -1.0917  -1.0825  -1.0775  -1.0696
    -1.0539  -1.0476  -1.0335  -1.0267  -1.0263  -1.0199  -1.0043  -0.9977
    -0.9942  -0.9809  -0.9704  -0.9555  -0.9369  -0.9257

     highest occupied, lowest unoccupied level (ev):    -3.3260   -1.5649

!    total energy              =  -24931.18909342 Ry
     total all-electron energy =    -24931.189093 Ry
     estimated scf accuracy    <          8.6E-11 Ry

     The total energy is the sum of the following terms:
     one-electron contribution =  -25177.32114719 Ry
     hartree contribution      =   12523.82633572 Ry
     xc contribution           =    -743.78660804 Ry
     ewald contribution        =    8913.20911809 Ry
     Hubbard energy            =      -0.01052400 Ry
     one-center paw contrib.   =  -20447.10626800 Ry

     total magnetization       =    54.00 Bohr mag/cell
     absolute magnetization    =    65.44 Bohr mag/cell

     convergence has been achieved in  12 iterations

     negative rho (up, down):  1.304E-01 1.475E-01

     Forces acting on atoms (cartesian axes, Ry/au):

     atom    1 type  1   force =    -0.00111206   -0.00194763    0.00011924
     atom    2 type  3   force =    -0.00245376   -0.00776934    0.00226477
     atom    3 type  3   force =    -0.00550257   -0.00601669    0.00226514
     atom    4 type  2   force =     0.00486984   -0.02270544   -0.00065682
     atom    5 type  2   force =    -0.00320420   -0.00555883   -0.00949169
     atom    6 type  2   force =    -0.02210342   -0.00713701   -0.00065753
     atom    7 type  2   force =     0.00731147   -0.02442578   -0.00194461
     atom    8 type  2   force =     0.00247515    0.00427322    0.00888637
     atom    9 type  2   force =    -0.02481266   -0.00588309   -0.00194375
     atom   10 type  3   force =    -0.00176036   -0.00209464    0.00022922
     atom   11 type  3   force =    -0.00562139   -0.00546399    0.00214604
     atom   12 type  2   force =     0.00494673    0.00062746   -0.00970588
     atom   13 type  2   force =    -0.00289984   -0.00482880   -0.00926312
     atom   14 type  2   force =    -0.02182045   -0.00648153   -0.00078095
     atom   15 type  2   force =    -0.00560932    0.00087663    0.00924540
     atom   16 type  2   force =     0.00235563    0.00469166    0.00945626
     atom   17 type  2   force =    -0.02497503   -0.00541914   -0.00195986
     atom   18 type  3   force =    -0.00134500   -0.00139016   -0.00052516
     atom   19 type  3   force =    -0.01444192    0.02876767    0.00308840
     atom   20 type  2   force =     0.00466497    0.00073101   -0.00975780
     atom   21 type  2   force =    -0.00418132    0.00236459   -0.00760089
     atom   22 type  2   force =    -0.01977185   -0.00451711    0.00137865
     atom   23 type  2   force =    -0.00560574    0.00077193    0.00953171
     atom   24 type  2   force =    -0.00279670    0.01174644    0.00748445
     atom   25 type  2   force =    -0.02316274    0.00012048   -0.00335670
     atom   26 type  3   force =    -0.00192635   -0.00759343    0.00214593
     atom   27 type  3   force =    -0.00092987   -0.00255075    0.00022819
     atom   28 type  2   force =     0.00529752   -0.02213270   -0.00078044
     atom   29 type  2   force =    -0.00272326   -0.00492390   -0.00925936
     atom   30 type  2   force =    -0.00195085    0.00456386   -0.00970826
     atom   31 type  2   force =     0.00779665   -0.02433428   -0.00196045
     atom   32 type  2   force =     0.00290301    0.00435637    0.00945680
     atom   33 type  2   force =     0.00355445   -0.00441812    0.00924250
     atom   34 type  3   force =    -0.00112426   -0.00197024    0.00012269
     atom   35 type  2   force =     0.00565030    0.00079794   -0.01011332
     atom   36 type  2   force =    -0.00291309   -0.00430583   -0.00943977
     atom   37 type  2   force =    -0.00171920    0.00532390   -0.00986074
     atom   38 type  2   force =    -0.00530493    0.00059257    0.00953441
     atom   39 type  2   force =     0.00255848    0.00517497    0.01023921
     atom   40 type  2   force =     0.00337344   -0.00395239    0.00928562
     atom   41 type  3   force =    -0.00067432   -0.00121882   -0.00063968
     atom   42 type  3   force =    -0.00990713    0.03240332    0.00109830
     atom   43 type  2   force =     0.00515406    0.00125722   -0.00990361
     atom   44 type  2   force =    -0.00376777    0.00281035   -0.00757536
     atom   45 type  2   force =    -0.00022079    0.00755282   -0.00794241
     atom   46 type  2   force =    -0.00512952    0.00081662    0.00956247
     atom   47 type  2   force =    -0.00238147    0.01192977    0.00802056
     atom   48 type  2   force =     0.00497940    0.00145631    0.00795477
     atom   49 type  3   force =     0.03213159    0.00187528    0.00308795
     atom   50 type  3   force =    -0.00053413   -0.00185878   -0.00052472
     atom   51 type  2   force =     0.00597301   -0.01937530    0.00137968
     atom   52 type  2   force =     0.00414542   -0.00244287   -0.00760059
     atom   53 type  2   force =    -0.00170887    0.00440049   -0.00975540
     atom   54 type  2   force =     0.01168593   -0.01999521   -0.00335806
     atom   55 type  2   force =     0.01157698    0.00344718    0.00748433
     atom   56 type  2   force =     0.00346440   -0.00447215    0.00953130
     atom   57 type  3   force =     0.03300571    0.00762121    0.00109694
     atom   58 type  3   force =    -0.00072722   -0.00120114   -0.00063896
     atom   59 type  2   force =     0.00665069    0.00359422   -0.00794183
     atom   60 type  2   force =     0.00435204   -0.00185861   -0.00757467
     atom   61 type  2   force =    -0.00129194    0.00542501   -0.01015212
     atom   62 type  2   force =    -0.00122925    0.00505044    0.00795262
     atom   63 type  2   force =     0.01152461    0.00389388    0.00801683
     atom   64 type  2   force =     0.00367481   -0.00400917    0.00981345
     atom   65 type  3   force =     0.03345602    0.00836762    0.00038916
     atom   66 type  3   force =    -0.00947766    0.03316354    0.00038888
     atom   67 type  2   force =     0.00635363    0.00365161   -0.00798934
     atom   68 type  2   force =     0.00304839    0.00526804   -0.00612690
     atom   69 type  2   force =    -0.00002293    0.00732788   -0.00799290
     atom   70 type  2   force =    -0.00129449    0.00480579    0.00826339
     atom   71 type  2   force =     0.00641482    0.01110384    0.00583004
     atom   72 type  2   force =     0.00479046    0.00124975    0.00826199

     Total force =     0.137543     Total SCF correction =     0.000007


     Computing stress (Cartesian axis) and pressure


     negative rho (up, down):  1.304E-01 1.475E-01
          total   stress  (Ry/bohr**3)                   (kbar)     P=        1.85
   0.00001246  -0.00000122   0.00000070            1.83       -0.18        0.10
  -0.00000122   0.00001105   0.00000121           -0.18        1.63        0.18
   0.00000070   0.00000121   0.00001423            0.10        0.18        2.09


     Writing all to output data dir ./Cr_0_-0.05/Cr_0_0.save/ :
     XML data file, charge density, pseudopotentials, collected wavefunctions

     init_run     :    212.65s CPU    130.19s WALL (       1 calls)
     electrons    :   3571.50s CPU   1930.88s WALL (       1 calls)
     forces       :   2541.26s CPU   1726.38s WALL (       1 calls)
     stress       :   6163.59s CPU   5087.39s WALL (       1 calls)

     Called by init_run:
     wfcinit      :    193.61s CPU    110.18s WALL (       1 calls)
     potinit      :      3.81s CPU      4.17s WALL (       1 calls)
     hinit0       :      2.72s CPU      2.77s WALL (       1 calls)

     Called by electrons:
     c_bands      :   3113.23s CPU   1656.40s WALL (      13 calls)
     sum_band     :    406.99s CPU    230.16s WALL (      13 calls)
     v_of_rho     :     17.30s CPU     14.29s WALL (      13 calls)
     newd         :     24.31s CPU     24.05s WALL (      13 calls)
     PAW_pot      :      8.71s CPU      6.09s WALL (      13 calls)
     mix_rho      :      2.43s CPU      1.90s WALL (      13 calls)

     Called by c_bands:
     init_us_2    :     22.78s CPU     11.79s WALL (     256 calls)
     init_us_2:cp :     22.77s CPU     11.78s WALL (     256 calls)
     cegterg      :   3086.35s CPU   1640.23s WALL (     104 calls)

     Called by *egterg:
     cdiaghg      :    345.68s CPU    198.54s WALL (     601 calls)
     h_psi        :   1823.20s CPU    940.85s WALL (     617 calls)
     s_psi        :    239.40s CPU    121.31s WALL (     657 calls)
     g_psi        :      6.51s CPU      3.34s WALL (     505 calls)

     Called by h_psi:
     h_psi:calbec :    229.07s CPU    119.17s WALL (     617 calls)
     vloc_psi     :   1361.78s CPU    695.29s WALL (     617 calls)
     add_vuspsi   :    198.40s CPU    100.62s WALL (     617 calls)
     vhpsi        :     28.56s CPU     16.25s WALL (     617 calls)

     General routines
     calbec       :   2428.91s CPU   1261.09s WALL (   56906 calls)
     fft          :     19.12s CPU     18.40s WALL (     365 calls)
     ffts         :      2.22s CPU      1.89s WALL (      52 calls)
     fftw         :   1235.10s CPU    633.37s WALL (  261762 calls)
     interpolate  :      2.65s CPU      2.31s WALL (      26 calls)

     Parallel routines

     Hubbard U routines
     new_ns       :      5.90s CPU      4.20s WALL (      13 calls)
     vhpsi        :     28.56s CPU     16.25s WALL (     617 calls)
     force_hub    :   2508.37s CPU   1707.87s WALL (       1 calls)
                                        0.00s GPU  (       1 calls)
     stres_hub    :   5592.02s CPU   4785.61s WALL (       1 calls)
                                        0.00s GPU  (       1 calls)

     PWSCF        :      3h28m CPU      2h28m WALL


   This run was terminated on:  22:53:13  26Sep2025            

=------------------------------------------------------------------------------=
   JOB DONE.
=------------------------------------------------------------------------------=
[1758923593.807210] [node054:1898746:0]          mpool.c:43   UCX  WARN  object 0x6223a80 was not returned to mpool ucp_requests
[1758923593.807230] [node054:1898746:0]          mpool.c:43   UCX  WARN  object 0x6211240 was not returned to mpool ucp_requests
[1758923593.807232] [node054:1898746:0]          mpool.c:43   UCX  WARN  object 0x6213700 was not returned to mpool ucp_requests
[1758923593.807234] [node054:1898746:0]          mpool.c:43   UCX  WARN  object 0x6214a40 was not returned to mpool ucp_requests
[1758923593.807235] [node054:1898746:0]          mpool.c:43   UCX  WARN  object 0x3589200 was not returned to mpool ucp_requests
[1758923593.807236] [node054:1898746:0]          mpool.c:43   UCX  WARN  object 0x3591e00 was not returned to mpool ucp_requests
[1758923593.807238] [node054:1898746:0]          mpool.c:43   UCX  WARN  object 0x3595980 was not returned to mpool ucp_requests
[1758923593.807148] [node054:1898734:0]          mpool.c:43   UCX  WARN  object 0x6c0ab40 was not returned to mpool ucp_requests
[1758923593.807171] [node054:1898734:0]          mpool.c:43   UCX  WARN  object 0x6c0d8c0 was not returned to mpool ucp_requests
[1758923593.807173] [node054:1898734:0]          mpool.c:43   UCX  WARN  object 0x6c10f00 was not returned to mpool ucp_requests
[1758923593.807174] [node054:1898734:0]          mpool.c:43   UCX  WARN  object 0x6c117c0 was not returned to mpool ucp_requests
[1758923593.807175] [node054:1898734:0]          mpool.c:43   UCX  WARN  object 0x6c12080 was not returned to mpool ucp_requests
[1758923593.807177] [node054:1898734:0]          mpool.c:43   UCX  WARN  object 0x6bfb940 was not returned to mpool ucp_requests
[1758923593.807178] [node054:1898734:0]          mpool.c:43   UCX  WARN  object 0x6bfcc80 was not returned to mpool ucp_requests
[1758923593.807179] [node054:1898734:0]          mpool.c:43   UCX  WARN  object 0x6bfedc0 was not returned to mpool ucp_requests
[1758923593.807180] [node054:1898734:0]          mpool.c:43   UCX  WARN  object 0x6c00b80 was not returned to mpool ucp_requests
[1758923593.807182] [node054:1898734:0]          mpool.c:43   UCX  WARN  object 0x3f6f240 was not returned to mpool ucp_requests
[1758923593.807183] [node054:1898734:0]          mpool.c:43   UCX  WARN  object 0x3f70580 was not returned to mpool ucp_requests
[1758923593.807184] [node054:1898734:0]          mpool.c:43   UCX  WARN  object 0x3f70740 was not returned to mpool ucp_requests
[1758923593.807185] [node054:1898734:0]          mpool.c:43   UCX  WARN  object 0x3f74640 was not returned to mpool ucp_requests
[1758923593.807186] [node054:1898734:0]          mpool.c:43   UCX  WARN  object 0x3f765c0 was not returned to mpool ucp_requests
[1758923593.807188] [node054:1898734:0]          mpool.c:43   UCX  WARN  object 0x3f7c0c0 was not returned to mpool ucp_requests
[1758923593.807723] [node054:1898750:0]          mpool.c:43   UCX  WARN  object 0x69c8340 was not returned to mpool ucp_requests
[1758923593.807745] [node054:1898750:0]          mpool.c:43   UCX  WARN  object 0x69ca800 was not returned to mpool ucp_requests
[1758923593.807748] [node054:1898750:0]          mpool.c:43   UCX  WARN  object 0x69b9880 was not returned to mpool ucp_requests
[1758923593.807749] [node054:1898750:0]          mpool.c:43   UCX  WARN  object 0x69bfc40 was not returned to mpool ucp_requests
[1758923593.807751] [node054:1898750:0]          mpool.c:43   UCX  WARN  object 0x3d3f580 was not returned to mpool ucp_requests
[1758923593.807752] [node054:1898750:0]          mpool.c:43   UCX  WARN  object 0x3d41500 was not returned to mpool ucp_requests
