
     Program PWSCF v.7.3 starts on 15Oct2025 at 16:48: 0 

     This program is part of the open-source Quantum ESPRESSO suite
     for quantum simulation of materials; please cite
         "P. Giannozzi et al., J. Phys.:Condens. Matter 21 395502 (2009);
         "P. Giannozzi et al., J. Phys.:Condens. Matter 29 465901 (2017);
         "P. Giannozzi et al., J. Chem. Phys. 152 154105 (2020);
          URL http://www.quantum-espresso.org", 
     in publications or presentations arising from this work. More details at
     http://www.quantum-espresso.org/quote

     Parallel version (MPI), running on    24 processors

     MPI processes distributed on     1 nodes
     42218 MiB available memory on the printing compute node when the environment starts

     Reading input from ht_afm_fm_qe.scf.in
Warning: card &CELL ignored
Warning: card / ignored

     Current dimensions of program PWSCF are:
     Max number of different atomic species (ntypx) = 10
     Max number of k-points (npk) =  40000
     Max angular momentum in pseudopotentials (lmaxx) =  4
read_pp_mesh; mismatch in mesh size, discarding the one in header
read_pp_mesh; mismatch in mesh size, discarding the one in header
     file Cr.GGA-PBE-paw.UPF: wavefunction(s)  3S 4S 3P 4P 3D 4D renormalized
     file I.GGA-PBE-paw.UPF: wavefunction(s)  6S 6P renormalized

     IMPORTANT: XC functional enforced from input :
     Exchange-correlation= PBE
                           (   1   4   3   4   0   0   0)
     Any further DFT definition will be discarded
     Please, verify this is what you really want

     Message from routine setup:
     using ibrav=0 with symmetry is DISCOURAGED, use correct ibrav instead

     R & G space division:  proc/nbgrp/npool/nimage =      24
     Subspace diagonalization in iterative solution of the eigenvalue problem:
     a serial algorithm will be used


     Parallelization info
     --------------------
     sticks:   dense  smooth     PW     G-vecs:    dense   smooth      PW
     Min         179     174     46                38065    36532    5046
     Max         180     175     47                38082    36557    5059
     Sum        4303    4189   1123               913669   876961  121297

     Using Slab Decomposition



     bravais-lattice index     =            0
     lattice parameter (alat)  =      12.9956  a.u.
     unit-cell volume          =    7602.9282 (a.u.)^3
     number of atoms/cell      =           16
     number of atomic types    =            2
     number of electrons       =       140.00 (up:  76.00, down:  64.00)
     number of Kohn-Sham states=          100
     kinetic-energy cutoff     =      90.0000  Ry
     charge density cutoff     =     370.0000  Ry
     scf convergence threshold =      1.0E-11
     mixing beta               =       0.5000
     number of iterations used =            8  plain     mixing
     Exchange-correlation= PBE
                           (   1   4   3   4   0   0   0)
     Hubbard projectors: atomic
     Hubbard parameters of DFT+U (Dudarev formulation) in eV:
     U(Cr-3d) =  2.7300

     Internal variables: lda_plus_u =T, lda_plus_u_kind = 0

     celldm(1)=  12.995613  celldm(2)=   0.000000  celldm(3)=   0.000000
     celldm(4)=   0.000000  celldm(5)=   0.000000  celldm(6)=   0.000000

     crystal axes: (cart. coord. in units of alat)
               a(1) = (   1.000000  -0.000000   0.000000 )  
               a(2) = (  -0.500000   0.866025   0.000000 )  
               a(3) = (  -0.000000   0.000000   4.000000 )  

     reciprocal axes: (cart. coord. in units 2 pi/alat)
               b(1) = (  1.000000  0.577350  0.000000 )  
               b(2) = (  0.000000  1.154701  0.000000 )  
               b(3) = ( -0.000000 -0.000000  0.250000 )  


     PseudoPot. # 1 for Cr read from file:
     ../../Cr.GGA-PBE-paw.UPF
     MD5 check sum: 0e9dc003703e132720ff5dfacba66d28
     Pseudo is Projector augmented-wave + core cor, Zval = 14.0
     Generated using ATOMPAW code
     Shape of augmentation charge: SINC**2
     Using radial grid of 2342 points,  6 beta functions with: 
                l(1) =   0
                l(2) =   0
                l(3) =   1
                l(4) =   1
                l(5) =   2
                l(6) =   2
     Q(r) pseudized with 0 coefficients 


     PseudoPot. # 2 for I  read from file:
     ../../I.GGA-PBE-paw.UPF
     MD5 check sum: 736bb4145856fa7ed29d0984862794a4
     Pseudo is Projector augmented-wave + core cor, Zval =  7.0
     Generated using ATOMPAW code
     Shape of augmentation charge: SINC**2
     Using radial grid of 2342 points,  4 beta functions with: 
                l(1) =   0
                l(2) =   0
                l(3) =   1
                l(4) =   1
     Q(r) pseudized with 0 coefficients 


     atomic species   valence    mass     pseudopotential
     Cr               14.00    51.99610     Cr( 1.00)
     I                 7.00   126.90447     I ( 1.00)

     Starting magnetic structure 
     atomic species   magnetization
     Cr              0.214
     I               0.000

      2 Sym. Ops. (no inversion) found



   Cartesian axes

     site n.     atom                  positions (alat units)
         1        Cr     tau(   1) = (   0.8332322   0.2888117   2.2705821  )
         2        Cr     tau(   2) = (   0.3332322   0.5772137   2.2705821  )
         3        I      tau(   3) = (   0.9768883  -0.0000019   2.0450771  )
         4        I      tau(   4) = (   0.5113602   0.3087614   2.0460861  )
         5        I      tau(   5) = (   0.0113635   0.5572659   2.0460861  )
         6        I      tau(   6) = (   0.6899037  -0.0000017   2.4948790  )
         7        I      tau(   7) = (   0.6550688   0.5572240   2.4948552  )
         8        I      tau(   8) = (   0.1550716   0.3088031   2.4948552  )
         9        Cr     tau(   9) = (   0.5001000   0.2888088   1.3132553  )
        10        Cr     tau(  10) = (   0.0001000   0.5772166   1.3132554  )
        11        I      tau(  11) = (   0.6434309  -0.0000019   1.0889581  )
        12        I      tau(  12) = (   0.1782615   0.3088030   1.0889818  )
        13        I      tau(  13) = (  -0.3217352   0.5572244   1.0889818  )
        14        I      tau(  14) = (   0.3564452  -0.0000017   1.5387600  )
        15        I      tau(  15) = (   0.3219705   0.5572651   1.5377500  )
        16        I      tau(  16) = (  -0.1780267   0.3087620   1.5377500  )

     number of k points=    13
                       cart. coord. in units 2pi/alat
        k(    1) = (   0.0000000   0.0000000   0.0000000), wk =   0.0277778
        k(    2) = (   0.0000000   0.1924501   0.0000000), wk =   0.0555556
        k(    3) = (   0.0000000   0.3849002   0.0000000), wk =   0.0555556
        k(    4) = (   0.0000000  -0.5773503   0.0000000), wk =   0.0277778
        k(    5) = (   0.1666667   0.2886751   0.0000000), wk =   0.1111111
        k(    6) = (   0.1666667   0.4811252   0.0000000), wk =   0.1111111
        k(    7) = (   0.3333333   0.5773503   0.0000000), wk =   0.0555556
        k(    8) = (  -0.1666667   0.0962250   0.0000000), wk =   0.1111111
        k(    9) = (  -0.3333333   0.1924501   0.0000000), wk =   0.1111111
        k(   10) = (   0.5000000  -0.2886751   0.0000000), wk =   0.0555556
        k(   11) = (   0.3333333   0.0000000   0.0000000), wk =   0.0555556
        k(   12) = (  -0.3333333   0.3849002   0.0000000), wk =   0.1111111
        k(   13) = (   0.5000000   0.0962250   0.0000000), wk =   0.1111111

     Dense  grid:   913669 G-vectors     FFT dimensions: (  80,  80, 320)

     Smooth grid:   876961 G-vectors     FFT dimensions: (  80,  80, 320)

     Estimated max dynamical RAM per process >     475.55 MB

     Estimated total dynamical RAM >      11.15 GB
 ----2D----2D----2D----2D----2D----2D----2D----2D----2D----2D----2D----2D
  The code is running with the 2D cutoff
  Please refer to:
  Sohier, T., Calandra, M., & Mauri, F. (2017), 
  Density functional perturbation theory for gated two-dimensional heterostructures:
  Theoretical developments and application to flexural phonons in graphene.
  Physical Review B, 96(7), 75448. https://doi.org/10.1103/PhysRevB.96.075448
 ----2D----2D----2D----2D----2D----2D----2D----2D----2D----2D----2D----2D
     Generating pointlists ...
     new r_m :   0.1619 (alat units)  2.1043 (a.u.) for type    1
     new r_m :   0.1619 (alat units)  2.1043 (a.u.) for type    2
     Cannot read rho : file not found

     Initial potential from superposition of free atoms

     starting charge     139.9932, renormalised to     140.0000

     negative rho (up, down):  2.612E-02 2.659E-02

     STARTING HUBBARD OCCUPATIONS:

     =================== HUBBARD OCCUPATIONS ===================
     ------------------------ ATOM    1 ------------------------
     Tr[ns(  1)] (up, down, total) =   5.00000  0.00000  5.00000
     Atomic magnetic moment for atom   1 =   5.00000
     SPIN  1
     eigenvalues:
       1.000  1.000  1.000  1.000  1.000
     eigenvectors (columns):
       1.000  0.000  0.000  0.000  0.000
       0.000  1.000  0.000  0.000  0.000
       0.000  0.000  1.000  0.000  0.000
       0.000  0.000  0.000  1.000  0.000
       0.000  0.000  0.000  0.000  1.000
     occupation matrix ns (before diag.):
       1.000  0.000  0.000  0.000  0.000
       0.000  1.000  0.000  0.000  0.000
       0.000  0.000  1.000  0.000  0.000
       0.000  0.000  0.000  1.000  0.000
       0.000  0.000  0.000  0.000  1.000
     SPIN  2
     eigenvalues:
       0.000  0.000  0.000  0.000  0.000
     eigenvectors (columns):
       1.000  0.000  0.000  0.000  0.000
       0.000  1.000  0.000  0.000  0.000
       0.000  0.000  1.000  0.000  0.000
       0.000  0.000  0.000  1.000  0.000
       0.000  0.000  0.000  0.000  1.000
     occupation matrix ns (before diag.):
       0.000  0.000  0.000  0.000  0.000
       0.000  0.000  0.000  0.000  0.000
       0.000  0.000  0.000  0.000  0.000
       0.000  0.000  0.000  0.000  0.000
       0.000  0.000  0.000  0.000  0.000
     ------------------------ ATOM    2 ------------------------
     Tr[ns(  2)] (up, down, total) =   5.00000  0.00000  5.00000
     Atomic magnetic moment for atom   2 =   5.00000
     SPIN  1
     eigenvalues:
       1.000  1.000  1.000  1.000  1.000
     eigenvectors (columns):
       1.000  0.000  0.000  0.000  0.000
       0.000  1.000  0.000  0.000  0.000
       0.000  0.000  1.000  0.000  0.000
       0.000  0.000  0.000  1.000  0.000
       0.000  0.000  0.000  0.000  1.000
     occupation matrix ns (before diag.):
       1.000  0.000  0.000  0.000  0.000
       0.000  1.000  0.000  0.000  0.000
       0.000  0.000  1.000  0.000  0.000
       0.000  0.000  0.000  1.000  0.000
       0.000  0.000  0.000  0.000  1.000
     SPIN  2
     eigenvalues:
       0.000  0.000  0.000  0.000  0.000
     eigenvectors (columns):
       1.000  0.000  0.000  0.000  0.000
       0.000  1.000  0.000  0.000  0.000
       0.000  0.000  1.000  0.000  0.000
       0.000  0.000  0.000  1.000  0.000
       0.000  0.000  0.000  0.000  1.000
     occupation matrix ns (before diag.):
       0.000  0.000  0.000  0.000  0.000
       0.000  0.000  0.000  0.000  0.000
       0.000  0.000  0.000  0.000  0.000
       0.000  0.000  0.000  0.000  0.000
       0.000  0.000  0.000  0.000  0.000
     ------------------------ ATOM    9 ------------------------
     Tr[ns(  9)] (up, down, total) =   5.00000  0.00000  5.00000
     Atomic magnetic moment for atom   9 =   5.00000
     SPIN  1
     eigenvalues:
       1.000  1.000  1.000  1.000  1.000
     eigenvectors (columns):
       1.000  0.000  0.000  0.000  0.000
       0.000  1.000  0.000  0.000  0.000
       0.000  0.000  1.000  0.000  0.000
       0.000  0.000  0.000  1.000  0.000
       0.000  0.000  0.000  0.000  1.000
     occupation matrix ns (before diag.):
       1.000  0.000  0.000  0.000  0.000
       0.000  1.000  0.000  0.000  0.000
       0.000  0.000  1.000  0.000  0.000
       0.000  0.000  0.000  1.000  0.000
       0.000  0.000  0.000  0.000  1.000
     SPIN  2
     eigenvalues:
       0.000  0.000  0.000  0.000  0.000
     eigenvectors (columns):
       1.000  0.000  0.000  0.000  0.000
       0.000  1.000  0.000  0.000  0.000
       0.000  0.000  1.000  0.000  0.000
       0.000  0.000  0.000  1.000  0.000
       0.000  0.000  0.000  0.000  1.000
     occupation matrix ns (before diag.):
       0.000  0.000  0.000  0.000  0.000
       0.000  0.000  0.000  0.000  0.000
       0.000  0.000  0.000  0.000  0.000
       0.000  0.000  0.000  0.000  0.000
       0.000  0.000  0.000  0.000  0.000
     ------------------------ ATOM   10 ------------------------
     Tr[ns( 10)] (up, down, total) =   5.00000  0.00000  5.00000
     Atomic magnetic moment for atom  10 =   5.00000
     SPIN  1
     eigenvalues:
       1.000  1.000  1.000  1.000  1.000
     eigenvectors (columns):
       1.000  0.000  0.000  0.000  0.000
       0.000  1.000  0.000  0.000  0.000
       0.000  0.000  1.000  0.000  0.000
       0.000  0.000  0.000  1.000  0.000
       0.000  0.000  0.000  0.000  1.000
     occupation matrix ns (before diag.):
       1.000  0.000  0.000  0.000  0.000
       0.000  1.000  0.000  0.000  0.000
       0.000  0.000  1.000  0.000  0.000
       0.000  0.000  0.000  1.000  0.000
       0.000  0.000  0.000  0.000  1.000
     SPIN  2
     eigenvalues:
       0.000  0.000  0.000  0.000  0.000
     eigenvectors (columns):
       1.000  0.000  0.000  0.000  0.000
       0.000  1.000  0.000  0.000  0.000
       0.000  0.000  1.000  0.000  0.000
       0.000  0.000  0.000  1.000  0.000
       0.000  0.000  0.000  0.000  1.000
     occupation matrix ns (before diag.):
       0.000  0.000  0.000  0.000  0.000
       0.000  0.000  0.000  0.000  0.000
       0.000  0.000  0.000  0.000  0.000
       0.000  0.000  0.000  0.000  0.000
       0.000  0.000  0.000  0.000  0.000

     Number of occupied Hubbard levels =   20.0000

     Atomic wfc used for Hubbard projectors are NOT orthogonalized

     Starting wfcs are  168 atomic wfcs
     Checking if some PAW data can be deallocated... 

     total cpu time spent up to now is       30.4 secs

     Self-consistent Calculation

     iteration #  1     ecut=    90.00 Ry     beta= 0.50
     Davidson diagonalization with overlap
     ethr =  1.00E-05,  avg # of iterations =  9.4

     =================== HUBBARD OCCUPATIONS ===================
     ------------------------ ATOM    1 ------------------------
     Tr[ns(  1)] (up, down, total) =   4.01606  0.76254  4.77859
     Atomic magnetic moment for atom   1 =   3.25352
     SPIN  1
     eigenvalues:
       0.547  0.548  0.972  0.974  0.974
     eigenvectors (columns):
       0.001  0.000 -0.990 -0.140  0.003
       0.528 -0.642  0.069 -0.479  0.275
      -0.643 -0.527 -0.037  0.270  0.484
      -0.351  0.431  0.102 -0.715  0.411
      -0.430 -0.352  0.055 -0.408 -0.722
     occupation matrix ns (before diag.):
       0.972 -0.000  0.000  0.000  0.000
      -0.000  0.680  0.001  0.197  0.001
       0.000  0.001  0.679  0.000 -0.197
       0.000  0.197  0.000  0.842  0.000
       0.000  0.001 -0.197  0.000  0.843
     SPIN  2
     eigenvalues:
       0.089  0.094  0.094  0.243  0.243
     eigenvectors (columns):
       1.000  0.020 -0.010  0.001  0.000
      -0.001  0.269  0.515  0.521 -0.625
      -0.012  0.515 -0.268 -0.626 -0.521
       0.000  0.376  0.722 -0.371  0.447
       0.019 -0.721  0.377 -0.446 -0.372
     occupation matrix ns (before diag.):
       0.089  0.000 -0.000 -0.000 -0.000
       0.000  0.193  0.000 -0.070  0.000
      -0.000  0.000  0.193 -0.000  0.070
      -0.000 -0.070 -0.000  0.144 -0.000
      -0.000  0.000  0.070 -0.000  0.144
     ------------------------ ATOM    2 ------------------------
     Tr[ns(  2)] (up, down, total) =   4.01606  0.76254  4.77859
     Atomic magnetic moment for atom   2 =   3.25352
     SPIN  1
     eigenvalues:
       0.547  0.548  0.972  0.974  0.974
     eigenvectors (columns):
       0.001  0.000 -0.990 -0.140  0.003
       0.528 -0.642  0.069 -0.479  0.275
       0.643  0.527  0.037 -0.270 -0.484
      -0.351  0.431  0.102 -0.715  0.411
       0.430  0.352 -0.055  0.408  0.722
     occupation matrix ns (before diag.):
       0.972 -0.000 -0.000  0.000 -0.000
      -0.000  0.680 -0.001  0.197 -0.001
      -0.000 -0.001  0.679 -0.000 -0.197
       0.000  0.197 -0.000  0.842 -0.000
      -0.000 -0.001 -0.197 -0.000  0.843
     SPIN  2
     eigenvalues:
       0.089  0.094  0.094  0.243  0.243
     eigenvectors (columns):
      -1.000 -0.020 -0.010 -0.001 -0.000
       0.001 -0.269  0.515 -0.521  0.625
      -0.012  0.515  0.268 -0.626 -0.521
      -0.000 -0.376  0.722  0.371 -0.447
       0.019 -0.721 -0.377 -0.446 -0.372
     occupation matrix ns (before diag.):
       0.089  0.000  0.000 -0.000  0.000
       0.000  0.193 -0.000 -0.070 -0.000
       0.000 -0.000  0.193  0.000  0.070
      -0.000 -0.070  0.000  0.144  0.000
       0.000 -0.000  0.070  0.000  0.144
     ------------------------ ATOM    9 ------------------------
     Tr[ns(  9)] (up, down, total) =   4.01606  0.76254  4.77860
     Atomic magnetic moment for atom   9 =   3.25352
     SPIN  1
     eigenvalues:
       0.547  0.548  0.972  0.974  0.974
     eigenvectors (columns):
       0.001  0.000 -0.990 -0.140  0.004
       0.528 -0.642  0.069 -0.478  0.276
       0.643  0.527  0.037 -0.271 -0.484
      -0.351  0.431  0.102 -0.714  0.412
       0.430  0.352 -0.055  0.410  0.721
     occupation matrix ns (before diag.):
       0.972 -0.000 -0.000  0.000 -0.000
      -0.000  0.680 -0.001  0.197 -0.001
      -0.000 -0.001  0.679 -0.000 -0.197
       0.000  0.197 -0.000  0.842 -0.000
      -0.000 -0.001 -0.197 -0.000  0.843
     SPIN  2
     eigenvalues:
       0.089  0.094  0.094  0.243  0.243
     eigenvectors (columns):
      -1.000 -0.020 -0.010 -0.001 -0.000
       0.001 -0.269  0.515 -0.522  0.625
      -0.012  0.515  0.268 -0.625 -0.521
      -0.000 -0.377  0.721  0.372 -0.447
       0.019 -0.721 -0.378 -0.446 -0.372
     occupation matrix ns (before diag.):
       0.089  0.000  0.000 -0.000  0.000
       0.000  0.193 -0.000 -0.070 -0.000
       0.000 -0.000  0.193  0.000  0.070
      -0.000 -0.070  0.000  0.144  0.000
       0.000 -0.000  0.070  0.000  0.144
     ------------------------ ATOM   10 ------------------------
     Tr[ns( 10)] (up, down, total) =   4.01606  0.76254  4.77860
     Atomic magnetic moment for atom  10 =   3.25352
     SPIN  1
     eigenvalues:
       0.547  0.548  0.972  0.974  0.974
     eigenvectors (columns):
       0.001  0.000 -0.990 -0.140  0.004
       0.528 -0.642  0.069 -0.478  0.276
      -0.643 -0.527 -0.037  0.271  0.484
      -0.351  0.431  0.102 -0.714  0.412
      -0.430 -0.352  0.055 -0.410 -0.721
     occupation matrix ns (before diag.):
       0.972 -0.000  0.000  0.000  0.000
      -0.000  0.680  0.001  0.197  0.001
       0.000  0.001  0.679  0.000 -0.197
       0.000  0.197  0.000  0.842  0.000
       0.000  0.001 -0.197  0.000  0.843
     SPIN  2
     eigenvalues:
       0.089  0.094  0.094  0.243  0.243
     eigenvectors (columns):
       1.000  0.020 -0.010  0.001  0.000
      -0.001  0.269  0.515  0.522 -0.625
      -0.012  0.515 -0.268 -0.625 -0.521
       0.000  0.377  0.721 -0.372  0.447
       0.019 -0.721  0.378 -0.446 -0.372
     occupation matrix ns (before diag.):
       0.089  0.000 -0.000 -0.000 -0.000
       0.000  0.193  0.000 -0.070  0.000
      -0.000  0.000  0.193 -0.000  0.070
      -0.000 -0.070 -0.000  0.144 -0.000
      -0.000  0.000  0.070 -0.000  0.144

     Number of occupied Hubbard levels =   19.1144

     negative rho (up, down):  3.011E-02 3.272E-02

     total cpu time spent up to now is      195.2 secs

     total energy              =   -5538.04516486 Ry
     estimated scf accuracy    <       2.90826684 Ry

     total magnetization       =    12.00 Bohr mag/cell
     absolute magnetization    =    14.80 Bohr mag/cell

     iteration #  2     ecut=    90.00 Ry     beta= 0.50
     Davidson diagonalization with overlap
     ethr =  2.08E-03,  avg # of iterations =  4.5

     negative rho (up, down):  2.877E-02 2.970E-02

     total cpu time spent up to now is      264.7 secs

     total energy              =   -5533.24268867 Ry
     estimated scf accuracy    <      59.09622658 Ry

     total magnetization       =    12.00 Bohr mag/cell
     absolute magnetization    =    12.07 Bohr mag/cell

     iteration #  3     ecut=    90.00 Ry     beta= 0.50
     Davidson diagonalization with overlap
     ethr =  2.08E-03,  avg # of iterations =  2.8

     negative rho (up, down):  2.961E-02 3.191E-02

     total cpu time spent up to now is      319.7 secs

     total energy              =   -5539.66644748 Ry
     estimated scf accuracy    <       0.77527688 Ry

     total magnetization       =    12.00 Bohr mag/cell
     absolute magnetization    =    15.40 Bohr mag/cell

     iteration #  4     ecut=    90.00 Ry     beta= 0.50
     Davidson diagonalization with overlap
     ethr =  5.54E-04,  avg # of iterations =  1.8

     negative rho (up, down):  2.952E-02 3.340E-02

     total cpu time spent up to now is      362.3 secs

     total energy              =   -5539.70865654 Ry
     estimated scf accuracy    <       0.13274042 Ry

     total magnetization       =    12.00 Bohr mag/cell
     absolute magnetization    =    15.66 Bohr mag/cell

     iteration #  5     ecut=    90.00 Ry     beta= 0.50
     Davidson diagonalization with overlap
     ethr =  9.48E-05,  avg # of iterations =  3.8

     negative rho (up, down):  2.907E-02 3.385E-02

     total cpu time spent up to now is      411.7 secs

     total energy              =   -5539.73079060 Ry
     estimated scf accuracy    <       0.01426808 Ry

     total magnetization       =    12.00 Bohr mag/cell
     absolute magnetization    =    15.97 Bohr mag/cell

     iteration #  6     ecut=    90.00 Ry     beta= 0.50
     Davidson diagonalization with overlap
     ethr =  1.02E-05,  avg # of iterations =  7.6

     negative rho (up, down):  2.758E-02 3.502E-02

     total cpu time spent up to now is      486.1 secs

     total energy              =   -5539.73855144 Ry
     estimated scf accuracy    <       0.01761259 Ry

     total magnetization       =    12.00 Bohr mag/cell
     absolute magnetization    =    16.13 Bohr mag/cell

     iteration #  7     ecut=    90.00 Ry     beta= 0.50
     Davidson diagonalization with overlap
     ethr =  1.02E-05,  avg # of iterations =  6.2

     negative rho (up, down):  2.755E-02 3.519E-02

     total cpu time spent up to now is      543.9 secs

     total energy              =   -5539.74166876 Ry
     estimated scf accuracy    <       0.00236609 Ry

     total magnetization       =    12.00 Bohr mag/cell
     absolute magnetization    =    16.51 Bohr mag/cell

     iteration #  8     ecut=    90.00 Ry     beta= 0.50
     Davidson diagonalization with overlap
     ethr =  1.69E-06,  avg # of iterations =  3.7

     negative rho (up, down):  2.753E-02 3.521E-02

     total cpu time spent up to now is      592.2 secs

     total energy              =   -5539.74190732 Ry
     estimated scf accuracy    <       0.00036587 Ry

     total magnetization       =    12.00 Bohr mag/cell
     absolute magnetization    =    16.50 Bohr mag/cell

     iteration #  9     ecut=    90.00 Ry     beta= 0.50
     Davidson diagonalization with overlap
     ethr =  2.61E-07,  avg # of iterations =  4.5

     negative rho (up, down):  2.746E-02 3.525E-02

     total cpu time spent up to now is      644.7 secs

     total energy              =   -5539.74194784 Ry
     estimated scf accuracy    <       0.00026390 Ry

     total magnetization       =    12.00 Bohr mag/cell
     absolute magnetization    =    16.49 Bohr mag/cell

     iteration # 10     ecut=    90.00 Ry     beta= 0.50
     Davidson diagonalization with overlap
     ethr =  1.89E-07,  avg # of iterations =  2.0

     negative rho (up, down):  2.733E-02 3.527E-02

     total cpu time spent up to now is      688.4 secs

     total energy              =   -5539.74200243 Ry
     estimated scf accuracy    <       0.00000393 Ry

     total magnetization       =    12.00 Bohr mag/cell
     absolute magnetization    =    16.48 Bohr mag/cell

     iteration # 11     ecut=    90.00 Ry     beta= 0.50
     Davidson diagonalization with overlap
     ethr =  2.81E-09,  avg # of iterations =  4.6

     negative rho (up, down):  2.728E-02 3.529E-02

     total cpu time spent up to now is      766.6 secs

     total energy              =   -5539.74201018 Ry
     estimated scf accuracy    <       0.00000332 Ry

     total magnetization       =    12.00 Bohr mag/cell
     absolute magnetization    =    16.49 Bohr mag/cell

     iteration # 12     ecut=    90.00 Ry     beta= 0.50
     Davidson diagonalization with overlap
     ethr =  2.37E-09,  avg # of iterations =  2.0

     negative rho (up, down):  2.720E-02 3.532E-02

     total cpu time spent up to now is      813.0 secs

     total energy              =   -5539.74201242 Ry
     estimated scf accuracy    <       0.00000331 Ry

     total magnetization       =    12.00 Bohr mag/cell
     absolute magnetization    =    16.50 Bohr mag/cell

     iteration # 13     ecut=    90.00 Ry     beta= 0.50
     Davidson diagonalization with overlap
     ethr =  2.36E-09,  avg # of iterations =  2.0

     negative rho (up, down):  2.717E-02 3.533E-02

     total cpu time spent up to now is      856.3 secs

     total energy              =   -5539.74201322 Ry
     estimated scf accuracy    <       0.00000186 Ry

     total magnetization       =    12.00 Bohr mag/cell
     absolute magnetization    =    16.51 Bohr mag/cell

     iteration # 14     ecut=    90.00 Ry     beta= 0.50
     Davidson diagonalization with overlap
     ethr =  1.33E-09,  avg # of iterations =  1.5

     negative rho (up, down):  2.715E-02 3.534E-02

     total cpu time spent up to now is      898.5 secs

     total energy              =   -5539.74201361 Ry
     estimated scf accuracy    <       0.00000037 Ry

     total magnetization       =    12.00 Bohr mag/cell
     absolute magnetization    =    16.51 Bohr mag/cell

     iteration # 15     ecut=    90.00 Ry     beta= 0.50
     Davidson diagonalization with overlap
     ethr =  2.64E-10,  avg # of iterations =  3.0

     negative rho (up, down):  2.714E-02 3.535E-02

     total cpu time spent up to now is      949.3 secs

     total energy              =   -5539.74201380 Ry
     estimated scf accuracy    <       0.00000009 Ry

     total magnetization       =    12.00 Bohr mag/cell
     absolute magnetization    =    16.51 Bohr mag/cell

     iteration # 16     ecut=    90.00 Ry     beta= 0.50
     Davidson diagonalization with overlap
     ethr =  6.43E-11,  avg # of iterations =  3.3

     negative rho (up, down):  2.713E-02 3.535E-02

     total cpu time spent up to now is      999.9 secs

     total energy              =   -5539.74201386 Ry
     estimated scf accuracy    <       0.00000005 Ry

     total magnetization       =    12.00 Bohr mag/cell
     absolute magnetization    =    16.52 Bohr mag/cell

     iteration # 17     ecut=    90.00 Ry     beta= 0.50
     Davidson diagonalization with overlap
     ethr =  3.59E-11,  avg # of iterations =  2.0

     negative rho (up, down):  2.713E-02 3.536E-02

     total cpu time spent up to now is     1046.9 secs

     total energy              =   -5539.74201388 Ry
     estimated scf accuracy    <       0.00000002 Ry

     total magnetization       =    12.00 Bohr mag/cell
     absolute magnetization    =    16.52 Bohr mag/cell

     iteration # 18     ecut=    90.00 Ry     beta= 0.50
     Davidson diagonalization with overlap
     ethr =  1.76E-11,  avg # of iterations =  2.7

     negative rho (up, down):  2.714E-02 3.536E-02

     total cpu time spent up to now is     1094.4 secs

     total energy              =   -5539.74201389 Ry
     estimated scf accuracy    <          1.9E-09 Ry

     total magnetization       =    12.00 Bohr mag/cell
     absolute magnetization    =    16.52 Bohr mag/cell

     iteration # 19     ecut=    90.00 Ry     beta= 0.50
     Davidson diagonalization with overlap
     ethr =  1.34E-12,  avg # of iterations =  4.0

     negative rho (up, down):  2.713E-02 3.536E-02

     total cpu time spent up to now is     1158.8 secs

     total energy              =   -5539.74201389 Ry
     estimated scf accuracy    <          2.5E-09 Ry

     total magnetization       =    12.00 Bohr mag/cell
     absolute magnetization    =    16.52 Bohr mag/cell

     iteration # 20     ecut=    90.00 Ry     beta= 0.50
     Davidson diagonalization with overlap
     ethr =  1.34E-12,  avg # of iterations =  2.0

     negative rho (up, down):  2.713E-02 3.536E-02

     total cpu time spent up to now is     1203.0 secs

     total energy              =   -5539.74201389 Ry
     estimated scf accuracy    <          2.7E-10 Ry

     total magnetization       =    12.00 Bohr mag/cell
     absolute magnetization    =    16.52 Bohr mag/cell

     iteration # 21     ecut=    90.00 Ry     beta= 0.50
     Davidson diagonalization with overlap
     ethr =  1.91E-13,  avg # of iterations =  2.0

     negative rho (up, down):  2.713E-02 3.536E-02

     total cpu time spent up to now is     1247.5 secs

     total energy              =   -5539.74201389 Ry
     estimated scf accuracy    <          1.7E-10 Ry

     total magnetization       =    12.00 Bohr mag/cell
     absolute magnetization    =    16.52 Bohr mag/cell

     iteration # 22     ecut=    90.00 Ry     beta= 0.50
     Davidson diagonalization with overlap
     ethr =  1.21E-13,  avg # of iterations =  1.5

     negative rho (up, down):  2.713E-02 3.536E-02

     total cpu time spent up to now is     1290.1 secs

     total energy              =   -5539.74201389 Ry
     estimated scf accuracy    <          1.3E-11 Ry

     total magnetization       =    12.00 Bohr mag/cell
     absolute magnetization    =    16.52 Bohr mag/cell

     iteration # 23     ecut=    90.00 Ry     beta= 0.50
     Davidson diagonalization with overlap
     ethr =  1.00E-13,  avg # of iterations =  1.0

     negative rho (up, down):  2.713E-02 3.536E-02

     Magnetic moment per site  (integrated on atomic sphere of radius R)
     atom   1 (R=0.162)  charge= 12.4169  magn=  3.2160
     atom   2 (R=0.162)  charge= 12.4169  magn=  3.2160
     atom   3 (R=0.162)  charge=  4.0391  magn= -0.1213
     atom   4 (R=0.162)  charge=  4.0398  magn= -0.1223
     atom   5 (R=0.162)  charge=  4.0398  magn= -0.1223
     atom   6 (R=0.162)  charge=  4.0416  magn= -0.1190
     atom   7 (R=0.162)  charge=  4.0413  magn= -0.1200
     atom   8 (R=0.162)  charge=  4.0413  magn= -0.1200
     atom   9 (R=0.162)  charge= 12.4168  magn=  3.2160
     atom  10 (R=0.162)  charge= 12.4168  magn=  3.2160
     atom  11 (R=0.162)  charge=  4.0415  magn= -0.1190
     atom  12 (R=0.162)  charge=  4.0413  magn= -0.1200
     atom  13 (R=0.162)  charge=  4.0413  magn= -0.1200
     atom  14 (R=0.162)  charge=  4.0389  magn= -0.1213
     atom  15 (R=0.162)  charge=  4.0398  magn= -0.1223
     atom  16 (R=0.162)  charge=  4.0398  magn= -0.1223

     total cpu time spent up to now is     1330.9 secs

     End of self-consistent calculation

     =================== HUBBARD OCCUPATIONS ===================
     ------------------------ ATOM    1 ------------------------
     Tr[ns(  1)] (up, down, total) =   4.40338  1.12951  5.53289
     Atomic magnetic moment for atom   1 =   3.27388
     SPIN  1
     eigenvalues:
       0.709  0.712  0.994  0.994  0.994
     eigenvectors (columns):
      -0.003 -0.001 -0.993  0.117 -0.026
      -0.442  0.694  0.068  0.518 -0.223
       0.696  0.440 -0.015 -0.220 -0.523
       0.302 -0.481  0.096  0.751 -0.322
       0.479  0.304  0.017  0.324  0.756
     occupation matrix ns (before diag.):
       0.994 -0.000  0.001  0.000  0.000
      -0.000  0.803  0.001  0.132  0.001
       0.001  0.001  0.802 -0.000 -0.133
       0.000  0.132 -0.000  0.903  0.000
       0.000  0.001 -0.133  0.000  0.903
     SPIN  2
     eigenvalues:
       0.108  0.115  0.116  0.395  0.396
     eigenvectors (columns):
       0.999  0.031 -0.014  0.002  0.000
      -0.003  0.275  0.502  0.503 -0.647
      -0.018  0.503 -0.273 -0.648 -0.502
      -0.002  0.393  0.720 -0.350  0.453
       0.029 -0.719  0.393 -0.452 -0.351
     occupation matrix ns (before diag.):
       0.108  0.000 -0.000 -0.000 -0.001
       0.000  0.304  0.000 -0.131  0.000
      -0.000  0.000  0.303 -0.001  0.131
      -0.000 -0.131 -0.001  0.207 -0.000
      -0.001  0.000  0.131 -0.000  0.207
     ------------------------ ATOM    2 ------------------------
     Tr[ns(  2)] (up, down, total) =   4.40338  1.12951  5.53289
     Atomic magnetic moment for atom   2 =   3.27388
     SPIN  1
     eigenvalues:
       0.709  0.712  0.994  0.994  0.994
     eigenvectors (columns):
      -0.003 -0.001 -0.993 -0.117  0.026
      -0.442  0.694  0.068 -0.518  0.223
      -0.696 -0.440  0.015 -0.220 -0.523
       0.302 -0.481  0.096 -0.751  0.322
      -0.479 -0.304 -0.017  0.324  0.756
     occupation matrix ns (before diag.):
       0.994 -0.000 -0.001  0.000 -0.000
      -0.000  0.803 -0.001  0.132 -0.001
      -0.001 -0.001  0.802  0.000 -0.133
       0.000  0.132  0.000  0.903 -0.000
      -0.000 -0.001 -0.133 -0.000  0.903
     SPIN  2
     eigenvalues:
       0.108  0.115  0.116  0.395  0.396
     eigenvectors (columns):
      -0.999 -0.031 -0.014 -0.002 -0.000
       0.003 -0.275  0.502 -0.503  0.647
      -0.018  0.503  0.273 -0.648 -0.502
       0.002 -0.393  0.720  0.350 -0.453
       0.029 -0.719 -0.393 -0.452 -0.351
     occupation matrix ns (before diag.):
       0.108  0.000  0.000 -0.000  0.001
       0.000  0.304 -0.000 -0.131 -0.000
       0.000 -0.000  0.303  0.001  0.131
      -0.000 -0.131  0.001  0.207  0.000
       0.001 -0.000  0.131  0.000  0.207
     ------------------------ ATOM    9 ------------------------
     Tr[ns(  9)] (up, down, total) =   4.40338  1.12951  5.53289
     Atomic magnetic moment for atom   9 =   3.27388
     SPIN  1
     eigenvalues:
       0.709  0.712  0.994  0.994  0.994
     eigenvectors (columns):
      -0.003 -0.001 -0.993 -0.117  0.025
      -0.442  0.695  0.068 -0.518  0.224
      -0.696 -0.440  0.015 -0.220 -0.523
       0.302 -0.481  0.096 -0.751  0.322
      -0.479 -0.304 -0.017  0.325  0.756
     occupation matrix ns (before diag.):
       0.994 -0.000 -0.001  0.000 -0.000
      -0.000  0.803 -0.001  0.132 -0.001
      -0.001 -0.001  0.802  0.000 -0.133
       0.000  0.132  0.000  0.903 -0.000
      -0.000 -0.001 -0.133 -0.000  0.903
     SPIN  2
     eigenvalues:
       0.108  0.115  0.116  0.395  0.396
     eigenvectors (columns):
      -0.999 -0.031 -0.014 -0.002 -0.000
       0.003 -0.276  0.502 -0.504  0.647
      -0.018  0.503  0.274 -0.647 -0.503
       0.002 -0.394  0.719  0.351 -0.453
       0.029 -0.718 -0.395 -0.452 -0.352
     occupation matrix ns (before diag.):
       0.108  0.000  0.000 -0.000  0.001
       0.000  0.304 -0.000 -0.131 -0.000
       0.000 -0.000  0.303  0.001  0.131
      -0.000 -0.131  0.001  0.207  0.000
       0.001 -0.000  0.131  0.000  0.207
     ------------------------ ATOM   10 ------------------------
     Tr[ns( 10)] (up, down, total) =   4.40338  1.12951  5.53289
     Atomic magnetic moment for atom  10 =   3.27388
     SPIN  1
     eigenvalues:
       0.709  0.712  0.994  0.994  0.994
     eigenvectors (columns):
      -0.003 -0.001 -0.993  0.117 -0.025
      -0.442  0.695  0.068  0.518 -0.224
       0.696  0.440 -0.015 -0.220 -0.523
       0.302 -0.481  0.096  0.751 -0.322
       0.479  0.304  0.017  0.325  0.756
     occupation matrix ns (before diag.):
       0.994 -0.000  0.001  0.000  0.000
      -0.000  0.803  0.001  0.132  0.001
       0.001  0.001  0.802 -0.000 -0.133
       0.000  0.132 -0.000  0.903  0.000
       0.000  0.001 -0.133  0.000  0.903
     SPIN  2
     eigenvalues:
       0.108  0.115  0.116  0.395  0.396
     eigenvectors (columns):
       0.999  0.031 -0.014  0.002  0.000
      -0.003  0.276  0.502  0.504 -0.647
      -0.018  0.503 -0.274 -0.647 -0.503
      -0.002  0.394  0.719 -0.351  0.453
       0.029 -0.718  0.395 -0.452 -0.352
     occupation matrix ns (before diag.):
       0.108  0.000 -0.000 -0.000 -0.001
       0.000  0.304  0.000 -0.131  0.000
      -0.000  0.000  0.303 -0.001  0.131
      -0.000 -0.131 -0.001  0.207 -0.000
      -0.001  0.000  0.131 -0.000  0.207

     Number of occupied Hubbard levels =   22.1316

 ------ SPIN UP ------------


          k = 0.0000 0.0000 0.0000 (109591 PWs)   bands (ev):

   -78.1855 -78.1855 -78.1844 -78.1844 -49.5293 -49.5293 -49.5279 -49.5279
   -49.5233 -49.5233 -49.5227 -49.5227 -49.5198 -49.5198 -49.5192 -49.5192
   -18.5442 -18.4557 -17.7200 -17.5937 -17.4392 -17.4381 -17.4358 -17.4333
   -17.3454 -17.3447 -17.3419 -17.3406 -10.4372 -10.4367 -10.3286  -9.9294
    -9.7169  -9.7129  -9.6396  -9.6360  -9.5492  -9.5453  -9.5127  -9.5096
    -8.8063  -8.7942  -8.7419  -8.7050  -8.6876  -8.6779  -8.5437  -8.5240
    -8.1775  -8.1695  -8.1531  -8.1513  -7.8187  -7.8186  -7.4995  -7.4989
    -7.4536  -7.4525  -7.2641  -7.1659  -7.0744  -6.9322  -6.8778  -6.8612
    -6.8590  -6.7269  -6.7124  -6.3227  -6.3181  -6.1896  -6.1862  -6.0249
    -5.6915  -5.6735  -5.6359  -5.6171  -4.5225  -4.5221  -4.4675  -4.4454
    -4.0465  -4.0181  -4.0009  -3.9656  -0.6955  -0.6937  -0.5451  -0.1235
     0.0235   0.0433   0.6891   0.6919   0.9363   0.9645   1.3448   1.3767
     1.4935   1.5618   1.8200   1.8279

          k = 0.0000 0.1925 0.0000 (109722 PWs)   bands (ev):

   -78.1856 -78.1856 -78.1845 -78.1845 -49.5293 -49.5292 -49.5280 -49.5280
   -49.5234 -49.5234 -49.5225 -49.5225 -49.5200 -49.5200 -49.5191 -49.5191
   -18.4849 -18.3978 -17.6937 -17.5721 -17.5218 -17.5048 -17.4578 -17.4500
   -17.3649 -17.3638 -17.3479 -17.3397 -10.4242 -10.4033 -10.2616  -9.9128
    -9.8097  -9.7565  -9.7071  -9.6612  -9.4793  -9.4533  -9.3695  -9.3664
    -8.8317  -8.8199  -8.7841  -8.7227  -8.7175  -8.6870  -8.3904  -8.3264
    -8.1640  -8.1419  -8.0166  -8.0070  -7.9237  -7.9185  -7.7281  -7.7015
    -7.4376  -7.4251  -7.1976  -7.0286  -7.0132  -6.9863  -6.9667  -6.8548
    -6.7518  -6.6942  -6.6438  -6.3438  -6.2734  -6.2485  -6.1534  -6.0886
    -5.8962  -5.7591  -5.7295  -5.6450  -4.5548  -4.5120  -4.4493  -4.3754
    -4.2153  -4.1798  -4.0876  -4.0119  -0.7020  -0.6119  -0.1991   0.2458
     0.3060   0.3746   0.4995   0.5439   0.8645   1.0927   1.2396   1.3761
     1.5767   1.6626   1.7319   1.8639

          k = 0.0000 0.3849 0.0000 (109616 PWs)   bands (ev):

   -78.1858 -78.1857 -78.1847 -78.1847 -49.5292 -49.5292 -49.5281 -49.5280
   -49.5234 -49.5234 -49.5220 -49.5220 -49.5205 -49.5205 -49.5189 -49.5189
   -18.3255 -18.2424 -17.7220 -17.6841 -17.6223 -17.5133 -17.4939 -17.4772
   -17.4155 -17.3973 -17.3737 -17.3648 -10.4857 -10.3973 -10.0706  -9.8382
    -9.8015  -9.6783  -9.5986  -9.5260  -9.4096  -9.3116  -9.2491  -9.2397
    -8.9560  -8.8758  -8.8038  -8.7330  -8.7014  -8.6606  -8.4343  -8.3899
    -8.1011  -8.0685  -8.0627  -8.0470  -7.9258  -7.9192  -7.6772  -7.6687
    -7.4132  -7.3396  -7.2696  -7.2079  -7.1673  -7.0548  -6.8951  -6.7221
    -6.6598  -6.5925  -6.4233  -6.3554  -6.3021  -6.2875  -6.2399  -6.1792
    -6.1791  -5.8404  -5.8102  -5.6861  -4.5438  -4.5403  -4.4418  -4.3695
    -4.2531  -4.2503  -4.2062  -4.1525  -0.9744  -0.5866   0.0932   0.1236
     0.4837   0.5042   0.7572   0.9473   0.9839   1.0682   1.1020   1.1105
     1.3584   1.4013   1.5073   1.5500

          k = 0.0000-0.5774 0.0000 (109602 PWs)   bands (ev):

   -78.1859 -78.1858 -78.1848 -78.1848 -49.5292 -49.5291 -49.5281 -49.5281
   -49.5234 -49.5234 -49.5214 -49.5214 -49.5210 -49.5210 -49.5188 -49.5188
   -18.1831 -18.1017 -17.8838 -17.8371 -17.5398 -17.5211 -17.5106 -17.4571
   -17.4422 -17.4372 -17.3970 -17.3878 -10.5396 -10.4324  -9.9223  -9.7865
    -9.7032  -9.6801  -9.3846  -9.3285  -9.2729  -9.2505  -9.2205  -9.2172
    -9.0431  -8.9374  -8.8535  -8.8430  -8.6984  -8.6613  -8.5404  -8.5375
    -8.3162  -8.2251  -8.1095  -8.0751  -7.8425  -7.8321  -7.4800  -7.4340
    -7.3581  -7.3340  -7.3313  -7.2692  -7.2580  -7.1439  -6.7696  -6.6359
    -6.5993  -6.5443  -6.5063  -6.4726  -6.3783  -6.3591  -6.2747  -6.1494
    -5.9972  -5.9866  -5.8514  -5.6422  -4.5608  -4.5488  -4.4344  -4.3304
    -4.2816  -4.2530  -4.2293  -4.1236  -1.2235  -0.7854   0.1218   0.1345
     0.2050   0.4685   0.6748   0.7251   0.9223   1.1844   1.1959   1.2084
     1.3663   1.3879   1.4742   1.4859

          k = 0.1667 0.2887 0.0000 (109615 PWs)   bands (ev):

   -78.1857 -78.1857 -78.1847 -78.1847 -49.5292 -49.5292 -49.5280 -49.5280
   -49.5234 -49.5233 -49.5224 -49.5221 -49.5204 -49.5201 -49.5190 -49.5189
   -18.3733 -18.2903 -17.6508 -17.6450 -17.6234 -17.5314 -17.5010 -17.4863
   -17.3953 -17.3891 -17.3600 -17.3534 -10.3799 -10.3207 -10.1694 -10.0031
    -9.9154  -9.7321  -9.5597  -9.5107  -9.4363  -9.4012  -9.2843  -9.2055
    -8.9414  -8.8679  -8.8283  -8.8050  -8.6135  -8.6115  -8.3282  -8.2823
    -8.1346  -8.0989  -8.0454  -8.0287  -7.9283  -7.8801  -7.8079  -7.7793
    -7.3871  -7.3619  -7.2841  -7.2139  -7.0542  -6.9337  -6.8608  -6.8501
    -6.7168  -6.6450  -6.4912  -6.3445  -6.3094  -6.2286  -6.2010  -6.1550
    -6.1193  -5.8056  -5.7910  -5.7009  -4.5565  -4.5176  -4.4613  -4.3844
    -4.2998  -4.2800  -4.1132  -4.0431  -0.7833  -0.5764  -0.1588   0.0196
     0.4093   0.5609   0.6554   0.7972   1.0665   1.1034   1.1530   1.3006
     1.4115   1.5083   1.5804   1.6168

          k = 0.1667 0.4811 0.0000 (109606 PWs)   bands (ev):

   -78.1859 -78.1858 -78.1848 -78.1848 -49.5292 -49.5292 -49.5281 -49.5281
   -49.5234 -49.5234 -49.5217 -49.5215 -49.5209 -49.5207 -49.5188 -49.5188
   -18.1930 -18.1143 -17.8437 -17.8088 -17.5676 -17.5464 -17.5248 -17.4662
   -17.4480 -17.4197 -17.3925 -17.3761 -10.3746 -10.2745  -9.9719  -9.9463
    -9.8148  -9.7220  -9.4365  -9.3653  -9.3491  -9.2988  -9.2899  -9.1993
    -9.0950  -9.0080  -8.7787  -8.7611  -8.6864  -8.6219  -8.4190  -8.3804
    -8.2369  -8.1830  -8.0192  -7.9887  -7.9291  -7.9102  -7.6732  -7.6468
    -7.5018  -7.4382  -7.2038  -7.1620  -7.0457  -6.9996  -6.8618  -6.7475
    -6.6344  -6.5861  -6.5705  -6.4821  -6.3492  -6.2489  -6.1944  -6.1528
    -6.0936  -5.9097  -5.8155  -5.6675  -4.5870  -4.4801  -4.4385  -4.3292
    -4.2669  -4.2147  -4.1309  -4.0937  -1.0473  -0.7003  -0.4583  -0.2340
     0.2658   0.4786   0.5790   0.6870   0.8627   0.8912   0.9078   1.1106
     1.1667   1.2751   1.4042   1.5076

          k = 0.3333 0.5774 0.0000 (109542 PWs)   bands (ev):

   -78.1859 -78.1859 -78.1849 -78.1849 -49.5292 -49.5291 -49.5281 -49.5281
   -49.5233 -49.5233 -49.5217 -49.5217 -49.5207 -49.5207 -49.5189 -49.5189
   -18.0223 -18.0014 -17.9580 -17.9466 -17.5944 -17.5689 -17.4950 -17.4808
   -17.4540 -17.4070 -17.4057 -17.4033 -10.0361 -10.0135 -10.0099  -9.9467
    -9.9317  -9.9181  -9.5364  -9.4792  -9.3170  -9.2848  -9.2121  -9.2086
    -9.1836  -9.1077  -8.7703  -8.7625  -8.7422  -8.6707  -8.1515  -8.1450
    -8.1306  -8.1192  -8.0862  -8.0779  -8.0569  -7.8989  -7.7057  -7.6834
    -7.6629  -7.6391  -7.0444  -7.0153  -6.9454  -6.9301  -6.8835  -6.8035
    -6.7802  -6.6929  -6.6061  -6.4817  -6.3166  -6.2256  -6.1694  -6.1481
    -5.9770  -5.9445  -5.8152  -5.6787  -4.5775  -4.4296  -4.4229  -4.2477
    -4.2399  -4.2103  -4.0809  -4.0028  -0.9499  -0.8817  -0.6860  -0.6222
     0.1813   0.2751   0.2921   0.4802   0.5338   0.6475   0.8638   0.8904
     1.0375   1.1277   1.2706   1.3086

          k =-0.1667 0.0962 0.0000 (109722 PWs)   bands (ev):

   -78.1856 -78.1856 -78.1845 -78.1845 -49.5293 -49.5292 -49.5280 -49.5279
   -49.5234 -49.5233 -49.5227 -49.5226 -49.5199 -49.5198 -49.5192 -49.5191
   -18.4844 -18.3978 -17.6937 -17.5727 -17.5298 -17.4997 -17.4612 -17.4437
   -17.3669 -17.3616 -17.3475 -17.3401 -10.4501 -10.3721 -10.2623  -9.9176
    -9.7954  -9.7682  -9.7066  -9.6640  -9.4850  -9.4433  -9.4060  -9.3358
    -8.8570  -8.8018  -8.7722  -8.7481  -8.6876  -8.6777  -8.3968  -8.3443
    -8.1672  -8.1452  -8.0542  -7.9559  -7.9244  -7.9085  -7.7765  -7.6497
    -7.4475  -7.4115  -7.2127  -7.1071  -7.0201  -6.9717  -6.8598  -6.8469
    -6.7688  -6.7101  -6.6446  -6.3483  -6.3255  -6.2083  -6.1583  -6.0886
    -5.8748  -5.7670  -5.7169  -5.6632  -4.5584  -4.5223  -4.4226  -4.3860
    -4.2181  -4.1682  -4.0837  -4.0235  -0.7882  -0.4993  -0.2041   0.1608
     0.3105   0.4353   0.5094   0.5404   0.8592   1.1263   1.1716   1.3928
     1.5260   1.6948   1.7808   1.8723

          k =-0.3333 0.1925 0.0000 (109616 PWs)   bands (ev):

   -78.1857 -78.1857 -78.1847 -78.1847 -49.5292 -49.5292 -49.5280 -49.5280
   -49.5234 -49.5232 -49.5225 -49.5221 -49.5203 -49.5199 -49.5192 -49.5190
   -18.3216 -18.2439 -17.7327 -17.6822 -17.6197 -17.5156 -17.4971 -17.4662
   -17.4220 -17.3943 -17.3713 -17.3655 -10.4937 -10.3875 -10.0680  -9.8334
    -9.7794  -9.6975  -9.5938  -9.5474  -9.4285  -9.3059  -9.2853  -9.1834
    -8.9498  -8.9099  -8.7729  -8.7438  -8.6763  -8.6625  -8.4571  -8.3744
    -8.1492  -8.0892  -8.0539  -8.0075  -7.9273  -7.9105  -7.7072  -7.6216
    -7.4108  -7.3607  -7.2338  -7.2146  -7.1861  -7.1195  -6.7940  -6.7221
    -6.6783  -6.6040  -6.4618  -6.3631  -6.3536  -6.2319  -6.2210  -6.1660
    -6.1294  -5.8485  -5.7918  -5.7691  -4.5721  -4.5124  -4.3622  -4.3394
    -4.3016  -4.2599  -4.2433  -4.1410  -1.0316  -0.5281   0.0158   0.1951
     0.4118   0.5763   0.8011   0.9086   0.9839   1.0441   1.1017   1.2025
     1.3263   1.3673   1.4590   1.5569

          k = 0.5000-0.2887 0.0000 (109602 PWs)   bands (ev):

   -78.1858 -78.1858 -78.1848 -78.1848 -49.5292 -49.5292 -49.5281 -49.5280
   -49.5234 -49.5231 -49.5224 -49.5218 -49.5205 -49.5199 -49.5192 -49.5189
   -18.1605 -18.1211 -17.8850 -17.8447 -17.5326 -17.5259 -17.4973 -17.4837
   -17.4387 -17.4193 -17.4056 -17.3840 -10.5400 -10.4330  -9.8885  -9.8100
    -9.6994  -9.6668  -9.4590  -9.3076  -9.2870  -9.2491  -9.2245  -9.1681
    -9.0370  -8.9978  -8.8249  -8.8135  -8.6836  -8.6708  -8.5375  -8.5340
    -8.3266  -8.2418  -8.1278  -8.0550  -7.8387  -7.8329  -7.4434  -7.4359
    -7.3721  -7.3563  -7.3353  -7.2995  -7.2100  -7.1759  -6.7456  -6.6584
    -6.5994  -6.5559  -6.5215  -6.4437  -6.3957  -6.3159  -6.2013  -6.1942
    -5.9657  -5.9565  -5.8367  -5.7933  -4.5622  -4.4943  -4.3970  -4.3240
    -4.2945  -4.2757  -4.2046  -4.1633  -1.2740  -0.7576   0.0967   0.1418
     0.2228   0.4786   0.7166   0.7415   0.8420   1.1566   1.2318   1.2817
     1.3481   1.3593   1.4370   1.5905

          k = 0.3333 0.0000 0.0000 (109615 PWs)   bands (ev):

   -78.1857 -78.1857 -78.1847 -78.1847 -49.5292 -49.5292 -49.5280 -49.5280
   -49.5233 -49.5233 -49.5224 -49.5224 -49.5199 -49.5199 -49.5192 -49.5192
   -18.3718 -18.2903 -17.6649 -17.6447 -17.6127 -17.5379 -17.5034 -17.4744
   -17.3995 -17.3870 -17.3616 -17.3512 -10.4059 -10.2835 -10.1694 -10.0382
    -9.8588  -9.7520  -9.5995  -9.4714  -9.4482  -9.3798  -9.3393  -9.1700
    -8.9245  -8.8923  -8.8400  -8.7885  -8.6144  -8.5833  -8.3870  -8.2540
    -8.1550  -8.0880  -8.0706  -8.0182  -7.9369  -7.8424  -7.8225  -7.7572
    -7.3937  -7.3235  -7.3074  -7.2433  -7.0692  -6.8953  -6.8806  -6.8201
    -6.7164  -6.6437  -6.5189  -6.3509  -6.3225  -6.2554  -6.1892  -6.1193
    -6.0874  -5.8394  -5.7683  -5.7271  -4.5716  -4.5204  -4.4003  -4.3875
    -4.3078  -4.2911  -4.1277  -4.0375  -0.8687  -0.3927  -0.2883   0.0222
     0.4103   0.5603   0.7143   0.7972   0.9722   1.0823   1.1822   1.3401
     1.4151   1.5307   1.5685   1.7086

          k =-0.3333 0.3849 0.0000 (109606 PWs)   bands (ev):

   -78.1858 -78.1858 -78.1848 -78.1848 -49.5292 -49.5292 -49.5281 -49.5281
   -49.5234 -49.5232 -49.5222 -49.5217 -49.5206 -49.5202 -49.5190 -49.5189
   -18.1850 -18.1201 -17.8498 -17.8078 -17.5680 -17.5466 -17.5172 -17.4728
   -17.4520 -17.4125 -17.3927 -17.3764 -10.3767 -10.2732  -9.9916  -9.8858
    -9.8516  -9.7071  -9.4795  -9.3842  -9.3410  -9.2900  -9.2677  -9.2001
    -9.0794  -9.0281  -8.7775  -8.7623  -8.6617  -8.6192  -8.4182  -8.3896
    -8.2474  -8.1898  -8.0391  -7.9664  -7.9222  -7.9156  -7.6837  -7.6195
    -7.5031  -7.4388  -7.2228  -7.1620  -7.0720  -6.9857  -6.8307  -6.7753
    -6.6068  -6.5950  -6.5755  -6.4779  -6.3609  -6.2228  -6.1935  -6.1450
    -6.0891  -5.8787  -5.8100  -5.7518  -4.5528  -4.5095  -4.4194  -4.2925
    -4.2565  -4.2289  -4.1748  -4.0829  -1.0916  -0.6693  -0.4389  -0.2416
     0.2330   0.5155   0.6029   0.6857   0.8059   0.8869   0.9297   1.1392
     1.1677   1.2692   1.3684   1.4676

          k = 0.5000 0.0962 0.0000 (109606 PWs)   bands (ev):

   -78.1858 -78.1858 -78.1848 -78.1848 -49.5292 -49.5292 -49.5281 -49.5281
   -49.5233 -49.5232 -49.5222 -49.5220 -49.5204 -49.5201 -49.5191 -49.5190
   -18.1832 -18.1192 -17.8616 -17.7994 -17.5682 -17.5493 -17.5168 -17.4665
   -17.4525 -17.4173 -17.3910 -17.3759 -10.3794 -10.2719  -9.9924  -9.9164
    -9.7897  -9.7162  -9.4966  -9.4277  -9.3159  -9.2946  -9.2797  -9.1381
    -9.0819  -9.0439  -8.7765  -8.7620  -8.6989  -8.6090  -8.4130  -8.3781
    -8.2509  -8.1873  -8.0330  -7.9856  -7.9321  -7.8953  -7.6969  -7.6138
    -7.4870  -7.4426  -7.2446  -7.1294  -7.0823  -6.9866  -6.8189  -6.7347
    -6.7031  -6.6085  -6.5571  -6.4426  -6.3206  -6.2923  -6.1967  -6.1178
    -6.0477  -5.8764  -5.8484  -5.7597  -4.5574  -4.4833  -4.3906  -4.3368
    -4.2854  -4.1946  -4.1686  -4.0901  -1.1035  -0.6515  -0.4405  -0.2659
     0.2256   0.5091   0.6352   0.7387   0.7846   0.8716   0.8972   1.0513
     1.2766   1.3696   1.3752   1.4490

 ------ SPIN DOWN ----------


          k = 0.0000 0.0000 0.0000 (109591 PWs)   bands (ev):

   -74.8446 -74.8446 -74.8435 -74.8435 -46.2525 -46.2525 -46.2509 -46.2509
   -46.2298 -46.2298 -46.2291 -46.2291 -46.2249 -46.2249 -46.2242 -46.2242
   -18.6039 -18.5085 -17.8369 -17.7120 -17.5047 -17.5037 -17.5008 -17.4986
   -17.3383 -17.3378 -17.3349 -17.3338  -9.9441  -9.9437  -9.5986  -9.1100
    -8.9673  -8.9421  -8.9261  -8.8725  -8.7648  -8.6968  -8.6942  -8.6538
    -8.5586  -8.5581  -7.9438  -7.8838  -7.6454  -7.6358  -7.5931  -7.5770
    -7.3937  -7.3534  -7.2514  -7.2492  -7.1815  -7.0548  -6.9200  -6.3631
    -6.3446  -6.2963  -6.2946  -6.1865  -5.8673  -5.8642  -5.8036  -5.7999
    -2.7835  -2.7814  -2.7100  -2.7050  -2.6280  -2.6177  -2.5850  -2.5502
    -2.4936  -2.4872  -2.4755  -2.4626  -2.2227  -2.2201  -2.1504  -2.1487
    -2.1110  -2.1061  -2.0670  -2.0594  -0.2010   0.0661   0.1191   0.1226
     0.2242   0.3799   0.9753   0.9804   1.1146   1.1321   1.6208   1.6239
     1.7715   1.7855   1.8974   2.1341

          k = 0.0000 0.1925 0.0000 (109722 PWs)   bands (ev):

   -74.8445 -74.8445 -74.8435 -74.8435 -46.2525 -46.2525 -46.2510 -46.2510
   -46.2300 -46.2300 -46.2288 -46.2288 -46.2253 -46.2253 -46.2241 -46.2241
   -18.5457 -18.4523 -17.7998 -17.6799 -17.5907 -17.5726 -17.5340 -17.5259
   -17.3577 -17.3525 -17.3350 -17.3324  -9.9240  -9.9166  -9.5563  -9.1517
    -9.0805  -9.0515  -8.9579  -8.8262  -8.7544  -8.7425  -8.6846  -8.5707
    -8.2832  -8.1842  -7.8277  -7.7794  -7.7169  -7.6796  -7.5958  -7.5189
    -7.3701  -7.3065  -7.2653  -7.2221  -7.0793  -6.9899  -6.8548  -6.4958
    -6.4113  -6.3884  -6.3634  -6.2272  -6.2227  -6.0573  -5.9628  -5.8968
    -2.7636  -2.7419  -2.7137  -2.6651  -2.6515  -2.6090  -2.6045  -2.5560
    -2.5120  -2.4499  -2.3985  -2.3718  -2.2359  -2.2160  -2.2096  -2.2025
    -2.1607  -2.1554  -2.1333  -2.1109   0.0194   0.1745   0.1755   0.4973
     0.6037   0.6585   0.7585   0.8291   1.0782   1.2658   1.4522   1.5863
     1.8449   1.8846   1.9925   2.1359

          k = 0.0000 0.3849 0.0000 (109616 PWs)   bands (ev):

   -74.8444 -74.8444 -74.8434 -74.8434 -46.2524 -46.2523 -46.2511 -46.2511
   -46.2302 -46.2302 -46.2281 -46.2281 -46.2261 -46.2261 -46.2239 -46.2239
   -18.3860 -18.2984 -17.7990 -17.7574 -17.7026 -17.6056 -17.5787 -17.5685
   -17.4226 -17.3843 -17.3582 -17.3470  -9.8848  -9.8190  -9.4200  -9.2608
    -9.1936  -9.1099  -8.9821  -8.7774  -8.7060  -8.5476  -8.4614  -8.2536
    -8.1925  -8.0357  -7.8366  -7.7794  -7.6970  -7.6542  -7.4214  -7.4068
    -7.3319  -7.2244  -7.1707  -7.0651  -7.0493  -7.0294  -6.9049  -6.8471
    -6.7969  -6.5941  -6.4785  -6.4266  -6.3277  -6.1704  -6.0994  -5.9307
    -2.8074  -2.7364  -2.7318  -2.6939  -2.6644  -2.6258  -2.6123  -2.5815
    -2.5544  -2.4864  -2.4010  -2.2977  -2.2974  -2.2595  -2.2188  -2.2009
    -2.1801  -2.1170  -2.1136  -2.0619  -0.4377   0.1327   0.5962   0.7269
     0.8142   0.8149   0.9404   1.1151   1.1337   1.3614   1.3744   1.5271
     1.5660   1.6712   1.7468   1.9097

          k = 0.0000-0.5774 0.0000 (109602 PWs)   bands (ev):

   -74.8444 -74.8444 -74.8434 -74.8434 -46.2523 -46.2523 -46.2512 -46.2512
   -46.2303 -46.2303 -46.2273 -46.2273 -46.2269 -46.2269 -46.2239 -46.2239
   -18.2347 -18.1503 -17.9724 -17.9205 -17.6178 -17.6163 -17.5881 -17.5152
   -17.4949 -17.4337 -17.3748 -17.3547  -9.8772  -9.7617  -9.3172  -9.3011
    -9.1886  -9.1511  -8.8446  -8.6170  -8.5702  -8.4966  -8.4918  -8.3192
    -8.2439  -7.9395  -7.7980  -7.7693  -7.7181  -7.6352  -7.4814  -7.4676
    -7.3913  -7.3844  -7.3246  -7.1312  -6.9922  -6.9202  -6.8420  -6.7511
    -6.7335  -6.5702  -6.5371  -6.5229  -6.3647  -6.3106  -6.0866  -5.8424
    -2.9106  -2.8174  -2.7564  -2.7118  -2.6900  -2.6503  -2.6157  -2.6040
    -2.5497  -2.4471  -2.4051  -2.3837  -2.3582  -2.2425  -2.1489  -2.1401
    -2.1093  -2.0896  -2.0862  -2.0204  -0.7181  -0.0865   0.2653   0.6274
     0.9219   0.9528   0.9670   1.1456   1.2260   1.4188   1.4534   1.4956
     1.6304   1.6471   1.6910   1.7375

          k = 0.1667 0.2887 0.0000 (109615 PWs)   bands (ev):

   -74.8445 -74.8445 -74.8434 -74.8434 -46.2524 -46.2524 -46.2511 -46.2511
   -46.2302 -46.2301 -46.2286 -46.2283 -46.2258 -46.2256 -46.2241 -46.2240
   -18.4350 -18.3467 -17.7335 -17.7190 -17.6942 -17.6222 -17.5881 -17.5779
   -17.3955 -17.3786 -17.3461 -17.3394  -9.8791  -9.8050  -9.4859  -9.2163
    -9.1472  -9.1191  -8.9928  -8.9156  -8.7723  -8.5761  -8.4797  -8.3711
    -8.0901  -7.9831  -7.8705  -7.8248  -7.7501  -7.6861  -7.4893  -7.3645
    -7.2929  -7.2643  -7.1793  -7.0900  -7.0512  -6.9926  -6.9468  -6.8142
    -6.5594  -6.5191  -6.3991  -6.3921  -6.3703  -6.1329  -6.0705  -6.0289
    -2.7429  -2.7191  -2.7021  -2.6692  -2.6558  -2.6401  -2.6329  -2.5781
    -2.5446  -2.5433  -2.3350  -2.3037  -2.2672  -2.2605  -2.2367  -2.2308
    -2.1593  -2.1444  -2.1134  -2.0813  -0.1365   0.0281   0.4382   0.5981
     0.6703   0.8002   0.9204   0.9897   1.2178   1.2751   1.3549   1.5183
     1.6782   1.7805   1.8279   1.9178

          k = 0.1667 0.4811 0.0000 (109606 PWs)   bands (ev):

   -74.8444 -74.8444 -74.8434 -74.8434 -46.2523 -46.2523 -46.2512 -46.2512
   -46.2303 -46.2303 -46.2278 -46.2276 -46.2266 -46.2264 -46.2239 -46.2239
   -18.2514 -18.1696 -17.9178 -17.8789 -17.6546 -17.6310 -17.6247 -17.5280
   -17.4684 -17.4281 -17.3689 -17.3535  -9.7639  -9.6731  -9.3500  -9.2729
    -9.2242  -9.0551  -8.9773  -8.7840  -8.6987  -8.4997  -8.4557  -8.3653
    -8.2669  -8.1183  -7.8005  -7.7618  -7.6783  -7.6350  -7.5502  -7.4357
    -7.3705  -7.3485  -7.1384  -7.0717  -7.0058  -6.8442  -6.7866  -6.7555
    -6.6636  -6.5801  -6.5191  -6.4933  -6.2945  -6.2467  -6.1949  -5.9554
    -2.8248  -2.7557  -2.7124  -2.7114  -2.6754  -2.6565  -2.6221  -2.5825
    -2.5537  -2.5107  -2.4817  -2.4268  -2.3377  -2.2699  -2.1627  -2.1390
    -2.0838  -2.0657  -2.0473  -2.0096  -0.5272  -0.0351   0.1352   0.3804
     0.4818   0.7558   0.7910   0.9550   1.0953   1.2634   1.3124   1.4065
     1.4280   1.5265   1.6374   1.8204

          k = 0.3333 0.5774 0.0000 (109542 PWs)   bands (ev):

   -74.8444 -74.8444 -74.8433 -74.8433 -46.2523 -46.2522 -46.2512 -46.2512
   -46.2302 -46.2302 -46.2279 -46.2279 -46.2263 -46.2263 -46.2240 -46.2240
   -18.0832 -18.0617 -18.0176 -18.0063 -17.7069 -17.6817 -17.5449 -17.5265
   -17.4807 -17.4577 -17.3822 -17.3602  -9.5008  -9.4782  -9.4142  -9.4006
    -9.0309  -9.0120  -8.9949  -8.8351  -8.8174  -8.7488  -8.4156  -8.3471
    -8.2765  -8.1921  -8.1217  -8.0191  -7.6589  -7.6163  -7.5706  -7.4234
    -7.1592  -7.1089  -7.0648  -7.0074  -6.9031  -6.8998  -6.6830  -6.6573
    -6.6214  -6.5931  -6.5540  -6.5168  -6.3091  -6.2158  -6.1824  -6.0713
    -2.7404  -2.7346  -2.7285  -2.7032  -2.6818  -2.6456  -2.6296  -2.6057
    -2.5998  -2.5598  -2.5323  -2.4719  -2.3769  -2.2787  -2.1088  -2.0797
    -2.0400  -2.0352  -1.9891  -1.9867  -0.3666  -0.3037  -0.1018  -0.0090
     0.3761   0.5945   0.6242   0.6696   0.8636   0.8675   1.1587   1.3371
     1.3794   1.4566   1.5517   1.6126

          k =-0.1667 0.0962 0.0000 (109722 PWs)   bands (ev):

   -74.8445 -74.8445 -74.8435 -74.8435 -46.2525 -46.2525 -46.2510 -46.2510
   -46.2299 -46.2298 -46.2291 -46.2289 -46.2252 -46.2250 -46.2243 -46.2242
   -18.5452 -18.4524 -17.7996 -17.6803 -17.5980 -17.5690 -17.5359 -17.5211
   -17.3616 -17.3483 -17.3347 -17.3324  -9.9646  -9.8714  -9.5562  -9.1598
    -9.0786  -9.0303  -8.9793  -8.8402  -8.7805  -8.6920  -8.6494  -8.6194
    -8.2564  -8.2036  -7.8458  -7.7742  -7.7250  -7.6435  -7.5892  -7.5772
    -7.3581  -7.2725  -7.2327  -7.2127  -7.1694  -6.9806  -6.7945  -6.5421
    -6.4311  -6.3579  -6.3405  -6.2787  -6.2041  -6.0453  -5.9541  -5.9050
    -2.7601  -2.7529  -2.6991  -2.6793  -2.6565  -2.6254  -2.5809  -2.5417
    -2.5073  -2.4651  -2.4047  -2.3638  -2.2404  -2.2200  -2.2102  -2.1893
    -2.1770  -2.1377  -2.1310  -2.1186  -0.0280   0.1657   0.2669   0.4955
     0.6256   0.6547   0.6981   0.7833   1.1542   1.2839   1.3732   1.6080
     1.8183   1.8989   2.0360   2.1435

          k =-0.3333 0.1925 0.0000 (109616 PWs)   bands (ev):

   -74.8444 -74.8444 -74.8434 -74.8434 -46.2524 -46.2524 -46.2511 -46.2511
   -46.2301 -46.2298 -46.2290 -46.2285 -46.2257 -46.2253 -46.2243 -46.2241
   -18.3825 -18.2996 -17.8082 -17.7577 -17.6984 -17.6054 -17.5825 -17.5642
   -17.4249 -17.3755 -17.3660 -17.3437  -9.9135  -9.7836  -9.4285  -9.2467
    -9.1892  -9.1134  -8.9784  -8.7723  -8.7321  -8.5518  -8.4534  -8.2563
    -8.1814  -8.0664  -7.7937  -7.7656  -7.7121  -7.6841  -7.4654  -7.3627
    -7.2990  -7.2680  -7.1351  -7.1031  -7.0397  -7.0169  -6.9553  -6.8147
    -6.7259  -6.6533  -6.5051  -6.3731  -6.3479  -6.1613  -6.0529  -5.9858
    -2.7888  -2.7718  -2.7191  -2.6848  -2.6579  -2.6402  -2.6172  -2.5827
    -2.5438  -2.4866  -2.3727  -2.3288  -2.2861  -2.2788  -2.2072  -2.1946
    -2.1724  -2.1371  -2.1042  -2.0611  -0.4621   0.1528   0.5504   0.6922
     0.7720   0.9246   0.9831   1.1242   1.1680   1.2855   1.4164   1.5048
     1.5634   1.6884   1.7472   1.8317

          k = 0.5000-0.2887 0.0000 (109602 PWs)   bands (ev):

   -74.8444 -74.8444 -74.8434 -74.8434 -46.2523 -46.2523 -46.2512 -46.2511
   -46.2301 -46.2298 -46.2288 -46.2283 -46.2260 -46.2255 -46.2243 -46.2240
   -18.2116 -18.1710 -17.9700 -17.9316 -17.6176 -17.5983 -17.5842 -17.5582
   -17.4647 -17.4356 -17.3797 -17.3511  -9.8850  -9.7559  -9.3113  -9.2722
    -9.2119  -9.1567  -8.7736  -8.6955  -8.5551  -8.5198  -8.4682  -8.4096
    -8.1375  -8.0022  -7.7814  -7.7622  -7.6687  -7.6682  -7.4795  -7.4543
    -7.4332  -7.3404  -7.2809  -7.2596  -6.9683  -6.9100  -6.7964  -6.7314
    -6.7124  -6.6743  -6.5803  -6.4438  -6.3594  -6.2996  -5.9885  -5.9495
    -2.8786  -2.8709  -2.7036  -2.6862  -2.6828  -2.6770  -2.6558  -2.6211
    -2.5139  -2.4403  -2.4084  -2.3852  -2.3432  -2.2882  -2.1452  -2.1290
    -2.0970  -2.0921  -2.0705  -2.0359  -0.7437  -0.0813   0.2333   0.6420
     0.9419   0.9789   1.0078   1.0889   1.2572   1.3999   1.4505   1.5337
     1.5780   1.6198   1.7242   1.7456

          k = 0.3333 0.0000 0.0000 (109615 PWs)   bands (ev):

   -74.8445 -74.8445 -74.8434 -74.8434 -46.2524 -46.2524 -46.2511 -46.2511
   -46.2299 -46.2298 -46.2289 -46.2289 -46.2253 -46.2253 -46.2242 -46.2242
   -18.4335 -18.3468 -17.7341 -17.7318 -17.6833 -17.6285 -17.5893 -17.5692
   -17.4052 -17.3617 -17.3563 -17.3364  -9.9120  -9.7636  -9.4848  -9.2334
    -9.1511  -9.0770  -9.0469  -8.8865  -8.7320  -8.5936  -8.5431  -8.3278
    -8.1064  -7.9782  -7.8970  -7.8141  -7.7470  -7.6319  -7.5686  -7.4060
    -7.2484  -7.1646  -7.1533  -7.1118  -7.1005  -7.0183  -6.9631  -6.7782
    -6.5742  -6.5077  -6.4428  -6.3659  -6.3528  -6.1124  -6.0657  -6.0621
    -2.7757  -2.7185  -2.6888  -2.6575  -2.6512  -2.6365  -2.5853  -2.5848
    -2.5612  -2.5536  -2.3383  -2.3135  -2.2736  -2.2716  -2.2549  -2.2088
    -2.1657  -2.1259  -2.1078  -2.0828  -0.2020   0.1698   0.3030   0.5904
     0.6864   0.8037   0.9829   1.0361   1.1184   1.2778   1.3330   1.5699
     1.6653   1.8004   1.8271   1.9876

          k =-0.3333 0.3849 0.0000 (109606 PWs)   bands (ev):

   -74.8444 -74.8444 -74.8434 -74.8434 -46.2523 -46.2523 -46.2512 -46.2512
   -46.2302 -46.2301 -46.2285 -46.2280 -46.2262 -46.2258 -46.2241 -46.2240
   -18.2442 -18.1747 -17.9230 -17.8795 -17.6552 -17.6264 -17.6210 -17.5395
   -17.4619 -17.4260 -17.3729 -17.3508  -9.7759  -9.6593  -9.3634  -9.2523
    -9.2119  -9.0652  -8.9756  -8.7857  -8.7195  -8.4979  -8.4464  -8.3530
    -8.2928  -8.1122  -7.7850  -7.7738  -7.6735  -7.6308  -7.5546  -7.4077
    -7.3921  -7.3426  -7.1793  -7.1189  -6.9080  -6.8677  -6.7859  -6.7199
    -6.6932  -6.6179  -6.5156  -6.4495  -6.3712  -6.1927  -6.1121  -6.0334
    -2.8070  -2.7789  -2.7090  -2.6946  -2.6879  -2.6679  -2.6312  -2.5841
    -2.5311  -2.5145  -2.4459  -2.4295  -2.3437  -2.3039  -2.1606  -2.1277
    -2.0754  -2.0699  -2.0462  -2.0145  -0.5494  -0.0168   0.1230   0.3990
     0.4383   0.8077   0.8444   0.9634   1.0295   1.1705   1.3740   1.4236
     1.4675   1.5081   1.5759   1.7854

          k = 0.5000 0.0962 0.0000 (109606 PWs)   bands (ev):

   -74.8444 -74.8444 -74.8434 -74.8434 -46.2523 -46.2523 -46.2512 -46.2511
   -46.2301 -46.2300 -46.2286 -46.2284 -46.2259 -46.2256 -46.2242 -46.2241
   -18.2422 -18.1739 -17.9342 -17.8717 -17.6589 -17.6337 -17.6072 -17.5387
   -17.4750 -17.4104 -17.3802 -17.3490  -9.7889  -9.6435  -9.3629  -9.2614
    -9.2077  -9.0604  -8.9707  -8.7687  -8.7243  -8.4926  -8.4606  -8.4129
    -8.2784  -8.0544  -7.8265  -7.7652  -7.6860  -7.6187  -7.5523  -7.4293
    -7.3640  -7.3428  -7.1783  -7.1089  -6.9605  -6.8190  -6.7803  -6.7429
    -6.6645  -6.6255  -6.5539  -6.4534  -6.2823  -6.2404  -6.1032  -6.0523
    -2.8167  -2.7775  -2.7138  -2.6907  -2.6586  -2.6526  -2.6253  -2.6048
    -2.5485  -2.5205  -2.4644  -2.4048  -2.3423  -2.3062  -2.1648  -2.1247
    -2.0820  -2.0652  -2.0460  -2.0097  -0.5579   0.0057   0.1024   0.3247
     0.4784   0.8159   0.9188   0.9676   1.0393   1.0922   1.3321   1.3887
     1.5441   1.5605   1.6647   1.6993

     highest occupied, lowest unoccupied level (ev):    -5.6171   -4.5870

!    total energy              =   -5539.74201389 Ry
     total all-electron energy =     -5539.742014 Ry
     estimated scf accuracy    <          2.4E-12 Ry

     The total energy is the sum of the following terms:
     one-electron contribution =   -9565.48158816 Ry
     hartree contribution      =    4757.09167022 Ry
     xc contribution           =    -165.76216383 Ry
     ewald contribution        =    3977.84444146 Ry
     Hubbard energy            =       0.48473196 Ry
     one-center paw contrib.   =   -4543.91910552 Ry

     total magnetization       =    12.00 Bohr mag/cell
     absolute magnetization    =    16.52 Bohr mag/cell

     convergence has been achieved in  23 iterations

     negative rho (up, down):  2.713E-02 3.536E-02

     Forces acting on atoms (cartesian axes, Ry/au):

     atom    1 type  1   force =    -0.00010255   -0.00039401   -0.00045417
     atom    2 type  1   force =    -0.00010255    0.00039401   -0.00045417
     atom    3 type  2   force =     0.01080819    0.00000000   -0.01557741
     atom    4 type  2   force =    -0.00599476   -0.00986792   -0.01424940
     atom    5 type  2   force =    -0.00599476    0.00986792   -0.01424940
     atom    6 type  2   force =    -0.01122024   -0.00000000    0.01728915
     atom    7 type  2   force =     0.00560614    0.00980381    0.01729140
     atom    8 type  2   force =     0.00560614   -0.00980381    0.01729140
     atom    9 type  1   force =     0.00010288   -0.00039459    0.00045097
     atom   10 type  1   force =     0.00010288    0.00039459    0.00045097
     atom   11 type  2   force =     0.01122108    0.00000000   -0.01728756
     atom   12 type  2   force =    -0.00560674   -0.00980188   -0.01728992
     atom   13 type  2   force =    -0.00560674    0.00980188   -0.01728992
     atom   14 type  2   force =    -0.01080885    0.00000000    0.01558160
     atom   15 type  2   force =     0.00599495    0.00986856    0.01424823
     atom   16 type  2   force =     0.00599495   -0.00986856    0.01424823

     Total force =     0.067982     Total SCF correction =     0.000004


     Computing stress (Cartesian axis) and pressure


     negative rho (up, down):  2.713E-02 3.536E-02
          total   stress  (Ry/bohr**3)                   (kbar)     P=       16.31
   0.00011073   0.00000000  -0.00000142           16.29        0.00       -0.21
   0.00000000   0.00010983   0.00000000            0.00       16.16        0.00
  -0.00000142   0.00000000   0.00011209           -0.21        0.00       16.49


     Writing all to output data dir ./ht_afm_fm_qe/ht_afm_fm_qe.save/ :
     XML data file, charge density, pseudopotentials, collected wavefunctions

     init_run     :     29.30s CPU     29.84s WALL (       1 calls)
     electrons    :   1252.70s CPU   1300.90s WALL (       1 calls)
     forces       :     21.67s CPU     21.98s WALL (       1 calls)
     stress       :    134.47s CPU    136.11s WALL (       1 calls)

     Called by init_run:
     wfcinit      :     26.64s CPU     27.05s WALL (       1 calls)
     potinit      :      1.11s CPU      1.15s WALL (       1 calls)
     hinit0       :      0.90s CPU      0.91s WALL (       1 calls)

     Called by electrons:
     c_bands      :   1035.58s CPU   1075.56s WALL (      23 calls)
     sum_band     :    181.39s CPU    187.64s WALL (      23 calls)
     v_of_rho     :      5.26s CPU      5.37s WALL (      24 calls)
     newd         :      7.60s CPU      8.80s WALL (      24 calls)
     PAW_pot      :     20.71s CPU     20.92s WALL (      24 calls)
     mix_rho      :      2.67s CPU      2.72s WALL (      23 calls)

     Called by c_bands:
     init_us_2    :     14.97s CPU     15.27s WALL (    1352 calls)
     init_us_2:cp :     14.96s CPU     15.26s WALL (    1352 calls)
     cegterg      :   1002.39s CPU   1041.63s WALL (     598 calls)

     Called by *egterg:
     cdiaghg      :     97.78s CPU     98.61s WALL (    2621 calls)
     h_psi        :    673.68s CPU    695.27s WALL (    2647 calls)
     s_psi        :     40.77s CPU     41.37s WALL (    2725 calls)
     g_psi        :      5.45s CPU      5.55s WALL (    2023 calls)

     Called by h_psi:
     h_psi:calbec :     45.45s CPU     46.72s WALL (    2647 calls)
     vloc_psi     :    533.12s CPU    544.45s WALL (    2647 calls)
     add_vuspsi   :     37.61s CPU     38.18s WALL (    2647 calls)
     vhpsi        :     48.71s CPU     49.70s WALL (    2647 calls)

     General routines
     calbec       :    124.17s CPU    126.66s WALL (   26952 calls)
     fft          :      3.88s CPU      4.03s WALL (     638 calls)
     ffts         :      0.31s CPU      0.33s WALL (      94 calls)
     fftw         :    487.77s CPU    498.38s WALL (  377566 calls)
     interpolate  :      0.51s CPU      0.58s WALL (      48 calls)

     Parallel routines

     Hubbard U routines
     new_ns       :      9.06s CPU      9.28s WALL (      23 calls)
     vhpsi        :     48.71s CPU     49.70s WALL (    2647 calls)
     force_hub    :     16.40s CPU     16.58s WALL (       1 calls)
                                        0.00s GPU  (       1 calls)
     stres_hub    :     48.96s CPU     49.48s WALL (       1 calls)
                                        0.00s GPU  (       1 calls)

     PWSCF        :  24m 1.88s CPU  25m34.85s WALL


   This run was terminated on:  17:13:35  15Oct2025            

=------------------------------------------------------------------------------=
   JOB DONE.
=------------------------------------------------------------------------------=
