
     Program PWSCF v.7.3 starts on 15Oct2025 at 16:49:42 

     This program is part of the open-source Quantum ESPRESSO suite
     for quantum simulation of materials; please cite
         "P. Giannozzi et al., J. Phys.:Condens. Matter 21 395502 (2009);
         "P. Giannozzi et al., J. Phys.:Condens. Matter 29 465901 (2017);
         "P. Giannozzi et al., J. Chem. Phys. 152 154105 (2020);
          URL http://www.quantum-espresso.org", 
     in publications or presentations arising from this work. More details at
     http://www.quantum-espresso.org/quote

     Parallel version (MPI), running on    24 processors

     MPI processes distributed on     1 nodes
     39410 MiB available memory on the printing compute node when the environment starts

     Reading input from ht_afm_afm_qe.scf.in
Warning: card &CELL ignored
Warning: card / ignored

     Current dimensions of program PWSCF are:
     Max number of different atomic species (ntypx) = 10
     Max number of k-points (npk) =  40000
     Max angular momentum in pseudopotentials (lmaxx) =  4
read_pp_mesh; mismatch in mesh size, discarding the one in header
read_pp_mesh; mismatch in mesh size, discarding the one in header
read_pp_mesh; mismatch in mesh size, discarding the one in header
     file Cr.GGA-PBE-paw.UPF: wavefunction(s)  3S 4S 3P 4P 3D 4D renormalized
     file I.GGA-PBE-paw.UPF: wavefunction(s)  6S 6P renormalized
     file Cr.GGA-PBE-paw.UPF: wavefunction(s)  3S 4S 3P 4P 3D 4D renormalized

     IMPORTANT: XC functional enforced from input :
     Exchange-correlation= PBE
                           (   1   4   3   4   0   0   0)
     Any further DFT definition will be discarded
     Please, verify this is what you really want

     Message from routine setup:
     using ibrav=0 with symmetry is DISCOURAGED, use correct ibrav instead

     R & G space division:  proc/nbgrp/npool/nimage =      24
     Subspace diagonalization in iterative solution of the eigenvalue problem:
     a serial algorithm will be used


     Parallelization info
     --------------------
     sticks:   dense  smooth     PW     G-vecs:    dense   smooth      PW
     Min         179     174     46                38065    36532    5046
     Max         180     175     47                38082    36557    5059
     Sum        4303    4189   1123               913669   876961  121297

     Using Slab Decomposition



     bravais-lattice index     =            0
     lattice parameter (alat)  =      12.9956  a.u.
     unit-cell volume          =    7602.9282 (a.u.)^3
     number of atoms/cell      =           16
     number of atomic types    =            3
     number of electrons       =       140.00 (up:  70.00, down:  70.00)
     number of Kohn-Sham states=          100
     kinetic-energy cutoff     =      90.0000  Ry
     charge density cutoff     =     370.0000  Ry
     scf convergence threshold =      1.0E-11
     mixing beta               =       0.5000
     number of iterations used =            8  plain     mixing
     Exchange-correlation= PBE
                           (   1   4   3   4   0   0   0)
     Hubbard projectors: atomic
     Hubbard parameters of DFT+U (Dudarev formulation) in eV:
     U(Cr-3d) =  2.7300
     U(Cr1-3d) =  2.7300

     Internal variables: lda_plus_u =T, lda_plus_u_kind = 0

     celldm(1)=  12.995613  celldm(2)=   0.000000  celldm(3)=   0.000000
     celldm(4)=   0.000000  celldm(5)=   0.000000  celldm(6)=   0.000000

     crystal axes: (cart. coord. in units of alat)
               a(1) = (   1.000000  -0.000000   0.000000 )  
               a(2) = (  -0.500000   0.866025   0.000000 )  
               a(3) = (  -0.000000   0.000000   4.000000 )  

     reciprocal axes: (cart. coord. in units 2 pi/alat)
               b(1) = (  1.000000  0.577350  0.000000 )  
               b(2) = (  0.000000  1.154701  0.000000 )  
               b(3) = ( -0.000000 -0.000000  0.250000 )  


     PseudoPot. # 1 for Cr read from file:
     ../../Cr.GGA-PBE-paw.UPF
     MD5 check sum: 0e9dc003703e132720ff5dfacba66d28
     Pseudo is Projector augmented-wave + core cor, Zval = 14.0
     Generated using ATOMPAW code
     Shape of augmentation charge: SINC**2
     Using radial grid of 2342 points,  6 beta functions with: 
                l(1) =   0
                l(2) =   0
                l(3) =   1
                l(4) =   1
                l(5) =   2
                l(6) =   2
     Q(r) pseudized with 0 coefficients 


     PseudoPot. # 2 for I  read from file:
     ../../I.GGA-PBE-paw.UPF
     MD5 check sum: 736bb4145856fa7ed29d0984862794a4
     Pseudo is Projector augmented-wave + core cor, Zval =  7.0
     Generated using ATOMPAW code
     Shape of augmentation charge: SINC**2
     Using radial grid of 2342 points,  4 beta functions with: 
                l(1) =   0
                l(2) =   0
                l(3) =   1
                l(4) =   1
     Q(r) pseudized with 0 coefficients 


     PseudoPot. # 3 for Cr read from file:
     ../../Cr.GGA-PBE-paw.UPF
     MD5 check sum: 0e9dc003703e132720ff5dfacba66d28
     Pseudo is Projector augmented-wave + core cor, Zval = 14.0
     Generated using ATOMPAW code
     Shape of augmentation charge: SINC**2
     Using radial grid of 2342 points,  6 beta functions with: 
                l(1) =   0
                l(2) =   0
                l(3) =   1
                l(4) =   1
                l(5) =   2
                l(6) =   2
     Q(r) pseudized with 0 coefficients 


     atomic species   valence    mass     pseudopotential
     Cr               14.00    51.99610     Cr( 1.00)
     I                 7.00   126.90447     I ( 1.00)
     Cr1              14.00    51.99610     Cr( 1.00)

     Starting magnetic structure 
     atomic species   magnetization
     Cr              0.214
     I               0.000
     Cr1            -0.214

      2 Sym. Ops. (no inversion) found



   Cartesian axes

     site n.     atom                  positions (alat units)
         1        Cr     tau(   1) = (   0.8332322   0.2888117   2.2705821  )
         2        Cr     tau(   2) = (   0.3332322   0.5772137   2.2705821  )
         3        I      tau(   3) = (   0.9768883  -0.0000019   2.0450771  )
         4        I      tau(   4) = (   0.5113602   0.3087614   2.0460861  )
         5        I      tau(   5) = (   0.0113635   0.5572659   2.0460861  )
         6        I      tau(   6) = (   0.6899037  -0.0000017   2.4948790  )
         7        I      tau(   7) = (   0.6550688   0.5572240   2.4948552  )
         8        I      tau(   8) = (   0.1550716   0.3088031   2.4948552  )
         9        Cr1    tau(   9) = (   0.5001000   0.2888088   1.3132553  )
        10        Cr1    tau(  10) = (   0.0001000   0.5772166   1.3132554  )
        11        I      tau(  11) = (   0.6434309  -0.0000019   1.0889581  )
        12        I      tau(  12) = (   0.1782615   0.3088030   1.0889818  )
        13        I      tau(  13) = (  -0.3217352   0.5572244   1.0889818  )
        14        I      tau(  14) = (   0.3564452  -0.0000017   1.5387600  )
        15        I      tau(  15) = (   0.3219705   0.5572651   1.5377500  )
        16        I      tau(  16) = (  -0.1780267   0.3087620   1.5377500  )

     number of k points=    13
                       cart. coord. in units 2pi/alat
        k(    1) = (   0.0000000   0.0000000   0.0000000), wk =   0.0277778
        k(    2) = (   0.0000000   0.1924501   0.0000000), wk =   0.0555556
        k(    3) = (   0.0000000   0.3849002   0.0000000), wk =   0.0555556
        k(    4) = (   0.0000000  -0.5773503   0.0000000), wk =   0.0277778
        k(    5) = (   0.1666667   0.2886751   0.0000000), wk =   0.1111111
        k(    6) = (   0.1666667   0.4811252   0.0000000), wk =   0.1111111
        k(    7) = (   0.3333333   0.5773503   0.0000000), wk =   0.0555556
        k(    8) = (  -0.1666667   0.0962250   0.0000000), wk =   0.1111111
        k(    9) = (  -0.3333333   0.1924501   0.0000000), wk =   0.1111111
        k(   10) = (   0.5000000  -0.2886751   0.0000000), wk =   0.0555556
        k(   11) = (   0.3333333   0.0000000   0.0000000), wk =   0.0555556
        k(   12) = (  -0.3333333   0.3849002   0.0000000), wk =   0.1111111
        k(   13) = (   0.5000000   0.0962250   0.0000000), wk =   0.1111111

     Dense  grid:   913669 G-vectors     FFT dimensions: (  80,  80, 320)

     Smooth grid:   876961 G-vectors     FFT dimensions: (  80,  80, 320)

     Estimated max dynamical RAM per process >     478.26 MB

     Estimated total dynamical RAM >      11.21 GB
 ----2D----2D----2D----2D----2D----2D----2D----2D----2D----2D----2D----2D
  The code is running with the 2D cutoff
  Please refer to:
  Sohier, T., Calandra, M., & Mauri, F. (2017), 
  Density functional perturbation theory for gated two-dimensional heterostructures:
  Theoretical developments and application to flexural phonons in graphene.
  Physical Review B, 96(7), 75448. https://doi.org/10.1103/PhysRevB.96.075448
 ----2D----2D----2D----2D----2D----2D----2D----2D----2D----2D----2D----2D
     Generating pointlists ...
     new r_m :   0.1619 (alat units)  2.1043 (a.u.) for type    1
     new r_m :   0.1619 (alat units)  2.1043 (a.u.) for type    2
     new r_m :   0.1619 (alat units)  2.1043 (a.u.) for type    3
     Cannot read rho : file not found

     Initial potential from superposition of free atoms

     starting charge     139.9932, renormalised to     140.0000

     negative rho (up, down):  2.637E-02 2.638E-02

     STARTING HUBBARD OCCUPATIONS:

     =================== HUBBARD OCCUPATIONS ===================
     ------------------------ ATOM    1 ------------------------
     Tr[ns(  1)] (up, down, total) =   5.00000  0.00000  5.00000
     Atomic magnetic moment for atom   1 =   5.00000
     SPIN  1
     eigenvalues:
       1.000  1.000  1.000  1.000  1.000
     eigenvectors (columns):
       1.000  0.000  0.000  0.000  0.000
       0.000  1.000  0.000  0.000  0.000
       0.000  0.000  1.000  0.000  0.000
       0.000  0.000  0.000  1.000  0.000
       0.000  0.000  0.000  0.000  1.000
     occupation matrix ns (before diag.):
       1.000  0.000  0.000  0.000  0.000
       0.000  1.000  0.000  0.000  0.000
       0.000  0.000  1.000  0.000  0.000
       0.000  0.000  0.000  1.000  0.000
       0.000  0.000  0.000  0.000  1.000
     SPIN  2
     eigenvalues:
       0.000  0.000  0.000  0.000  0.000
     eigenvectors (columns):
       1.000  0.000  0.000  0.000  0.000
       0.000  1.000  0.000  0.000  0.000
       0.000  0.000  1.000  0.000  0.000
       0.000  0.000  0.000  1.000  0.000
       0.000  0.000  0.000  0.000  1.000
     occupation matrix ns (before diag.):
       0.000  0.000  0.000  0.000  0.000
       0.000  0.000  0.000  0.000  0.000
       0.000  0.000  0.000  0.000  0.000
       0.000  0.000  0.000  0.000  0.000
       0.000  0.000  0.000  0.000  0.000
     ------------------------ ATOM    2 ------------------------
     Tr[ns(  2)] (up, down, total) =   5.00000  0.00000  5.00000
     Atomic magnetic moment for atom   2 =   5.00000
     SPIN  1
     eigenvalues:
       1.000  1.000  1.000  1.000  1.000
     eigenvectors (columns):
       1.000  0.000  0.000  0.000  0.000
       0.000  1.000  0.000  0.000  0.000
       0.000  0.000  1.000  0.000  0.000
       0.000  0.000  0.000  1.000  0.000
       0.000  0.000  0.000  0.000  1.000
     occupation matrix ns (before diag.):
       1.000  0.000  0.000  0.000  0.000
       0.000  1.000  0.000  0.000  0.000
       0.000  0.000  1.000  0.000  0.000
       0.000  0.000  0.000  1.000  0.000
       0.000  0.000  0.000  0.000  1.000
     SPIN  2
     eigenvalues:
       0.000  0.000  0.000  0.000  0.000
     eigenvectors (columns):
       1.000  0.000  0.000  0.000  0.000
       0.000  1.000  0.000  0.000  0.000
       0.000  0.000  1.000  0.000  0.000
       0.000  0.000  0.000  1.000  0.000
       0.000  0.000  0.000  0.000  1.000
     occupation matrix ns (before diag.):
       0.000  0.000  0.000  0.000  0.000
       0.000  0.000  0.000  0.000  0.000
       0.000  0.000  0.000  0.000  0.000
       0.000  0.000  0.000  0.000  0.000
       0.000  0.000  0.000  0.000  0.000
     ------------------------ ATOM    9 ------------------------
     Tr[ns(  9)] (up, down, total) =   0.00000  5.00000  5.00000
     Atomic magnetic moment for atom   9 =  -5.00000
     SPIN  1
     eigenvalues:
       0.000  0.000  0.000  0.000  0.000
     eigenvectors (columns):
       1.000  0.000  0.000  0.000  0.000
       0.000  1.000  0.000  0.000  0.000
       0.000  0.000  1.000  0.000  0.000
       0.000  0.000  0.000  1.000  0.000
       0.000  0.000  0.000  0.000  1.000
     occupation matrix ns (before diag.):
       0.000  0.000  0.000  0.000  0.000
       0.000  0.000  0.000  0.000  0.000
       0.000  0.000  0.000  0.000  0.000
       0.000  0.000  0.000  0.000  0.000
       0.000  0.000  0.000  0.000  0.000
     SPIN  2
     eigenvalues:
       1.000  1.000  1.000  1.000  1.000
     eigenvectors (columns):
       1.000  0.000  0.000  0.000  0.000
       0.000  1.000  0.000  0.000  0.000
       0.000  0.000  1.000  0.000  0.000
       0.000  0.000  0.000  1.000  0.000
       0.000  0.000  0.000  0.000  1.000
     occupation matrix ns (before diag.):
       1.000  0.000  0.000  0.000  0.000
       0.000  1.000  0.000  0.000  0.000
       0.000  0.000  1.000  0.000  0.000
       0.000  0.000  0.000  1.000  0.000
       0.000  0.000  0.000  0.000  1.000
     ------------------------ ATOM   10 ------------------------
     Tr[ns( 10)] (up, down, total) =   0.00000  5.00000  5.00000
     Atomic magnetic moment for atom  10 =  -5.00000
     SPIN  1
     eigenvalues:
       0.000  0.000  0.000  0.000  0.000
     eigenvectors (columns):
       1.000  0.000  0.000  0.000  0.000
       0.000  1.000  0.000  0.000  0.000
       0.000  0.000  1.000  0.000  0.000
       0.000  0.000  0.000  1.000  0.000
       0.000  0.000  0.000  0.000  1.000
     occupation matrix ns (before diag.):
       0.000  0.000  0.000  0.000  0.000
       0.000  0.000  0.000  0.000  0.000
       0.000  0.000  0.000  0.000  0.000
       0.000  0.000  0.000  0.000  0.000
       0.000  0.000  0.000  0.000  0.000
     SPIN  2
     eigenvalues:
       1.000  1.000  1.000  1.000  1.000
     eigenvectors (columns):
       1.000  0.000  0.000  0.000  0.000
       0.000  1.000  0.000  0.000  0.000
       0.000  0.000  1.000  0.000  0.000
       0.000  0.000  0.000  1.000  0.000
       0.000  0.000  0.000  0.000  1.000
     occupation matrix ns (before diag.):
       1.000  0.000  0.000  0.000  0.000
       0.000  1.000  0.000  0.000  0.000
       0.000  0.000  1.000  0.000  0.000
       0.000  0.000  0.000  1.000  0.000
       0.000  0.000  0.000  0.000  1.000

     Number of occupied Hubbard levels =   20.0000

     Atomic wfc used for Hubbard projectors are NOT orthogonalized

     Starting wfcs are  168 atomic wfcs
     Checking if some PAW data can be deallocated... 

     total cpu time spent up to now is       30.8 secs

     Self-consistent Calculation

     iteration #  1     ecut=    90.00 Ry     beta= 0.50
     Davidson diagonalization with overlap
     ethr =  1.00E-05,  avg # of iterations =  9.2

     =================== HUBBARD OCCUPATIONS ===================
     ------------------------ ATOM    1 ------------------------
     Tr[ns(  1)] (up, down, total) =   4.01669  0.76236  4.77905
     Atomic magnetic moment for atom   1 =   3.25433
     SPIN  1
     eigenvalues:
       0.547  0.548  0.973  0.975  0.975
     eigenvectors (columns):
       0.001  0.000  0.998  0.046 -0.037
       0.575 -0.600 -0.032  0.281 -0.479
      -0.601 -0.574  0.013 -0.479 -0.282
      -0.383  0.403 -0.046  0.418 -0.717
      -0.402 -0.384 -0.017  0.718  0.419
     occupation matrix ns (before diag.):
       0.973 -0.000  0.000  0.000  0.000
      -0.000  0.679  0.001  0.198  0.001
       0.000  0.001  0.679  0.000 -0.198
       0.000  0.198  0.000  0.842  0.000
       0.000  0.001 -0.198  0.000  0.843
     SPIN  2
     eigenvalues:
       0.089  0.094  0.094  0.242  0.243
     eigenvectors (columns):
       1.000  0.020 -0.008  0.001 -0.000
      -0.003  0.324  0.482  0.490 -0.650
      -0.011  0.483 -0.323 -0.650 -0.490
      -0.003  0.454  0.676 -0.349  0.465
       0.018 -0.675  0.454 -0.464 -0.350
     occupation matrix ns (before diag.):
       0.089  0.000 -0.000 -0.000 -0.000
       0.000  0.193  0.000 -0.070  0.000
      -0.000  0.000  0.193 -0.000  0.070
      -0.000 -0.070 -0.000  0.144 -0.000
      -0.000  0.000  0.070 -0.000  0.144
     ------------------------ ATOM    2 ------------------------
     Tr[ns(  2)] (up, down, total) =   4.01669  0.76236  4.77905
     Atomic magnetic moment for atom   2 =   3.25433
     SPIN  1
     eigenvalues:
       0.547  0.548  0.973  0.975  0.975
     eigenvectors (columns):
       0.001  0.000  0.998  0.046 -0.037
       0.575 -0.600 -0.032  0.281 -0.479
       0.601  0.574 -0.013  0.479  0.282
      -0.383  0.403 -0.046  0.418 -0.717
       0.402  0.384  0.017 -0.718 -0.419
     occupation matrix ns (before diag.):
       0.973 -0.000 -0.000  0.000 -0.000
      -0.000  0.679 -0.001  0.198 -0.001
      -0.000 -0.001  0.679 -0.000 -0.198
       0.000  0.198 -0.000  0.842 -0.000
      -0.000 -0.001 -0.198 -0.000  0.843
     SPIN  2
     eigenvalues:
       0.089  0.094  0.094  0.242  0.243
     eigenvectors (columns):
      -1.000 -0.020 -0.008 -0.001  0.000
       0.003 -0.324  0.482 -0.490  0.650
      -0.011  0.483  0.323 -0.650 -0.490
       0.003 -0.454  0.676  0.349 -0.465
       0.018 -0.675 -0.454 -0.464 -0.350
     occupation matrix ns (before diag.):
       0.089  0.000  0.000 -0.000  0.000
       0.000  0.193 -0.000 -0.070 -0.000
       0.000 -0.000  0.193  0.000  0.070
      -0.000 -0.070  0.000  0.144  0.000
       0.000 -0.000  0.070  0.000  0.144
     ------------------------ ATOM    9 ------------------------
     Tr[ns(  9)] (up, down, total) =   0.76236  4.01669  4.77905
     Atomic magnetic moment for atom   9 =  -3.25433
     SPIN  1
     eigenvalues:
       0.089  0.094  0.094  0.242  0.243
     eigenvectors (columns):
      -1.000 -0.020 -0.008 -0.001  0.000
       0.003 -0.325  0.482 -0.491  0.649
      -0.011  0.482  0.324 -0.650 -0.490
       0.003 -0.454  0.675  0.349 -0.464
       0.018 -0.675 -0.455 -0.464 -0.350
     occupation matrix ns (before diag.):
       0.089  0.000  0.000 -0.000  0.000
       0.000  0.193 -0.000 -0.070 -0.000
       0.000 -0.000  0.193  0.000  0.070
      -0.000 -0.070  0.000  0.144  0.000
       0.000 -0.000  0.070  0.000  0.144
     SPIN  2
     eigenvalues:
       0.547  0.548  0.973  0.975  0.975
     eigenvectors (columns):
       0.001  0.000  0.998  0.046 -0.037
       0.575 -0.600 -0.031  0.279 -0.480
       0.601  0.575 -0.013  0.480  0.281
      -0.383  0.403 -0.046  0.416 -0.718
       0.402  0.384  0.017 -0.719 -0.416
     occupation matrix ns (before diag.):
       0.973 -0.000 -0.000  0.000 -0.000
      -0.000  0.679 -0.001  0.198 -0.001
      -0.000 -0.001  0.679 -0.000 -0.198
       0.000  0.198 -0.000  0.842 -0.000
      -0.000 -0.001 -0.198 -0.000  0.843
     ------------------------ ATOM   10 ------------------------
     Tr[ns( 10)] (up, down, total) =   0.76236  4.01669  4.77905
     Atomic magnetic moment for atom  10 =  -3.25433
     SPIN  1
     eigenvalues:
       0.089  0.094  0.094  0.242  0.243
     eigenvectors (columns):
       1.000  0.020 -0.008  0.001 -0.000
      -0.003  0.325  0.482  0.491 -0.649
      -0.011  0.482 -0.324 -0.650 -0.490
      -0.003  0.454  0.675 -0.349  0.464
       0.018 -0.675  0.455 -0.464 -0.350
     occupation matrix ns (before diag.):
       0.089  0.000 -0.000 -0.000 -0.000
       0.000  0.193  0.000 -0.070  0.000
      -0.000  0.000  0.193 -0.000  0.070
      -0.000 -0.070 -0.000  0.144 -0.000
      -0.000  0.000  0.070 -0.000  0.144
     SPIN  2
     eigenvalues:
       0.547  0.548  0.973  0.975  0.975
     eigenvectors (columns):
       0.001  0.000  0.998  0.046 -0.037
       0.575 -0.600 -0.031  0.279 -0.480
      -0.601 -0.575  0.013 -0.480 -0.281
      -0.383  0.403 -0.046  0.416 -0.718
      -0.402 -0.384 -0.017  0.719  0.416
     occupation matrix ns (before diag.):
       0.973 -0.000  0.000  0.000  0.000
      -0.000  0.679  0.001  0.198  0.001
       0.000  0.001  0.679  0.000 -0.198
       0.000  0.198  0.000  0.842  0.000
       0.000  0.001 -0.198  0.000  0.843

     Number of occupied Hubbard levels =   19.1162

     negative rho (up, down):  3.144E-02 3.145E-02

     total cpu time spent up to now is      193.8 secs

     total energy              =   -5538.04745890 Ry
     estimated scf accuracy    <       2.90575773 Ry

     total magnetization       =    -0.00 Bohr mag/cell
     absolute magnetization    =    14.79 Bohr mag/cell

     iteration #  2     ecut=    90.00 Ry     beta= 0.50
     Davidson diagonalization with overlap
     ethr =  2.08E-03,  avg # of iterations =  5.0

     negative rho (up, down):  2.920E-02 2.920E-02

     total cpu time spent up to now is      266.4 secs

     total energy              =   -5532.97107231 Ry
     estimated scf accuracy    <      63.72111201 Ry

     total magnetization       =     0.00 Bohr mag/cell
     absolute magnetization    =     4.56 Bohr mag/cell

     iteration #  3     ecut=    90.00 Ry     beta= 0.50
     Davidson diagonalization with overlap
     ethr =  2.08E-03,  avg # of iterations =  3.2

     negative rho (up, down):  3.076E-02 3.076E-02

     total cpu time spent up to now is      323.3 secs

     total energy              =   -5539.66852537 Ry
     estimated scf accuracy    <       0.81261454 Ry

     total magnetization       =     0.00 Bohr mag/cell
     absolute magnetization    =    15.38 Bohr mag/cell

     iteration #  4     ecut=    90.00 Ry     beta= 0.50
     Davidson diagonalization with overlap
     ethr =  5.80E-04,  avg # of iterations =  1.7

     negative rho (up, down):  3.147E-02 3.148E-02

     total cpu time spent up to now is      365.0 secs

     total energy              =   -5539.70716286 Ry
     estimated scf accuracy    <       0.14894914 Ry

     total magnetization       =    -0.00 Bohr mag/cell
     absolute magnetization    =    15.63 Bohr mag/cell

     iteration #  5     ecut=    90.00 Ry     beta= 0.50
     Davidson diagonalization with overlap
     ethr =  1.06E-04,  avg # of iterations =  3.4

     negative rho (up, down):  3.147E-02 3.148E-02

     total cpu time spent up to now is      413.1 secs

     total energy              =   -5539.73138036 Ry
     estimated scf accuracy    <       0.01502838 Ry

     total magnetization       =     0.00 Bohr mag/cell
     absolute magnetization    =    15.92 Bohr mag/cell

     iteration #  6     ecut=    90.00 Ry     beta= 0.50
     Davidson diagonalization with overlap
     ethr =  1.07E-05,  avg # of iterations =  8.2

     negative rho (up, down):  3.134E-02 3.136E-02

     total cpu time spent up to now is      489.2 secs

     total energy              =   -5539.73806448 Ry
     estimated scf accuracy    <       0.02024753 Ry

     total magnetization       =     0.00 Bohr mag/cell
     absolute magnetization    =    16.14 Bohr mag/cell

     iteration #  7     ecut=    90.00 Ry     beta= 0.50
     Davidson diagonalization with overlap
     ethr =  1.07E-05,  avg # of iterations =  6.0

     negative rho (up, down):  3.141E-02 3.142E-02

     total cpu time spent up to now is      548.0 secs

     total energy              =   -5539.74158665 Ry
     estimated scf accuracy    <       0.00273325 Ry

     total magnetization       =     0.00 Bohr mag/cell
     absolute magnetization    =    16.49 Bohr mag/cell

     iteration #  8     ecut=    90.00 Ry     beta= 0.50
     Davidson diagonalization with overlap
     ethr =  1.95E-06,  avg # of iterations =  3.5

     negative rho (up, down):  3.140E-02 3.141E-02

     total cpu time spent up to now is      595.4 secs

     total energy              =   -5539.74183866 Ry
     estimated scf accuracy    <       0.00040681 Ry

     total magnetization       =     0.00 Bohr mag/cell
     absolute magnetization    =    16.48 Bohr mag/cell

     iteration #  9     ecut=    90.00 Ry     beta= 0.50
     Davidson diagonalization with overlap
     ethr =  2.91E-07,  avg # of iterations =  4.0

     negative rho (up, down):  3.138E-02 3.139E-02

     total cpu time spent up to now is      648.5 secs

     total energy              =   -5539.74195816 Ry
     estimated scf accuracy    <       0.00002458 Ry

     total magnetization       =    -0.00 Bohr mag/cell
     absolute magnetization    =    16.45 Bohr mag/cell

     iteration # 10     ecut=    90.00 Ry     beta= 0.50
     Davidson diagonalization with overlap
     ethr =  1.76E-08,  avg # of iterations =  4.1

     negative rho (up, down):  3.133E-02 3.134E-02

     total cpu time spent up to now is      709.0 secs

     total energy              =   -5539.74197290 Ry
     estimated scf accuracy    <       0.00001452 Ry

     total magnetization       =     0.00 Bohr mag/cell
     absolute magnetization    =    16.46 Bohr mag/cell

     iteration # 11     ecut=    90.00 Ry     beta= 0.50
     Davidson diagonalization with overlap
     ethr =  1.04E-08,  avg # of iterations =  2.0

     negative rho (up, down):  3.130E-02 3.131E-02

     total cpu time spent up to now is      753.9 secs

     total energy              =   -5539.74197811 Ry
     estimated scf accuracy    <       0.00000179 Ry

     total magnetization       =     0.00 Bohr mag/cell
     absolute magnetization    =    16.47 Bohr mag/cell

     iteration # 12     ecut=    90.00 Ry     beta= 0.50
     Davidson diagonalization with overlap
     ethr =  1.28E-09,  avg # of iterations =  3.8

     negative rho (up, down):  3.129E-02 3.130E-02

     total cpu time spent up to now is      810.2 secs

     total energy              =   -5539.74197898 Ry
     estimated scf accuracy    <       0.00000446 Ry

     total magnetization       =    -0.00 Bohr mag/cell
     absolute magnetization    =    16.48 Bohr mag/cell

     iteration # 13     ecut=    90.00 Ry     beta= 0.50
     Davidson diagonalization with overlap
     ethr =  1.28E-09,  avg # of iterations =  2.0

     negative rho (up, down):  3.127E-02 3.128E-02

     total cpu time spent up to now is      856.4 secs

     total energy              =   -5539.74198008 Ry
     estimated scf accuracy    <       0.00000051 Ry

     total magnetization       =    -0.00 Bohr mag/cell
     absolute magnetization    =    16.48 Bohr mag/cell

     iteration # 14     ecut=    90.00 Ry     beta= 0.50
     Davidson diagonalization with overlap
     ethr =  3.64E-10,  avg # of iterations =  3.9

     negative rho (up, down):  3.128E-02 3.128E-02

     total cpu time spent up to now is      911.3 secs

     total energy              =   -5539.74198045 Ry
     estimated scf accuracy    <       0.00000022 Ry

     total magnetization       =    -0.00 Bohr mag/cell
     absolute magnetization    =    16.49 Bohr mag/cell

     iteration # 15     ecut=    90.00 Ry     beta= 0.50
     Davidson diagonalization with overlap
     ethr =  1.60E-10,  avg # of iterations =  2.0

     negative rho (up, down):  3.128E-02 3.129E-02

     total cpu time spent up to now is      955.4 secs

     total energy              =   -5539.74198055 Ry
     estimated scf accuracy    <       0.00000004 Ry

     total magnetization       =     0.00 Bohr mag/cell
     absolute magnetization    =    16.49 Bohr mag/cell

     iteration # 16     ecut=    90.00 Ry     beta= 0.50
     Davidson diagonalization with overlap
     ethr =  2.69E-11,  avg # of iterations =  3.9

     negative rho (up, down):  3.128E-02 3.129E-02

     total cpu time spent up to now is     1013.7 secs

     total energy              =   -5539.74198058 Ry
     estimated scf accuracy    <       0.00000002 Ry

     total magnetization       =    -0.00 Bohr mag/cell
     absolute magnetization    =    16.49 Bohr mag/cell

     iteration # 17     ecut=    90.00 Ry     beta= 0.50
     Davidson diagonalization with overlap
     ethr =  1.61E-11,  avg # of iterations =  2.0

     negative rho (up, down):  3.128E-02 3.129E-02

     total cpu time spent up to now is     1059.9 secs

     total energy              =   -5539.74198059 Ry
     estimated scf accuracy    <       0.00000001 Ry

     total magnetization       =     0.00 Bohr mag/cell
     absolute magnetization    =    16.49 Bohr mag/cell

     iteration # 18     ecut=    90.00 Ry     beta= 0.50
     Davidson diagonalization with overlap
     ethr =  7.43E-12,  avg # of iterations =  1.5

     negative rho (up, down):  3.128E-02 3.129E-02

     total cpu time spent up to now is     1101.9 secs

     total energy              =   -5539.74198059 Ry
     estimated scf accuracy    <          6.3E-10 Ry

     total magnetization       =     0.00 Bohr mag/cell
     absolute magnetization    =    16.50 Bohr mag/cell

     iteration # 19     ecut=    90.00 Ry     beta= 0.50
     Davidson diagonalization with overlap
     ethr =  4.49E-13,  avg # of iterations =  4.0

     negative rho (up, down):  3.128E-02 3.129E-02

     total cpu time spent up to now is     1165.9 secs

     total energy              =   -5539.74198059 Ry
     estimated scf accuracy    <          5.3E-10 Ry

     total magnetization       =    -0.00 Bohr mag/cell
     absolute magnetization    =    16.50 Bohr mag/cell

     iteration # 20     ecut=    90.00 Ry     beta= 0.50
     Davidson diagonalization with overlap
     ethr =  3.79E-13,  avg # of iterations =  1.5

     negative rho (up, down):  3.128E-02 3.129E-02

     total cpu time spent up to now is     1208.2 secs

     total energy              =   -5539.74198059 Ry
     estimated scf accuracy    <          2.7E-11 Ry

     total magnetization       =     0.00 Bohr mag/cell
     absolute magnetization    =    16.50 Bohr mag/cell

     iteration # 21     ecut=    90.00 Ry     beta= 0.50
     Davidson diagonalization with overlap
     ethr =  1.00E-13,  avg # of iterations =  2.4

     negative rho (up, down):  3.128E-02 3.129E-02

     total cpu time spent up to now is     1252.2 secs

     total energy              =   -5539.74198059 Ry
     estimated scf accuracy    <          1.6E-11 Ry

     total magnetization       =     0.00 Bohr mag/cell
     absolute magnetization    =    16.50 Bohr mag/cell

     iteration # 22     ecut=    90.00 Ry     beta= 0.50
     Davidson diagonalization with overlap
     ethr =  1.00E-13,  avg # of iterations =  1.0

     negative rho (up, down):  3.128E-02 3.129E-02

     Magnetic moment per site  (integrated on atomic sphere of radius R)
     atom   1 (R=0.162)  charge= 12.4168  magn=  3.2170
     atom   2 (R=0.162)  charge= 12.4168  magn=  3.2170
     atom   3 (R=0.162)  charge=  4.0390  magn= -0.1146
     atom   4 (R=0.162)  charge=  4.0399  magn= -0.1173
     atom   5 (R=0.162)  charge=  4.0399  magn= -0.1173
     atom   6 (R=0.162)  charge=  4.0415  magn= -0.1184
     atom   7 (R=0.162)  charge=  4.0413  magn= -0.1195
     atom   8 (R=0.162)  charge=  4.0413  magn= -0.1195
     atom   9 (R=0.162)  charge= 12.4168  magn= -3.2170
     atom  10 (R=0.162)  charge= 12.4168  magn= -3.2170
     atom  11 (R=0.162)  charge=  4.0414  magn=  0.1184
     atom  12 (R=0.162)  charge=  4.0412  magn=  0.1195
     atom  13 (R=0.162)  charge=  4.0412  magn=  0.1195
     atom  14 (R=0.162)  charge=  4.0389  magn=  0.1146
     atom  15 (R=0.162)  charge=  4.0398  magn=  0.1173
     atom  16 (R=0.162)  charge=  4.0398  magn=  0.1173

     total cpu time spent up to now is     1292.8 secs

     End of self-consistent calculation

     =================== HUBBARD OCCUPATIONS ===================
     ------------------------ ATOM    1 ------------------------
     Tr[ns(  1)] (up, down, total) =   4.40368  1.12879  5.53247
     Atomic magnetic moment for atom   1 =   3.27489
     SPIN  1
     eigenvalues:
       0.710  0.712  0.994  0.994  0.994
     eigenvectors (columns):
       0.002  0.001 -0.997 -0.076 -0.032
       0.501 -0.653  0.044 -0.400 -0.401
      -0.654 -0.500 -0.019  0.400 -0.403
      -0.344  0.452  0.062 -0.579 -0.581
      -0.451 -0.345  0.024 -0.582  0.581
     occupation matrix ns (before diag.):
       0.994 -0.000  0.001  0.000  0.000
      -0.000  0.802  0.001  0.132  0.000
       0.001  0.001  0.802  0.000 -0.132
       0.000  0.132  0.000  0.903  0.000
       0.000  0.000 -0.132  0.000  0.903
     SPIN  2
     eigenvalues:
       0.108  0.115  0.116  0.394  0.396
     eigenvectors (columns):
       0.999  0.034 -0.023  0.002  0.000
      -0.002  0.351  0.453  0.430 -0.698
      -0.022  0.453 -0.349 -0.699 -0.429
      -0.001  0.501  0.649 -0.299  0.489
       0.035 -0.647  0.502 -0.488 -0.300
     occupation matrix ns (before diag.):
       0.108  0.000 -0.000 -0.000 -0.001
       0.000  0.304  0.000 -0.131  0.000
      -0.000  0.000  0.303 -0.001  0.131
      -0.000 -0.131 -0.001  0.207 -0.000
      -0.001  0.000  0.131 -0.000  0.207
     ------------------------ ATOM    2 ------------------------
     Tr[ns(  2)] (up, down, total) =   4.40368  1.12879  5.53247
     Atomic magnetic moment for atom   2 =   3.27489
     SPIN  1
     eigenvalues:
       0.710  0.712  0.994  0.994  0.994
     eigenvectors (columns):
       0.002  0.001 -0.997 -0.076 -0.032
       0.501 -0.653  0.044 -0.400 -0.401
       0.654  0.500  0.019 -0.400  0.403
      -0.344  0.452  0.062 -0.579 -0.581
       0.451  0.345 -0.024  0.582 -0.581
     occupation matrix ns (before diag.):
       0.994 -0.000 -0.001  0.000 -0.000
      -0.000  0.802 -0.001  0.132 -0.000
      -0.001 -0.001  0.802 -0.000 -0.132
       0.000  0.132 -0.000  0.903 -0.000
      -0.000 -0.000 -0.132 -0.000  0.903
     SPIN  2
     eigenvalues:
       0.108  0.115  0.116  0.394  0.396
     eigenvectors (columns):
      -0.999 -0.034 -0.023 -0.002 -0.000
       0.002 -0.351  0.453 -0.430  0.698
      -0.022  0.453  0.349 -0.699 -0.429
       0.001 -0.501  0.649  0.299 -0.489
       0.035 -0.647 -0.502 -0.488 -0.300
     occupation matrix ns (before diag.):
       0.108  0.000  0.000 -0.000  0.001
       0.000  0.304 -0.000 -0.131 -0.000
       0.000 -0.000  0.303  0.001  0.131
      -0.000 -0.131  0.001  0.207  0.000
       0.001 -0.000  0.131  0.000  0.207
     ------------------------ ATOM    9 ------------------------
     Tr[ns(  9)] (up, down, total) =   1.12879  4.40368  5.53247
     Atomic magnetic moment for atom   9 =  -3.27489
     SPIN  1
     eigenvalues:
       0.108  0.115  0.116  0.394  0.396
     eigenvectors (columns):
      -0.999 -0.034 -0.023 -0.002 -0.000
       0.002 -0.352  0.452 -0.430  0.698
      -0.022  0.453  0.350 -0.698 -0.429
       0.001 -0.502  0.648  0.299 -0.488
       0.035 -0.646 -0.503 -0.487 -0.301
     occupation matrix ns (before diag.):
       0.108  0.000  0.000 -0.000  0.001
       0.000  0.304 -0.000 -0.131 -0.000
       0.000 -0.000  0.303  0.001  0.131
      -0.000 -0.131  0.001  0.207  0.001
       0.001 -0.000  0.131  0.001  0.207
     SPIN  2
     eigenvalues:
       0.710  0.712  0.994  0.994  0.994
     eigenvectors (columns):
       0.002  0.001 -0.997 -0.076 -0.032
       0.501 -0.653  0.044 -0.399 -0.402
       0.654  0.500  0.020 -0.401  0.402
      -0.343  0.453  0.062 -0.578 -0.582
       0.451  0.345 -0.025  0.584 -0.580
     occupation matrix ns (before diag.):
       0.994 -0.000 -0.001  0.000 -0.000
      -0.000  0.802 -0.001  0.132 -0.000
      -0.001 -0.001  0.802 -0.000 -0.132
       0.000  0.132 -0.000  0.903 -0.000
      -0.000 -0.000 -0.132 -0.000  0.903
     ------------------------ ATOM   10 ------------------------
     Tr[ns( 10)] (up, down, total) =   1.12879  4.40368  5.53247
     Atomic magnetic moment for atom  10 =  -3.27489
     SPIN  1
     eigenvalues:
       0.108  0.115  0.116  0.394  0.396
     eigenvectors (columns):
       0.999  0.034 -0.023  0.002  0.000
      -0.002  0.352  0.452  0.430 -0.698
      -0.022  0.453 -0.350 -0.698 -0.429
      -0.001  0.502  0.648 -0.299  0.488
       0.035 -0.646  0.503 -0.487 -0.301
     occupation matrix ns (before diag.):
       0.108  0.000 -0.000 -0.000 -0.001
       0.000  0.304  0.000 -0.131  0.000
      -0.000  0.000  0.303 -0.001  0.131
      -0.000 -0.131 -0.001  0.207 -0.001
      -0.001  0.000  0.131 -0.001  0.207
     SPIN  2
     eigenvalues:
       0.710  0.712  0.994  0.994  0.994
     eigenvectors (columns):
       0.002  0.001 -0.997 -0.076 -0.032
       0.501 -0.653  0.044 -0.399 -0.402
      -0.654 -0.500 -0.020  0.401 -0.402
      -0.343  0.453  0.062 -0.578 -0.582
      -0.451 -0.345  0.025 -0.584  0.580
     occupation matrix ns (before diag.):
       0.994 -0.000  0.001  0.000  0.000
      -0.000  0.802  0.001  0.132  0.000
       0.001  0.001  0.802  0.000 -0.132
       0.000  0.132  0.000  0.903  0.000
       0.000  0.000 -0.132  0.000  0.903

     Number of occupied Hubbard levels =   22.1299

 ------ SPIN UP ------------


          k = 0.0000 0.0000 0.0000 (109591 PWs)   bands (ev):

   -78.1853 -78.1843 -74.8437 -74.8426 -49.5292 -49.5278 -49.5232 -49.5225
   -49.5197 -49.5190 -46.2514 -46.2498 -46.2287 -46.2280 -46.2246 -46.2239
   -18.5798 -18.4741 -17.7998 -17.6292 -17.5011 -17.4967 -17.4385 -17.4355
   -17.3447 -17.3422 -17.3354 -17.3318 -10.4351 -10.1850  -9.9478  -9.6757
    -9.6733  -9.5340  -9.5323  -9.2976  -8.9414  -8.9042  -8.7966  -8.7281
    -8.7280  -8.6809  -8.6192  -8.6119  -8.5154  -8.2206  -8.1483  -7.8421
    -7.8190  -7.6526  -7.6161  -7.4814  -7.4516  -7.3801  -7.2638  -7.2514
    -7.1091  -6.9609  -6.9009  -6.8556  -6.7213  -6.3474  -6.3385  -6.2323
    -6.2292  -6.1033  -5.8377  -5.8363  -5.6499  -5.6487  -4.4949  -4.4841
    -4.0110  -4.0095  -2.7326  -2.7325  -2.5953  -2.5851  -2.4953  -2.4773
    -2.1897  -2.1885  -2.0883  -2.0858  -0.6795  -0.4162  -0.0728   0.1023
     0.1698   0.2585   0.8195   0.8232   1.0121   1.0356   1.4155   1.5840
     1.6357   1.7122   1.8189   1.9965

          k = 0.0000 0.1925 0.0000 (109722 PWs)   bands (ev):

   -78.1854 -78.1844 -74.8437 -74.8426 -49.5291 -49.5278 -49.5231 -49.5223
   -49.5199 -49.5189 -46.2513 -46.2498 -46.2288 -46.2277 -46.2247 -46.2239
   -18.5215 -18.4165 -17.7650 -17.6062 -17.5786 -17.5331 -17.5063 -17.4549
   -17.3627 -17.3584 -17.3377 -17.3335 -10.4114 -10.1287  -9.9266  -9.7606
    -9.7173  -9.4565  -9.3931  -9.2914  -9.0171  -8.9520  -8.7937  -8.7707
    -8.7234  -8.6858  -8.6520  -8.3484  -8.2587  -8.1170  -8.0406  -7.9220
    -7.7781  -7.7668  -7.6336  -7.5791  -7.4275  -7.2968  -7.2778  -7.1864
    -7.0028  -6.9701  -6.9242  -6.7799  -6.6838  -6.4377  -6.3747  -6.2979
    -6.2463  -6.1835  -6.0658  -5.9342  -5.8315  -5.6827  -4.4852  -4.4538
    -4.2020  -4.0582  -2.7231  -2.6867  -2.6261  -2.5858  -2.4825  -2.3834
    -2.2241  -2.1807  -2.1759  -2.1470  -0.6395  -0.1065   0.0949   0.3575
     0.4630   0.5507   0.6646   0.6900   0.9619   1.1710   1.3639   1.4626
     1.7130   1.7540   1.8613   1.9655

          k = 0.0000 0.3849 0.0000 (109616 PWs)   bands (ev):

   -78.1856 -78.1846 -74.8436 -74.8425 -49.5291 -49.5279 -49.5231 -49.5218
   -49.5204 -49.5187 -46.2512 -46.2499 -46.2291 -46.2272 -46.2252 -46.2239
   -18.3624 -18.2612 -17.7805 -17.6996 -17.6736 -17.5794 -17.5376 -17.4841
   -17.4179 -17.3930 -17.3670 -17.3495 -10.4436  -9.9666  -9.8442  -9.7399
    -9.6026  -9.3732  -9.3055  -9.2408  -9.1370  -8.9299  -8.8648  -8.7578
    -8.6667  -8.6199  -8.4521  -8.3382  -8.1366  -8.0729  -8.0451  -7.9180
    -7.7570  -7.7299  -7.6665  -7.4138  -7.3427  -7.3350  -7.1878  -7.1588
    -7.0864  -7.0367  -6.9517  -6.7748  -6.6842  -6.6132  -6.4639  -6.3686
    -6.2966  -6.2733  -6.1826  -6.0961  -5.9026  -5.7552  -4.4582  -4.3956
    -4.3253  -4.2131  -2.7537  -2.6760  -2.6440  -2.6043  -2.5237  -2.3348
    -2.3028  -2.1974  -2.1600  -2.0983  -0.8414  -0.1239   0.1430   0.5473
     0.6006   0.7807   0.8415   1.0474   1.0572   1.1481   1.2428   1.3024
     1.4485   1.5372   1.6107   1.7532

          k = 0.0000-0.5774 0.0000 (109602 PWs)   bands (ev):

   -78.1857 -78.1847 -74.8435 -74.8425 -49.5290 -49.5280 -49.5231 -49.5213
   -49.5209 -49.5186 -46.2511 -46.2500 -46.2291 -46.2268 -46.2256 -46.2239
   -18.2135 -18.1184 -17.9508 -17.8548 -17.6015 -17.5889 -17.5176 -17.4719
   -17.4623 -17.4372 -17.3954 -17.3591 -10.4904  -9.8190  -9.8136  -9.7265
    -9.3950  -9.3343  -9.2804  -9.1672  -9.1625  -8.9814  -8.8739  -8.6799
    -8.5898  -8.5604  -8.5369  -8.5125  -8.2372  -8.1215  -8.0704  -7.8276
    -7.7674  -7.6713  -7.4812  -7.4482  -7.3834  -7.3585  -7.3378  -7.2157
    -7.1874  -6.9113  -6.8661  -6.7446  -6.6327  -6.5526  -6.5262  -6.4873
    -6.3472  -6.2763  -6.2386  -6.0415  -5.9297  -5.7379  -4.4163  -4.4037
    -4.3446  -4.2362  -2.8497  -2.6708  -2.6601  -2.6371  -2.4889  -2.4043
    -2.3234  -2.1179  -2.1133  -2.0690  -1.0928  -0.3223   0.1729   0.1840
     0.5592   0.7647   0.9111   0.9458   1.0684   1.2486   1.2962   1.4221
     1.5024   1.5252   1.6142   1.6237

          k = 0.1667 0.2887 0.0000 (109615 PWs)   bands (ev):

   -78.1856 -78.1845 -74.8436 -74.8425 -49.5291 -49.5279 -49.5231 -49.5222
   -49.5200 -49.5189 -46.2512 -46.2499 -46.2289 -46.2274 -46.2252 -46.2238
   -18.4111 -18.3092 -17.7061 -17.7020 -17.6381 -17.5809 -17.5579 -17.4942
   -17.3954 -17.3825 -17.3565 -17.3396 -10.3487 -10.0832  -9.8864  -9.8176
    -9.5342  -9.4436  -9.2973  -9.2774  -9.0726  -8.9781  -8.9147  -8.7937
    -8.6646  -8.6020  -8.4672  -8.2829  -8.1092  -8.0658  -8.0179  -7.9015
    -7.8492  -7.7958  -7.6984  -7.4702  -7.3583  -7.2687  -7.2049  -7.1626
    -7.0844  -6.9808  -6.8625  -6.8399  -6.6762  -6.5256  -6.4539  -6.4045
    -6.2798  -6.2088  -6.1776  -6.0822  -5.9116  -5.7424  -4.4681  -4.4015
    -4.3811  -4.0893  -2.7083  -2.6731  -2.6114  -2.6049  -2.5739  -2.3024
    -2.2625  -2.2581  -2.1433  -2.1202  -0.6632  -0.2341   0.1554   0.3957
     0.5332   0.6852   0.8157   0.9120   1.1343   1.1650   1.2754   1.3951
     1.5451   1.6183   1.6996   1.7200

          k = 0.1667 0.4811 0.0000 (109606 PWs)   bands (ev):

   -78.1857 -78.1847 -74.8435 -74.8425 -49.5290 -49.5280 -49.5231 -49.5216
   -49.5206 -49.5187 -46.2511 -46.2500 -46.2291 -46.2268 -46.2257 -46.2238
   -18.2289 -18.1326 -17.9000 -17.8232 -17.6391 -17.6032 -17.5387 -17.4850
   -17.4576 -17.4206 -17.3893 -17.3553 -10.3280  -9.9387  -9.7881  -9.7054
    -9.4377  -9.3916  -9.2852  -9.2428  -9.0978  -9.0523  -8.8539  -8.7588
    -8.6763  -8.5497  -8.4397  -8.3781  -8.2686  -8.1598  -7.9923  -7.9117
    -7.7814  -7.6730  -7.6384  -7.5200  -7.4361  -7.3789  -7.1632  -7.1529
    -7.0119  -6.9492  -6.7962  -6.7128  -6.6674  -6.6038  -6.5356  -6.4883
    -6.3184  -6.2364  -6.1987  -6.1136  -5.8915  -5.7752  -4.4402  -4.3855
    -4.3245  -4.1405  -2.7714  -2.6907  -2.6363  -2.6162  -2.5314  -2.4136
    -2.3627  -2.1457  -2.0660  -2.0499  -0.9228  -0.3904  -0.1999   0.2410
     0.3613   0.6006   0.6775   0.8026   0.9701   1.0738   1.1300   1.2427
     1.2897   1.4061   1.5574   1.6639

          k = 0.3333 0.5774 0.0000 (109542 PWs)   bands (ev):

   -78.1857 -78.1847 -74.8435 -74.8425 -49.5290 -49.5280 -49.5231 -49.5215
   -49.5205 -49.5187 -46.2511 -46.2500 -46.2290 -46.2269 -46.2259 -46.2238
   -18.0607 -18.0441 -17.9735 -17.9655 -17.6920 -17.5839 -17.5246 -17.5078
   -17.4521 -17.4247 -17.4166 -17.3635  -9.9930  -9.9690  -9.9650  -9.5073
    -9.4753  -9.3891  -9.3631  -9.2105  -9.1945  -8.9571  -8.8729  -8.8217
    -8.7524  -8.6974  -8.2885  -8.2442  -8.2407  -8.1248  -8.1026  -8.0829
    -7.9227  -7.6727  -7.6709  -7.5865  -7.5672  -7.1284  -7.0743  -7.0464
    -6.9047  -6.8641  -6.8336  -6.7647  -6.6380  -6.6146  -6.5936  -6.5086
    -6.3130  -6.2223  -6.1766  -6.1222  -5.8593  -5.8003  -4.4513  -4.3171
    -4.3140  -4.0501  -2.7127  -2.7123  -2.6519  -2.5833  -2.5437  -2.5420
    -2.3562  -2.0930  -2.0197  -2.0184  -0.8213  -0.7891  -0.2039  -0.1607
     0.2615   0.3779   0.4136   0.6035   0.7319   0.7796   1.0039   1.0894
     1.1645   1.3031   1.4641   1.4762

          k =-0.1667 0.0962 0.0000 (109722 PWs)   bands (ev):

   -78.1854 -78.1844 -74.8437 -74.8426 -49.5291 -49.5278 -49.5232 -49.5223
   -49.5198 -49.5190 -46.2513 -46.2498 -46.2286 -46.2280 -46.2246 -46.2239
   -18.5210 -18.4165 -17.7650 -17.6068 -17.5825 -17.5280 -17.5099 -17.4526
   -17.3638 -17.3581 -17.3358 -17.3343 -10.4132 -10.1282  -9.9177  -9.7612
    -9.7237  -9.4519  -9.3980  -9.2948  -9.0122  -8.9375  -8.8330  -8.7750
    -8.7143  -8.6674  -8.6423  -8.3555  -8.2491  -8.1647  -7.9997  -7.9171
    -7.8026  -7.7420  -7.6612  -7.5602  -7.4250  -7.3254  -7.2596  -7.1951
    -7.0340  -6.9666  -6.8329  -6.8042  -6.6878  -6.4455  -6.4103  -6.2893
    -6.2242  -6.2025  -6.0576  -5.9316  -5.8284  -5.6859  -4.4809  -4.4574
    -4.2013  -4.0586  -2.7231  -2.6871  -2.6225  -2.5907  -2.4802  -2.3863
    -2.2230  -2.1806  -2.1747  -2.1470  -0.6529  -0.0940   0.1262   0.3564
     0.4336   0.5688   0.6343   0.6597   1.0208   1.1960   1.2748   1.4900
     1.6773   1.7844   1.9067   1.9755

          k =-0.3333 0.1925 0.0000 (109616 PWs)   bands (ev):

   -78.1856 -78.1846 -74.8436 -74.8425 -49.5291 -49.5279 -49.5232 -49.5219
   -49.5201 -49.5189 -46.2512 -46.2499 -46.2285 -46.2280 -46.2250 -46.2239
   -18.3593 -18.2622 -17.7872 -17.7032 -17.6681 -17.5784 -17.5398 -17.4807
   -17.4220 -17.3890 -17.3672 -17.3486 -10.4448  -9.9635  -9.8455  -9.7366
    -9.5958  -9.3777  -9.3052  -9.2523  -9.1269  -8.9455  -8.8596  -8.7645
    -8.6736  -8.5920  -8.4577  -8.3231  -8.1505  -8.0697  -8.0628  -7.9170
    -7.7512  -7.7388  -7.6501  -7.4094  -7.3814  -7.2992  -7.2049  -7.1855
    -7.0936  -7.0192  -6.9281  -6.7439  -6.6805  -6.6225  -6.4950  -6.3955
    -6.2880  -6.2462  -6.1744  -6.0544  -5.9313  -5.7812  -4.4593  -4.3861
    -4.3250  -4.2125  -2.7540  -2.6755  -2.6458  -2.6034  -2.5222  -2.3327
    -2.3000  -2.1999  -2.1615  -2.0975  -0.8698  -0.0844   0.1179   0.4827
     0.6354   0.7991   0.8900   1.0400   1.0818   1.1603   1.2013   1.3228
     1.4614   1.4906   1.6325   1.7229

          k = 0.5000-0.2887 0.0000 (109602 PWs)   bands (ev):

   -78.1857 -78.1847 -74.8435 -74.8425 -49.5290 -49.5279 -49.5232 -49.5216
   -49.5203 -49.5188 -46.2511 -46.2500 -46.2285 -46.2279 -46.2252 -46.2239
   -18.1950 -18.1354 -17.9512 -17.8614 -17.6007 -17.5811 -17.5168 -17.4960
   -17.4507 -17.4242 -17.4018 -17.3572 -10.4907  -9.8300  -9.8046  -9.7149
    -9.4160  -9.2901  -9.2836  -9.1995  -9.1421  -9.0223  -8.8779  -8.6778
    -8.5619  -8.5544  -8.5260  -8.4819  -8.2963  -8.1491  -8.0310  -7.8452
    -7.7662  -7.6683  -7.4590  -7.4281  -7.3885  -7.3483  -7.3350  -7.2917
    -7.1845  -6.9258  -6.7980  -6.7529  -6.6257  -6.5890  -6.5263  -6.4886
    -6.3653  -6.2592  -6.1837  -6.0104  -5.9038  -5.8418  -4.4218  -4.3912
    -4.3414  -4.2296  -2.8502  -2.6699  -2.6603  -2.6374  -2.4859  -2.4016
    -2.3229  -2.1200  -2.1124  -2.0692  -1.1228  -0.3147   0.1565   0.1836
     0.5697   0.8036   0.9039   0.9757   1.0146   1.2573   1.3559   1.4051
     1.4781   1.4984   1.6171   1.6653

          k = 0.3333 0.0000 0.0000 (109615 PWs)   bands (ev):

   -78.1855 -78.1845 -74.8436 -74.8425 -49.5291 -49.5279 -49.5231 -49.5222
   -49.5198 -49.5191 -46.2512 -46.2499 -46.2285 -46.2280 -46.2250 -46.2238
   -18.4098 -18.3092 -17.7144 -17.7017 -17.6300 -17.5883 -17.5562 -17.4891
   -17.4010 -17.3807 -17.3521 -17.3411 -10.3528 -10.0822  -9.8664  -9.8282
    -9.5357  -9.4448  -9.2954  -9.2917  -9.0529  -8.9814  -8.8977  -8.8225
    -8.6643  -8.6204  -8.4044  -8.3146  -8.1401  -8.0418  -8.0296  -7.8931
    -7.8704  -7.7750  -7.7032  -7.4765  -7.3555  -7.2925  -7.1700  -7.1450
    -7.0959  -6.9970  -6.8481  -6.8252  -6.6764  -6.5375  -6.4646  -6.4234
    -6.2791  -6.1755  -6.1729  -6.0797  -5.9301  -5.7464  -4.4688  -4.4031
    -4.3733  -4.0896  -2.7095  -2.6738  -2.6107  -2.6075  -2.5737  -2.2952
    -2.2627  -2.2597  -2.1439  -2.1198  -0.6957  -0.1731   0.1089   0.3865
     0.5020   0.7339   0.8595   0.8985   1.0542   1.1885   1.2475   1.4357
     1.5834   1.6268   1.6693   1.8137

          k =-0.3333 0.3849 0.0000 (109606 PWs)   bands (ev):

   -78.1857 -78.1847 -74.8435 -74.8425 -49.5290 -49.5279 -49.5232 -49.5215
   -49.5205 -49.5188 -46.2511 -46.2500 -46.2288 -46.2275 -46.2253 -46.2239
   -18.2226 -18.1372 -17.9037 -17.8241 -17.6392 -17.6003 -17.5344 -17.4968
   -17.4544 -17.4120 -17.3951 -17.3539 -10.3287  -9.9338  -9.7886  -9.7134
    -9.4157  -9.3885  -9.2836  -9.2566  -9.1003  -9.0714  -8.8522  -8.7589
    -8.6756  -8.5239  -8.4098  -8.4048  -8.2883  -8.1576  -7.9998  -7.9122
    -7.7865  -7.6514  -7.6382  -7.5293  -7.4272  -7.3778  -7.2016  -7.1522
    -7.0210  -6.9177  -6.7706  -6.7380  -6.6761  -6.5873  -6.5199  -6.4944
    -6.3778  -6.1813  -6.1681  -6.1206  -5.8765  -5.8284  -4.4397  -4.3821
    -4.3222  -4.1386  -2.7715  -2.6904  -2.6361  -2.6157  -2.5300  -2.4138
    -2.3618  -2.1464  -2.0648  -2.0512  -0.9473  -0.3716  -0.2018   0.2423
     0.3358   0.6182   0.7307   0.7985   0.9444   1.0493   1.1102   1.2666
     1.2837   1.4509   1.5013   1.6122

          k = 0.5000 0.0962 0.0000 (109606 PWs)   bands (ev):

   -78.1857 -78.1847 -74.8435 -74.8425 -49.5291 -49.5279 -49.5231 -49.5220
   -49.5199 -49.5190 -46.2511 -46.2500 -46.2288 -46.2274 -46.2256 -46.2237
   -18.2209 -18.1363 -17.9116 -17.8190 -17.6404 -17.6016 -17.5321 -17.4907
   -17.4637 -17.4103 -17.3923 -17.3547 -10.3297  -9.9407  -9.7828  -9.6986
    -9.4403  -9.3874  -9.2859  -9.2423  -9.0990  -9.0617  -8.8665  -8.7668
    -8.6511  -8.5380  -8.4347  -8.4015  -8.2564  -8.1620  -8.0040  -7.9197
    -7.7835  -7.6608  -7.6410  -7.5156  -7.4184  -7.3913  -7.2171  -7.1173
    -7.0462  -6.8982  -6.7673  -6.7145  -6.6920  -6.6114  -6.5569  -6.4738
    -6.3440  -6.2167  -6.1387  -6.0972  -5.9202  -5.8174  -4.4344  -4.3825
    -4.3235  -4.1376  -2.7724  -2.6902  -2.6382  -2.6151  -2.5305  -2.4124
    -2.3589  -2.1448  -2.0662  -2.0511  -0.9546  -0.3674  -0.2015   0.1876
     0.3551   0.6407   0.7482   0.8389   0.9247   1.0268   1.0706   1.2175
     1.3834   1.4808   1.5618   1.5910

 ------ SPIN DOWN ----------


          k = 0.0000 0.0000 0.0000 (109591 PWs)   bands (ev):

   -78.1853 -78.1843 -74.8437 -74.8426 -49.5291 -49.5278 -49.5232 -49.5225
   -49.5197 -49.5190 -46.2514 -46.2498 -46.2287 -46.2280 -46.2245 -46.2239
   -18.5798 -18.4741 -17.7998 -17.6292 -17.5011 -17.4967 -17.4385 -17.4355
   -17.3447 -17.3422 -17.3354 -17.3318 -10.4351 -10.1850  -9.9478  -9.6757
    -9.6733  -9.5340  -9.5323  -9.2976  -8.9414  -8.9042  -8.7966  -8.7281
    -8.7280  -8.6809  -8.6192  -8.6119  -8.5154  -8.2206  -8.1483  -7.8421
    -7.8190  -7.6525  -7.6161  -7.4814  -7.4516  -7.3801  -7.2638  -7.2514
    -7.1091  -6.9609  -6.9008  -6.8556  -6.7213  -6.3474  -6.3385  -6.2323
    -6.2292  -6.1033  -5.8377  -5.8363  -5.6499  -5.6487  -4.4949  -4.4840
    -4.0110  -4.0095  -2.7326  -2.7325  -2.5953  -2.5851  -2.4953  -2.4774
    -2.1897  -2.1885  -2.0883  -2.0858  -0.6795  -0.4162  -0.0728   0.1023
     0.1698   0.2585   0.8195   0.8232   1.0121   1.0355   1.4155   1.5840
     1.6357   1.7122   1.8188   1.9965

          k = 0.0000 0.1925 0.0000 (109722 PWs)   bands (ev):

   -78.1854 -78.1844 -74.8437 -74.8426 -49.5291 -49.5278 -49.5231 -49.5223
   -49.5199 -49.5189 -46.2513 -46.2499 -46.2288 -46.2277 -46.2247 -46.2239
   -18.5215 -18.4165 -17.7650 -17.6062 -17.5785 -17.5331 -17.5063 -17.4549
   -17.3627 -17.3584 -17.3377 -17.3335 -10.4114 -10.1287  -9.9266  -9.7606
    -9.7173  -9.4565  -9.3931  -9.2913  -9.0171  -8.9520  -8.7937  -8.7708
    -8.7234  -8.6858  -8.6520  -8.3484  -8.2587  -8.1170  -8.0406  -7.9220
    -7.7781  -7.7668  -7.6336  -7.5791  -7.4275  -7.2968  -7.2778  -7.1864
    -7.0028  -6.9701  -6.9242  -6.7799  -6.6838  -6.4377  -6.3747  -6.2979
    -6.2463  -6.1835  -6.0658  -5.9342  -5.8315  -5.6827  -4.4852  -4.4538
    -4.2020  -4.0582  -2.7231  -2.6867  -2.6261  -2.5858  -2.4826  -2.3835
    -2.2242  -2.1807  -2.1759  -2.1470  -0.6395  -0.1065   0.0949   0.3575
     0.4630   0.5507   0.6646   0.6900   0.9619   1.1710   1.3639   1.4626
     1.7130   1.7540   1.8613   1.9655

          k = 0.0000 0.3849 0.0000 (109616 PWs)   bands (ev):

   -78.1856 -78.1846 -74.8436 -74.8425 -49.5291 -49.5279 -49.5231 -49.5218
   -49.5204 -49.5187 -46.2512 -46.2500 -46.2291 -46.2272 -46.2252 -46.2239
   -18.3624 -18.2612 -17.7804 -17.6996 -17.6736 -17.5794 -17.5376 -17.4841
   -17.4179 -17.3930 -17.3670 -17.3495 -10.4436  -9.9666  -9.8442  -9.7399
    -9.6026  -9.3732  -9.3055  -9.2408  -9.1370  -8.9299  -8.8648  -8.7578
    -8.6667  -8.6199  -8.4521  -8.3382  -8.1365  -8.0729  -8.0451  -7.9180
    -7.7570  -7.7299  -7.6665  -7.4138  -7.3426  -7.3350  -7.1878  -7.1588
    -7.0865  -7.0367  -6.9517  -6.7748  -6.6842  -6.6132  -6.4639  -6.3686
    -6.2966  -6.2733  -6.1826  -6.0961  -5.9026  -5.7552  -4.4582  -4.3956
    -4.3253  -4.2131  -2.7537  -2.6760  -2.6440  -2.6043  -2.5237  -2.3348
    -2.3028  -2.1974  -2.1600  -2.0983  -0.8414  -0.1239   0.1430   0.5473
     0.6006   0.7807   0.8415   1.0474   1.0572   1.1480   1.2428   1.3024
     1.4485   1.5372   1.6107   1.7532

          k = 0.0000-0.5774 0.0000 (109602 PWs)   bands (ev):

   -78.1857 -78.1847 -74.8435 -74.8425 -49.5290 -49.5280 -49.5231 -49.5213
   -49.5209 -49.5186 -46.2512 -46.2500 -46.2291 -46.2268 -46.2256 -46.2239
   -18.2135 -18.1184 -17.9508 -17.8549 -17.6015 -17.5889 -17.5176 -17.4719
   -17.4623 -17.4372 -17.3953 -17.3591 -10.4904  -9.8190  -9.8136  -9.7265
    -9.3950  -9.3344  -9.2804  -9.1672  -9.1626  -8.9814  -8.8739  -8.6799
    -8.5898  -8.5604  -8.5369  -8.5124  -8.2372  -8.1215  -8.0704  -7.8276
    -7.7674  -7.6713  -7.4813  -7.4482  -7.3834  -7.3585  -7.3378  -7.2157
    -7.1873  -6.9112  -6.8661  -6.7446  -6.6327  -6.5526  -6.5262  -6.4873
    -6.3472  -6.2763  -6.2386  -6.0415  -5.9297  -5.7379  -4.4163  -4.4037
    -4.3446  -4.2362  -2.8496  -2.6708  -2.6600  -2.6371  -2.4889  -2.4043
    -2.3234  -2.1179  -2.1133  -2.0690  -1.0928  -0.3223   0.1729   0.1840
     0.5592   0.7646   0.9111   0.9458   1.0684   1.2486   1.2962   1.4221
     1.5024   1.5252   1.6142   1.6237

          k = 0.1667 0.2887 0.0000 (109615 PWs)   bands (ev):

   -78.1855 -78.1845 -74.8436 -74.8425 -49.5291 -49.5279 -49.5232 -49.5219
   -49.5202 -49.5188 -46.2513 -46.2499 -46.2289 -46.2276 -46.2249 -46.2239
   -18.4111 -18.3092 -17.7061 -17.7020 -17.6381 -17.5808 -17.5579 -17.4943
   -17.3954 -17.3825 -17.3565 -17.3396 -10.3488 -10.0832  -9.8864  -9.8176
    -9.5342  -9.4436  -9.2974  -9.2773  -9.0726  -8.9780  -8.9146  -8.7937
    -8.6646  -8.6020  -8.4673  -8.2829  -8.1092  -8.0658  -8.0179  -7.9015
    -7.8492  -7.7958  -7.6984  -7.4702  -7.3583  -7.2686  -7.2049  -7.1626
    -7.0845  -6.9808  -6.8625  -6.8399  -6.6762  -6.5256  -6.4539  -6.4045
    -6.2798  -6.2088  -6.1776  -6.0822  -5.9116  -5.7424  -4.4681  -4.4014
    -4.3811  -4.0893  -2.7083  -2.6731  -2.6113  -2.6050  -2.5739  -2.3024
    -2.2625  -2.2582  -2.1433  -2.1202  -0.6633  -0.2340   0.1554   0.3957
     0.5332   0.6852   0.8158   0.9120   1.1343   1.1650   1.2753   1.3951
     1.5451   1.6183   1.6997   1.7200

          k = 0.1667 0.4811 0.0000 (109606 PWs)   bands (ev):

   -78.1857 -78.1847 -74.8435 -74.8425 -49.5290 -49.5280 -49.5231 -49.5214
   -49.5208 -49.5187 -46.2512 -46.2500 -46.2291 -46.2269 -46.2256 -46.2239
   -18.2289 -18.1326 -17.9000 -17.8232 -17.6391 -17.6032 -17.5387 -17.4850
   -17.4576 -17.4206 -17.3893 -17.3553 -10.3280  -9.9386  -9.7881  -9.7054
    -9.4378  -9.3916  -9.2852  -9.2427  -9.0978  -9.0523  -8.8539  -8.7588
    -8.6763  -8.5497  -8.4397  -8.3782  -8.2686  -8.1598  -7.9923  -7.9117
    -7.7814  -7.6730  -7.6384  -7.5201  -7.4360  -7.3789  -7.1633  -7.1529
    -7.0120  -6.9492  -6.7962  -6.7128  -6.6674  -6.6037  -6.5356  -6.4883
    -6.3184  -6.2364  -6.1987  -6.1137  -5.8915  -5.7752  -4.4402  -4.3855
    -4.3245  -4.1405  -2.7714  -2.6907  -2.6362  -2.6162  -2.5314  -2.4136
    -2.3627  -2.1458  -2.0660  -2.0499  -0.9228  -0.3904  -0.1999   0.2410
     0.3613   0.6006   0.6775   0.8026   0.9701   1.0738   1.1300   1.2426
     1.2897   1.4061   1.5574   1.6639

          k = 0.3333 0.5774 0.0000 (109542 PWs)   bands (ev):

   -78.1857 -78.1847 -74.8435 -74.8425 -49.5290 -49.5280 -49.5231 -49.5215
   -49.5205 -49.5187 -46.2511 -46.2501 -46.2290 -46.2268 -46.2259 -46.2238
   -18.0607 -18.0441 -17.9736 -17.9655 -17.6920 -17.5839 -17.5246 -17.5078
   -17.4521 -17.4247 -17.4166 -17.3635  -9.9931  -9.9690  -9.9650  -9.5073
    -9.4753  -9.3891  -9.3631  -9.2105  -9.1945  -8.9571  -8.8729  -8.8217
    -8.7524  -8.6974  -8.2885  -8.2442  -8.2407  -8.1249  -8.1026  -8.0829
    -7.9227  -7.6727  -7.6710  -7.5865  -7.5672  -7.1284  -7.0743  -7.0463
    -6.9047  -6.8641  -6.8336  -6.7647  -6.6380  -6.6146  -6.5936  -6.5086
    -6.3130  -6.2223  -6.1766  -6.1222  -5.8593  -5.8003  -4.4513  -4.3171
    -4.3140  -4.0501  -2.7128  -2.7123  -2.6519  -2.5833  -2.5437  -2.5420
    -2.3562  -2.0930  -2.0197  -2.0185  -0.8213  -0.7891  -0.2039  -0.1607
     0.2615   0.3779   0.4136   0.6035   0.7319   0.7796   1.0039   1.0894
     1.1645   1.3030   1.4641   1.4762

          k =-0.1667 0.0962 0.0000 (109722 PWs)   bands (ev):

   -78.1854 -78.1844 -74.8437 -74.8426 -49.5291 -49.5278 -49.5231 -49.5225
   -49.5197 -49.5191 -46.2513 -46.2499 -46.2287 -46.2279 -46.2248 -46.2238
   -18.5210 -18.4165 -17.7650 -17.6068 -17.5825 -17.5280 -17.5099 -17.4526
   -17.3638 -17.3581 -17.3358 -17.3343 -10.4132 -10.1282  -9.9177  -9.7612
    -9.7237  -9.4519  -9.3980  -9.2948  -9.0122  -8.9375  -8.8330  -8.7751
    -8.7143  -8.6674  -8.6423  -8.3555  -8.2490  -8.1647  -7.9997  -7.9171
    -7.8026  -7.7421  -7.6612  -7.5602  -7.4250  -7.3254  -7.2596  -7.1952
    -7.0340  -6.9666  -6.8329  -6.8042  -6.6878  -6.4455  -6.4103  -6.2894
    -6.2242  -6.2025  -6.0576  -5.9316  -5.8284  -5.6859  -4.4809  -4.4574
    -4.2013  -4.0586  -2.7231  -2.6871  -2.6225  -2.5907  -2.4802  -2.3863
    -2.2231  -2.1805  -2.1747  -2.1471  -0.6529  -0.0940   0.1262   0.3564
     0.4336   0.5688   0.6343   0.6597   1.0208   1.1960   1.2748   1.4900
     1.6773   1.7843   1.9067   1.9755

          k =-0.3333 0.1925 0.0000 (109616 PWs)   bands (ev):

   -78.1856 -78.1846 -74.8436 -74.8425 -49.5291 -49.5279 -49.5230 -49.5223
   -49.5197 -49.5191 -46.2512 -46.2500 -46.2288 -46.2276 -46.2253 -46.2237
   -18.3592 -18.2622 -17.7872 -17.7032 -17.6681 -17.5784 -17.5398 -17.4807
   -17.4220 -17.3890 -17.3671 -17.3486 -10.4448  -9.9635  -9.8455  -9.7366
    -9.5958  -9.3778  -9.3051  -9.2523  -9.1269  -8.9456  -8.8596  -8.7645
    -8.6736  -8.5920  -8.4577  -8.3231  -8.1505  -8.0697  -8.0628  -7.9170
    -7.7512  -7.7388  -7.6501  -7.4095  -7.3813  -7.2992  -7.2049  -7.1855
    -7.0936  -7.0192  -6.9281  -6.7439  -6.6805  -6.6225  -6.4950  -6.3956
    -6.2880  -6.2462  -6.1744  -6.0544  -5.9313  -5.7812  -4.4593  -4.3862
    -4.3249  -4.2126  -2.7540  -2.6755  -2.6458  -2.6034  -2.5221  -2.3327
    -2.3000  -2.1999  -2.1615  -2.0975  -0.8698  -0.0844   0.1178   0.4827
     0.6354   0.7991   0.8900   1.0400   1.0818   1.1603   1.2013   1.3228
     1.4614   1.4906   1.6325   1.7229

          k = 0.5000-0.2887 0.0000 (109602 PWs)   bands (ev):

   -78.1857 -78.1847 -74.8435 -74.8425 -49.5290 -49.5279 -49.5230 -49.5221
   -49.5197 -49.5191 -46.2512 -46.2500 -46.2288 -46.2273 -46.2256 -46.2237
   -18.1950 -18.1354 -17.9511 -17.8614 -17.6007 -17.5811 -17.5168 -17.4960
   -17.4508 -17.4242 -17.4018 -17.3573 -10.4907  -9.8300  -9.8046  -9.7149
    -9.4160  -9.2901  -9.2835  -9.1995  -9.1422  -9.0223  -8.8779  -8.6778
    -8.5619  -8.5544  -8.5260  -8.4819  -8.2963  -8.1491  -8.0310  -7.8451
    -7.7663  -7.6683  -7.4589  -7.4281  -7.3885  -7.3484  -7.3351  -7.2917
    -7.1845  -6.9258  -6.7981  -6.7529  -6.6256  -6.5890  -6.5263  -6.4886
    -6.3653  -6.2593  -6.1836  -6.0104  -5.9038  -5.8418  -4.4217  -4.3912
    -4.3415  -4.2296  -2.8502  -2.6699  -2.6603  -2.6374  -2.4859  -2.4016
    -2.3228  -2.1200  -2.1124  -2.0692  -1.1228  -0.3147   0.1565   0.1836
     0.5697   0.8036   0.9039   0.9757   1.0146   1.2572   1.3558   1.4051
     1.4781   1.4984   1.6171   1.6653

          k = 0.3333 0.0000 0.0000 (109615 PWs)   bands (ev):

   -78.1855 -78.1845 -74.8436 -74.8425 -49.5291 -49.5279 -49.5231 -49.5222
   -49.5198 -49.5191 -46.2513 -46.2499 -46.2285 -46.2280 -46.2250 -46.2238
   -18.4097 -18.3092 -17.7144 -17.7017 -17.6300 -17.5882 -17.5562 -17.4891
   -17.4010 -17.3807 -17.3521 -17.3411 -10.3528 -10.0822  -9.8664  -9.8282
    -9.5357  -9.4448  -9.2954  -9.2917  -9.0529  -8.9814  -8.8977  -8.8225
    -8.6643  -8.6204  -8.4044  -8.3147  -8.1401  -8.0418  -8.0296  -7.8931
    -7.8704  -7.7750  -7.7032  -7.4765  -7.3555  -7.2925  -7.1700  -7.1450
    -7.0959  -6.9970  -6.8481  -6.8251  -6.6764  -6.5375  -6.4646  -6.4234
    -6.2791  -6.1755  -6.1728  -6.0797  -5.9301  -5.7465  -4.4688  -4.4031
    -4.3733  -4.0896  -2.7095  -2.6738  -2.6107  -2.6075  -2.5737  -2.2952
    -2.2627  -2.2597  -2.1439  -2.1198  -0.6957  -0.1731   0.1089   0.3865
     0.5020   0.7339   0.8595   0.8984   1.0542   1.1885   1.2475   1.4357
     1.5834   1.6268   1.6693   1.8137

          k =-0.3333 0.3849 0.0000 (109606 PWs)   bands (ev):

   -78.1857 -78.1847 -74.8435 -74.8425 -49.5290 -49.5279 -49.5230 -49.5220
   -49.5201 -49.5189 -46.2512 -46.2500 -46.2289 -46.2270 -46.2257 -46.2237
   -18.2226 -18.1372 -17.9037 -17.8241 -17.6392 -17.6003 -17.5344 -17.4968
   -17.4544 -17.4120 -17.3951 -17.3540 -10.3287  -9.9339  -9.7885  -9.7134
    -9.4157  -9.3885  -9.2836  -9.2566  -9.1003  -9.0714  -8.8523  -8.7589
    -8.6756  -8.5239  -8.4098  -8.4048  -8.2882  -8.1576  -7.9998  -7.9122
    -7.7865  -7.6514  -7.6382  -7.5292  -7.4272  -7.3778  -7.2016  -7.1523
    -7.0210  -6.9177  -6.7706  -6.7381  -6.6761  -6.5873  -6.5198  -6.4944
    -6.3778  -6.1814  -6.1680  -6.1206  -5.8765  -5.8284  -4.4396  -4.3822
    -4.3221  -4.1386  -2.7715  -2.6904  -2.6360  -2.6157  -2.5300  -2.4138
    -2.3618  -2.1464  -2.0648  -2.0513  -0.9473  -0.3716  -0.2018   0.2423
     0.3358   0.6182   0.7307   0.7985   0.9444   1.0493   1.1102   1.2666
     1.2837   1.4509   1.5012   1.6122

          k = 0.5000 0.0962 0.0000 (109606 PWs)   bands (ev):

   -78.1857 -78.1847 -74.8435 -74.8425 -49.5290 -49.5279 -49.5232 -49.5217
   -49.5202 -49.5189 -46.2512 -46.2500 -46.2287 -46.2276 -46.2253 -46.2238
   -18.2209 -18.1363 -17.9116 -17.8190 -17.6404 -17.6016 -17.5321 -17.4907
   -17.4637 -17.4103 -17.3923 -17.3547 -10.3297  -9.9407  -9.7828  -9.6986
    -9.4401  -9.3877  -9.2859  -9.2422  -9.0990  -9.0617  -8.8665  -8.7668
    -8.6511  -8.5380  -8.4347  -8.4015  -8.2564  -8.1620  -8.0040  -7.9197
    -7.7835  -7.6608  -7.6410  -7.5156  -7.4185  -7.3913  -7.2171  -7.1173
    -7.0462  -6.8982  -6.7673  -6.7145  -6.6921  -6.6114  -6.5569  -6.4738
    -6.3441  -6.2166  -6.1388  -6.0972  -5.9201  -5.8174  -4.4344  -4.3824
    -4.3235  -4.1376  -2.7724  -2.6902  -2.6382  -2.6151  -2.5304  -2.4124
    -2.3589  -2.1448  -2.0663  -2.0511  -0.9546  -0.3674  -0.2015   0.1876
     0.3550   0.6407   0.7482   0.8388   0.9247   1.0268   1.0706   1.2174
     1.3834   1.4808   1.5618   1.5910

     highest occupied, lowest unoccupied level (ev):    -5.6487   -4.4949

!    total energy              =   -5539.74198059 Ry
     total all-electron energy =     -5539.741981 Ry
     estimated scf accuracy    <          5.0E-12 Ry

     The total energy is the sum of the following terms:
     one-electron contribution =   -9565.49100256 Ry
     hartree contribution      =    4757.10088161 Ry
     xc contribution           =    -165.76221297 Ry
     ewald contribution        =    3977.84444146 Ry
     Hubbard energy            =       0.48459168 Ry
     one-center paw contrib.   =   -4543.91867981 Ry

     total magnetization       =     0.00 Bohr mag/cell
     absolute magnetization    =    16.50 Bohr mag/cell

     convergence has been achieved in  22 iterations

     negative rho (up, down):  3.128E-02 3.129E-02

     Forces acting on atoms (cartesian axes, Ry/au):

     atom    1 type  1   force =    -0.00000676   -0.00039176   -0.00026958
     atom    2 type  1   force =    -0.00000676    0.00039176   -0.00026958
     atom    3 type  2   force =     0.01080822    0.00000000   -0.01576010
     atom    4 type  2   force =    -0.00586953   -0.00984298   -0.01422689
     atom    5 type  2   force =    -0.00586953    0.00984298   -0.01422689
     atom    6 type  2   force =    -0.01115194    0.00000000    0.01717630
     atom    7 type  2   force =     0.00552428    0.00983070    0.01722012
     atom    8 type  2   force =     0.00552428   -0.00983070    0.01722012
     atom    9 type  3   force =     0.00000731   -0.00039291    0.00026920
     atom   10 type  3   force =     0.00000731    0.00039291    0.00026920
     atom   11 type  2   force =     0.01115305    0.00000000   -0.01717609
     atom   12 type  2   force =    -0.00552498   -0.00982894   -0.01721976
     atom   13 type  2   force =    -0.00552498    0.00982894   -0.01721976
     atom   14 type  2   force =    -0.01080918    0.00000000    0.01576341
     atom   15 type  2   force =     0.00586961    0.00984335    0.01422515
     atom   16 type  2   force =     0.00586961   -0.00984335    0.01422515

     Total force =     0.067822     Total SCF correction =     0.000011


     Computing stress (Cartesian axis) and pressure


     negative rho (up, down):  3.128E-02 3.129E-02
          total   stress  (Ry/bohr**3)                   (kbar)     P=       16.31
   0.00011057   0.00000000  -0.00000112           16.26        0.00       -0.16
   0.00000000   0.00011013   0.00000000            0.00       16.20        0.00
  -0.00000112   0.00000000   0.00011196           -0.16        0.00       16.47


     Writing all to output data dir ./ht_afm_qe/ht_afm_qe.save/ :
     XML data file, charge density, pseudopotentials, collected wavefunctions

     init_run     :     29.25s CPU     29.89s WALL (       1 calls)
     electrons    :   1220.48s CPU   1262.47s WALL (       1 calls)
     forces       :     21.37s CPU     21.68s WALL (       1 calls)
     stress       :    136.09s CPU    137.86s WALL (       1 calls)

     Called by init_run:
     wfcinit      :     26.31s CPU     26.75s WALL (       1 calls)
     potinit      :      1.12s CPU      1.16s WALL (       1 calls)
     hinit0       :      0.98s CPU      0.99s WALL (       1 calls)

     Called by electrons:
     c_bands      :    997.31s CPU   1030.61s WALL (      22 calls)
     sum_band     :    185.40s CPU    191.43s WALL (      22 calls)
     v_of_rho     :      5.03s CPU      5.10s WALL (      23 calls)
     newd         :     11.75s CPU     13.88s WALL (      23 calls)
     PAW_pot      :     19.22s CPU     19.35s WALL (      23 calls)
     mix_rho      :      2.51s CPU      2.55s WALL (      22 calls)

     Called by c_bands:
     init_us_2    :     14.19s CPU     14.36s WALL (    1300 calls)
     init_us_2:cp :     14.18s CPU     14.36s WALL (    1300 calls)
     cegterg      :    965.67s CPU    998.52s WALL (     572 calls)

     Called by *egterg:
     cdiaghg      :     99.07s CPU     99.73s WALL (    2606 calls)
     h_psi        :    640.39s CPU    656.35s WALL (    2632 calls)
     s_psi        :     40.20s CPU     40.62s WALL (    2710 calls)
     g_psi        :      5.66s CPU      5.74s WALL (    2034 calls)

     Called by h_psi:
     h_psi:calbec :     43.60s CPU     44.25s WALL (    2632 calls)
     vloc_psi     :    503.33s CPU    510.66s WALL (    2632 calls)
     add_vuspsi   :     36.81s CPU     37.21s WALL (    2632 calls)
     vhpsi        :     47.30s CPU     47.85s WALL (    2632 calls)

     General routines
     calbec       :    120.51s CPU    122.20s WALL (   26870 calls)
     fft          :      3.71s CPU      3.76s WALL (     613 calls)
     ffts         :      0.27s CPU      0.30s WALL (      90 calls)
     fftw         :    444.00s CPU    450.59s WALL (  366386 calls)
     interpolate  :      0.49s CPU      0.50s WALL (      46 calls)

     Parallel routines

     Hubbard U routines
     new_ns       :      8.84s CPU      9.02s WALL (      22 calls)
     vhpsi        :     47.30s CPU     47.85s WALL (    2632 calls)
     force_hub    :     15.83s CPU     15.99s WALL (       1 calls)
                                        0.00s GPU  (       1 calls)
     stres_hub    :     49.34s CPU     49.91s WALL (       1 calls)
                                        0.00s GPU  (       1 calls)

     PWSCF        :  23m31.16s CPU  24m58.25s WALL


   This run was terminated on:  17:14:40  15Oct2025            

=------------------------------------------------------------------------------=
   JOB DONE.
=------------------------------------------------------------------------------=
