
     Program PWSCF v.7.3 starts on 15Oct2025 at 16: 9:36 

     This program is part of the open-source Quantum ESPRESSO suite
     for quantum simulation of materials; please cite
         "P. Giannozzi et al., J. Phys.:Condens. Matter 21 395502 (2009);
         "P. Giannozzi et al., J. Phys.:Condens. Matter 29 465901 (2017);
         "P. Giannozzi et al., J. Chem. Phys. 152 154105 (2020);
          URL http://www.quantum-espresso.org", 
     in publications or presentations arising from this work. More details at
     http://www.quantum-espresso.org/quote

     Parallel version (MPI), running on    24 processors

     MPI processes distributed on     1 nodes
     46388 MiB available memory on the printing compute node when the environment starts

     Reading input from lt_fm_afm_qe.scf.in
Warning: card &CELL ignored
Warning: card / ignored

     Current dimensions of program PWSCF are:
     Max number of different atomic species (ntypx) = 10
     Max number of k-points (npk) =  40000
     Max angular momentum in pseudopotentials (lmaxx) =  4
read_pp_mesh; mismatch in mesh size, discarding the one in header
read_pp_mesh; mismatch in mesh size, discarding the one in header
read_pp_mesh; mismatch in mesh size, discarding the one in header
     file Cr.GGA-PBE-paw.UPF: wavefunction(s)  3S 4S 3P 4P 3D 4D renormalized
     file I.GGA-PBE-paw.UPF: wavefunction(s)  6S 6P renormalized
     file Cr.GGA-PBE-paw.UPF: wavefunction(s)  3S 4S 3P 4P 3D 4D renormalized

     IMPORTANT: XC functional enforced from input :
     Exchange-correlation= PBE
                           (   1   4   3   4   0   0   0)
     Any further DFT definition will be discarded
     Please, verify this is what you really want


     R & G space division:  proc/nbgrp/npool/nimage =      24
     Subspace diagonalization in iterative solution of the eigenvalue problem:
     a serial algorithm will be used


     Parallelization info
     --------------------
     sticks:   dense  smooth     PW     G-vecs:    dense   smooth      PW
     Min         179     174     46                38065    36532    5046
     Max         180     175     47                38082    36557    5059
     Sum        4303    4189   1123               913669   876961  121297

     Using Slab Decomposition



     bravais-lattice index     =            0
     lattice parameter (alat)  =      12.9956  a.u.
     unit-cell volume          =    7602.9282 (a.u.)^3
     number of atoms/cell      =           16
     number of atomic types    =            3
     number of electrons       =       140.00 (up:  70.00, down:  70.00)
     number of Kohn-Sham states=          100
     kinetic-energy cutoff     =      90.0000  Ry
     charge density cutoff     =     370.0000  Ry
     scf convergence threshold =      1.0E-11
     mixing beta               =       0.5000
     number of iterations used =            8  plain     mixing
     Exchange-correlation= PBE
                           (   1   4   3   4   0   0   0)
     Hubbard projectors: atomic
     Hubbard parameters of DFT+U (Dudarev formulation) in eV:
     U(Cr-3d) =  2.7300
     U(Cr1-3d) =  2.7300

     Internal variables: lda_plus_u =T, lda_plus_u_kind = 0

     celldm(1)=  12.995613  celldm(2)=   0.000000  celldm(3)=   0.000000
     celldm(4)=   0.000000  celldm(5)=   0.000000  celldm(6)=   0.000000

     crystal axes: (cart. coord. in units of alat)
               a(1) = (   1.000000  -0.000000   0.000000 )  
               a(2) = (  -0.500000   0.866025   0.000000 )  
               a(3) = (  -0.000000   0.000000   4.000000 )  

     reciprocal axes: (cart. coord. in units 2 pi/alat)
               b(1) = (  1.000000  0.577350  0.000000 )  
               b(2) = (  0.000000  1.154701  0.000000 )  
               b(3) = ( -0.000000 -0.000000  0.250000 )  


     PseudoPot. # 1 for Cr read from file:
     ../../Cr.GGA-PBE-paw.UPF
     MD5 check sum: 0e9dc003703e132720ff5dfacba66d28
     Pseudo is Projector augmented-wave + core cor, Zval = 14.0
     Generated using ATOMPAW code
     Shape of augmentation charge: SINC**2
     Using radial grid of 2342 points,  6 beta functions with: 
                l(1) =   0
                l(2) =   0
                l(3) =   1
                l(4) =   1
                l(5) =   2
                l(6) =   2
     Q(r) pseudized with 0 coefficients 


     PseudoPot. # 2 for I  read from file:
     ../../I.GGA-PBE-paw.UPF
     MD5 check sum: 736bb4145856fa7ed29d0984862794a4
     Pseudo is Projector augmented-wave + core cor, Zval =  7.0
     Generated using ATOMPAW code
     Shape of augmentation charge: SINC**2
     Using radial grid of 2342 points,  4 beta functions with: 
                l(1) =   0
                l(2) =   0
                l(3) =   1
                l(4) =   1
     Q(r) pseudized with 0 coefficients 


     PseudoPot. # 3 for Cr read from file:
     ../../Cr.GGA-PBE-paw.UPF
     MD5 check sum: 0e9dc003703e132720ff5dfacba66d28
     Pseudo is Projector augmented-wave + core cor, Zval = 14.0
     Generated using ATOMPAW code
     Shape of augmentation charge: SINC**2
     Using radial grid of 2342 points,  6 beta functions with: 
                l(1) =   0
                l(2) =   0
                l(3) =   1
                l(4) =   1
                l(5) =   2
                l(6) =   2
     Q(r) pseudized with 0 coefficients 


     atomic species   valence    mass     pseudopotential
     Cr               14.00    51.99610     Cr( 1.00)
     I                 7.00   126.90447     I ( 1.00)
     Cr1              14.00    51.99610     Cr( 1.00)

     Starting magnetic structure 
     atomic species   magnetization
     Cr              0.214
     I               0.000
     Cr1            -0.214

     No symmetry found



   Cartesian axes

     site n.     atom                  positions (alat units)
         1        Cr     tau(   1) = (   0.3333302   0.5773476   2.4771345  )
         2        Cr     tau(   2) = (  -0.1666653   0.8660272   2.4783670  )
         3        I      tau(   3) = (   0.4785934   0.2878151   2.2541471  )
         4        I      tau(   4) = (   0.0099554   0.5963201   2.2541472  )
         5        I      tau(   5) = (  -0.4885529   0.8479194   2.2541494  )
         6        I      tau(   6) = (   0.1887678   0.2890994   2.7012541  )
         7        I      tau(   7) = (   0.1559814   0.8466725   2.7012541  )
         8        I      tau(   8) = (  -0.3447532   0.5962818   2.7012518  )
         9        Cr1    tau(   9) = (   0.8333317   0.2886782   1.5216322  )
        10        Cr1    tau(  10) = (   0.3333282   0.5773496   1.5228650  )
        11        I      tau(  11) = (   0.9778967  -0.0004210   1.2987495  )
        12        I      tau(  12) = (   0.5106847   0.3080297   1.2987460  )
        13        I      tau(  13) = (   0.0114148   0.5584203   1.2987445  )
        14        I      tau(  14) = (   0.6880724   0.0008651   1.7458527  )
        15        I      tau(  15) = (   0.6567094   0.5583828   1.7458520  )
        16        I      tau(  16) = (   0.1552143   0.3067811   1.7458532  )

     number of k points=    20
                       cart. coord. in units 2pi/alat
        k(    1) = (   0.0000000   0.0000000   0.0000000), wk =   0.0277778
        k(    2) = (   0.0000000   0.1924501   0.0000000), wk =   0.0555556
        k(    3) = (   0.0000000   0.3849002   0.0000000), wk =   0.0555556
        k(    4) = (   0.0000000  -0.5773503   0.0000000), wk =   0.0277778
        k(    5) = (   0.1666667   0.2886751   0.0000000), wk =   0.0555556
        k(    6) = (   0.1666667   0.4811252   0.0000000), wk =   0.0555556
        k(    7) = (   0.3333333   0.5773503   0.0000000), wk =   0.0555556
        k(    8) = (  -0.1666667   0.0962250   0.0000000), wk =   0.0555556
        k(    9) = (   0.1666667   0.0962250   0.0000000), wk =   0.0555556
        k(   10) = (  -0.3333333   0.1924501   0.0000000), wk =   0.0555556
        k(   11) = (   0.3333333   0.1924501   0.0000000), wk =   0.0555556
        k(   12) = (   0.5000000  -0.2886751   0.0000000), wk =   0.0277778
        k(   13) = (  -0.5000000  -0.2886751   0.0000000), wk =   0.0277778
        k(   14) = (  -0.1666667   0.2886751   0.0000000), wk =   0.0555556
        k(   15) = (   0.3333333   0.0000000   0.0000000), wk =   0.0555556
        k(   16) = (  -0.1666667   0.4811252   0.0000000), wk =   0.0555556
        k(   17) = (  -0.3333333   0.3849002   0.0000000), wk =   0.0555556
        k(   18) = (   0.5000000   0.0962250   0.0000000), wk =   0.0555556
        k(   19) = (  -0.3333333  -0.3849002   0.0000000), wk =   0.0555556
        k(   20) = (   0.5000000  -0.0962250   0.0000000), wk =   0.0555556

     Dense  grid:   913669 G-vectors     FFT dimensions: (  80,  80, 320)

     Smooth grid:   876961 G-vectors     FFT dimensions: (  80,  80, 320)

     Estimated max dynamical RAM per process >     595.33 MB

     Estimated total dynamical RAM >      13.95 GB
 ----2D----2D----2D----2D----2D----2D----2D----2D----2D----2D----2D----2D
  The code is running with the 2D cutoff
  Please refer to:
  Sohier, T., Calandra, M., & Mauri, F. (2017), 
  Density functional perturbation theory for gated two-dimensional heterostructures:
  Theoretical developments and application to flexural phonons in graphene.
  Physical Review B, 96(7), 75448. https://doi.org/10.1103/PhysRevB.96.075448
 ----2D----2D----2D----2D----2D----2D----2D----2D----2D----2D----2D----2D
     Generating pointlists ...
     new r_m :   0.1620 (alat units)  2.1047 (a.u.) for type    1
     new r_m :   0.1620 (alat units)  2.1047 (a.u.) for type    2
     new r_m :   0.1620 (alat units)  2.1047 (a.u.) for type    3
     Cannot read rho : file not found

     Initial potential from superposition of free atoms

     starting charge     139.9932, renormalised to     140.0000

     negative rho (up, down):  2.631E-02 2.631E-02

     STARTING HUBBARD OCCUPATIONS:

     =================== HUBBARD OCCUPATIONS ===================
     ------------------------ ATOM    1 ------------------------
     Tr[ns(  1)] (up, down, total) =   5.00000  0.00000  5.00000
     Atomic magnetic moment for atom   1 =   5.00000
     SPIN  1
     eigenvalues:
       1.000  1.000  1.000  1.000  1.000
     eigenvectors (columns):
       1.000  0.000  0.000  0.000  0.000
       0.000  1.000  0.000  0.000  0.000
       0.000  0.000  1.000  0.000  0.000
       0.000  0.000  0.000  1.000  0.000
       0.000  0.000  0.000  0.000  1.000
     occupation matrix ns (before diag.):
       1.000  0.000  0.000  0.000  0.000
       0.000  1.000  0.000  0.000  0.000
       0.000  0.000  1.000  0.000  0.000
       0.000  0.000  0.000  1.000  0.000
       0.000  0.000  0.000  0.000  1.000
     SPIN  2
     eigenvalues:
       0.000  0.000  0.000  0.000  0.000
     eigenvectors (columns):
       1.000  0.000  0.000  0.000  0.000
       0.000  1.000  0.000  0.000  0.000
       0.000  0.000  1.000  0.000  0.000
       0.000  0.000  0.000  1.000  0.000
       0.000  0.000  0.000  0.000  1.000
     occupation matrix ns (before diag.):
       0.000  0.000  0.000  0.000  0.000
       0.000  0.000  0.000  0.000  0.000
       0.000  0.000  0.000  0.000  0.000
       0.000  0.000  0.000  0.000  0.000
       0.000  0.000  0.000  0.000  0.000
     ------------------------ ATOM    2 ------------------------
     Tr[ns(  2)] (up, down, total) =   5.00000  0.00000  5.00000
     Atomic magnetic moment for atom   2 =   5.00000
     SPIN  1
     eigenvalues:
       1.000  1.000  1.000  1.000  1.000
     eigenvectors (columns):
       1.000  0.000  0.000  0.000  0.000
       0.000  1.000  0.000  0.000  0.000
       0.000  0.000  1.000  0.000  0.000
       0.000  0.000  0.000  1.000  0.000
       0.000  0.000  0.000  0.000  1.000
     occupation matrix ns (before diag.):
       1.000  0.000  0.000  0.000  0.000
       0.000  1.000  0.000  0.000  0.000
       0.000  0.000  1.000  0.000  0.000
       0.000  0.000  0.000  1.000  0.000
       0.000  0.000  0.000  0.000  1.000
     SPIN  2
     eigenvalues:
       0.000  0.000  0.000  0.000  0.000
     eigenvectors (columns):
       1.000  0.000  0.000  0.000  0.000
       0.000  1.000  0.000  0.000  0.000
       0.000  0.000  1.000  0.000  0.000
       0.000  0.000  0.000  1.000  0.000
       0.000  0.000  0.000  0.000  1.000
     occupation matrix ns (before diag.):
       0.000  0.000  0.000  0.000  0.000
       0.000  0.000  0.000  0.000  0.000
       0.000  0.000  0.000  0.000  0.000
       0.000  0.000  0.000  0.000  0.000
       0.000  0.000  0.000  0.000  0.000
     ------------------------ ATOM    9 ------------------------
     Tr[ns(  9)] (up, down, total) =   0.00000  5.00000  5.00000
     Atomic magnetic moment for atom   9 =  -5.00000
     SPIN  1
     eigenvalues:
       0.000  0.000  0.000  0.000  0.000
     eigenvectors (columns):
       1.000  0.000  0.000  0.000  0.000
       0.000  1.000  0.000  0.000  0.000
       0.000  0.000  1.000  0.000  0.000
       0.000  0.000  0.000  1.000  0.000
       0.000  0.000  0.000  0.000  1.000
     occupation matrix ns (before diag.):
       0.000  0.000  0.000  0.000  0.000
       0.000  0.000  0.000  0.000  0.000
       0.000  0.000  0.000  0.000  0.000
       0.000  0.000  0.000  0.000  0.000
       0.000  0.000  0.000  0.000  0.000
     SPIN  2
     eigenvalues:
       1.000  1.000  1.000  1.000  1.000
     eigenvectors (columns):
       1.000  0.000  0.000  0.000  0.000
       0.000  1.000  0.000  0.000  0.000
       0.000  0.000  1.000  0.000  0.000
       0.000  0.000  0.000  1.000  0.000
       0.000  0.000  0.000  0.000  1.000
     occupation matrix ns (before diag.):
       1.000  0.000  0.000  0.000  0.000
       0.000  1.000  0.000  0.000  0.000
       0.000  0.000  1.000  0.000  0.000
       0.000  0.000  0.000  1.000  0.000
       0.000  0.000  0.000  0.000  1.000
     ------------------------ ATOM   10 ------------------------
     Tr[ns( 10)] (up, down, total) =   0.00000  5.00000  5.00000
     Atomic magnetic moment for atom  10 =  -5.00000
     SPIN  1
     eigenvalues:
       0.000  0.000  0.000  0.000  0.000
     eigenvectors (columns):
       1.000  0.000  0.000  0.000  0.000
       0.000  1.000  0.000  0.000  0.000
       0.000  0.000  1.000  0.000  0.000
       0.000  0.000  0.000  1.000  0.000
       0.000  0.000  0.000  0.000  1.000
     occupation matrix ns (before diag.):
       0.000  0.000  0.000  0.000  0.000
       0.000  0.000  0.000  0.000  0.000
       0.000  0.000  0.000  0.000  0.000
       0.000  0.000  0.000  0.000  0.000
       0.000  0.000  0.000  0.000  0.000
     SPIN  2
     eigenvalues:
       1.000  1.000  1.000  1.000  1.000
     eigenvectors (columns):
       1.000  0.000  0.000  0.000  0.000
       0.000  1.000  0.000  0.000  0.000
       0.000  0.000  1.000  0.000  0.000
       0.000  0.000  0.000  1.000  0.000
       0.000  0.000  0.000  0.000  1.000
     occupation matrix ns (before diag.):
       1.000  0.000  0.000  0.000  0.000
       0.000  1.000  0.000  0.000  0.000
       0.000  0.000  1.000  0.000  0.000
       0.000  0.000  0.000  1.000  0.000
       0.000  0.000  0.000  0.000  1.000

     Number of occupied Hubbard levels =   20.0000

     Atomic wfc used for Hubbard projectors are NOT orthogonalized

     Starting wfcs are  168 atomic wfcs
     Checking if some PAW data can be deallocated... 

     total cpu time spent up to now is       44.6 secs

     Self-consistent Calculation

     iteration #  1     ecut=    90.00 Ry     beta= 0.50
     Davidson diagonalization with overlap
     ethr =  1.00E-05,  avg # of iterations =  9.2

     =================== HUBBARD OCCUPATIONS ===================
     ------------------------ ATOM    1 ------------------------
     Tr[ns(  1)] (up, down, total) =   4.01507  0.76097  4.77603
     Atomic magnetic moment for atom   1 =   3.25410
     SPIN  1
     eigenvalues:
       0.546  0.546  0.973  0.975  0.975
     eigenvectors (columns):
       0.000 -0.000 -1.000 -0.000  0.000
       0.829 -0.030 -0.000  0.293 -0.475
       0.030  0.829  0.000 -0.475 -0.293
      -0.558  0.020 -0.000  0.436 -0.706
       0.020  0.558 -0.000  0.706  0.436
     occupation matrix ns (before diag.):
       0.973 -0.000  0.000  0.000  0.000
      -0.000  0.680  0.000  0.198  0.000
       0.000  0.000  0.680  0.000 -0.198
       0.000  0.198  0.000  0.841 -0.000
       0.000  0.000 -0.198 -0.000  0.841
     SPIN  2
     eigenvalues:
       0.088  0.094  0.094  0.242  0.242
     eigenvectors (columns):
       1.000 -0.000 -0.000  0.000 -0.000
       0.000  0.583  0.043  0.810 -0.050
      -0.000  0.043 -0.583  0.050  0.810
       0.000  0.809  0.060 -0.584  0.036
       0.000 -0.060  0.809  0.036  0.584
     occupation matrix ns (before diag.):
       0.088  0.000 -0.000 -0.000 -0.000
       0.000  0.192 -0.000 -0.070  0.000
      -0.000 -0.000  0.192  0.000  0.070
      -0.000 -0.070  0.000  0.145 -0.000
      -0.000  0.000  0.070 -0.000  0.145
     ------------------------ ATOM    2 ------------------------
     Tr[ns(  2)] (up, down, total) =   4.01859  0.76523  4.78381
     Atomic magnetic moment for atom   2 =   3.25336
     SPIN  1
     eigenvalues:
       0.548  0.548  0.973  0.975  0.975
     eigenvectors (columns):
      -0.000 -0.000 -1.000 -0.000 -0.000
      -0.694  0.454 -0.000  0.174  0.530
       0.454  0.694  0.000 -0.530  0.174
       0.469 -0.303 -0.000  0.263  0.787
       0.303  0.469 -0.000  0.787 -0.263
     occupation matrix ns (before diag.):
       0.973 -0.000  0.000  0.000  0.000
      -0.000  0.681  0.000  0.198 -0.001
       0.000  0.000  0.681 -0.001 -0.198
       0.000  0.198 -0.001  0.842  0.000
       0.000 -0.001 -0.198  0.000  0.842
     SPIN  2
     eigenvalues:
       0.089  0.094  0.094  0.244  0.244
     eigenvectors (columns):
       1.000  0.000  0.000  0.000 -0.000
      -0.000  0.314 -0.494  0.804 -0.105
      -0.000  0.494  0.314  0.105  0.804
      -0.000  0.433 -0.686 -0.580  0.078
       0.000 -0.686 -0.433  0.078  0.580
     occupation matrix ns (before diag.):
       0.089  0.000 -0.000 -0.000 -0.000
       0.000  0.193 -0.000 -0.071  0.000
      -0.000 -0.000  0.193  0.000  0.071
      -0.000 -0.071  0.000  0.145 -0.000
      -0.000  0.000  0.071 -0.000  0.145
     ------------------------ ATOM    9 ------------------------
     Tr[ns(  9)] (up, down, total) =   0.76524  4.01859  4.78384
     Atomic magnetic moment for atom   9 =  -3.25335
     SPIN  1
     eigenvalues:
       0.089  0.094  0.094  0.244  0.244
     eigenvectors (columns):
       1.000 -0.000 -0.000  0.000  0.000
      -0.000  0.340 -0.476  0.685 -0.435
       0.000  0.476  0.340  0.435  0.685
      -0.000  0.469 -0.662 -0.492  0.315
      -0.000 -0.662 -0.469  0.315  0.492
     occupation matrix ns (before diag.):
       0.089 -0.000  0.000  0.000  0.000
      -0.000  0.193 -0.000 -0.071  0.000
       0.000 -0.000  0.193  0.000  0.071
       0.000 -0.071  0.000  0.145  0.000
       0.000  0.000  0.071  0.000  0.145
     SPIN  2
     eigenvalues:
       0.548  0.548  0.973  0.975  0.975
     eigenvectors (columns):
       0.000  0.000 -1.000 -0.000 -0.000
       0.615 -0.557  0.000 -0.519  0.205
       0.557  0.615  0.000 -0.205 -0.519
      -0.412  0.377  0.000 -0.770  0.308
       0.377  0.412 -0.000  0.308  0.770
     occupation matrix ns (before diag.):
       0.973  0.000 -0.000 -0.000 -0.000
       0.000  0.681 -0.000  0.197 -0.001
      -0.000 -0.000  0.681 -0.001 -0.197
      -0.000  0.197 -0.001  0.842  0.000
      -0.000 -0.001 -0.197  0.000  0.842
     ------------------------ ATOM   10 ------------------------
     Tr[ns( 10)] (up, down, total) =   0.76095  4.01506  4.77600
     Atomic magnetic moment for atom  10 =  -3.25411
     SPIN  1
     eigenvalues:
       0.088  0.094  0.094  0.242  0.242
     eigenvectors (columns):
       1.000 -0.000  0.000 -0.000 -0.000
      -0.000 -0.358  0.462 -0.661  0.470
      -0.000  0.462  0.358  0.470  0.661
      -0.000 -0.497  0.641  0.477 -0.338
       0.000 -0.641 -0.497  0.338  0.477
     occupation matrix ns (before diag.):
       0.088 -0.000 -0.000  0.000 -0.000
      -0.000  0.192  0.000 -0.070  0.000
      -0.000  0.000  0.192  0.000  0.070
       0.000 -0.070  0.000  0.145 -0.000
      -0.000  0.000  0.070 -0.000  0.145
     SPIN  2
     eigenvalues:
       0.546  0.546  0.973  0.975  0.975
     eigenvectors (columns):
       0.000 -0.000  1.000  0.000  0.000
      -0.665  0.497  0.000 -0.542  0.133
       0.497  0.665  0.000 -0.133 -0.542
       0.447 -0.335 -0.000 -0.806  0.197
       0.335  0.447 -0.000  0.197  0.806
     occupation matrix ns (before diag.):
       0.973  0.000 -0.000 -0.000  0.000
       0.000  0.680  0.000  0.198  0.000
      -0.000  0.000  0.680  0.000 -0.198
      -0.000  0.198  0.000  0.841  0.000
       0.000  0.000 -0.198  0.000  0.841

     Number of occupied Hubbard levels =   19.1197

     negative rho (up, down):  3.137E-02 3.138E-02

     total cpu time spent up to now is      291.8 secs

     total energy              =   -5538.04671426 Ry
     estimated scf accuracy    <       2.90549499 Ry

     total magnetization       =    -0.00 Bohr mag/cell
     absolute magnetization    =    14.79 Bohr mag/cell

     iteration #  2     ecut=    90.00 Ry     beta= 0.50
     Davidson diagonalization with overlap
     ethr =  2.08E-03,  avg # of iterations =  5.0

     negative rho (up, down):  2.912E-02 2.912E-02

     total cpu time spent up to now is      400.1 secs

     total energy              =   -5532.96030161 Ry
     estimated scf accuracy    <      63.88623777 Ry

     total magnetization       =    -0.00 Bohr mag/cell
     absolute magnetization    =     4.56 Bohr mag/cell

     iteration #  3     ecut=    90.00 Ry     beta= 0.50
     Davidson diagonalization with overlap
     ethr =  2.08E-03,  avg # of iterations =  3.0

     negative rho (up, down):  3.069E-02 3.069E-02

     total cpu time spent up to now is      484.3 secs

     total energy              =   -5539.66768854 Ry
     estimated scf accuracy    <       0.81381691 Ry

     total magnetization       =    -0.00 Bohr mag/cell
     absolute magnetization    =    15.36 Bohr mag/cell

     iteration #  4     ecut=    90.00 Ry     beta= 0.50
     Davidson diagonalization with overlap
     ethr =  5.81E-04,  avg # of iterations =  1.9

     negative rho (up, down):  3.140E-02 3.140E-02

     total cpu time spent up to now is      546.4 secs

     total energy              =   -5539.70644420 Ry
     estimated scf accuracy    <       0.15294473 Ry

     total magnetization       =     0.00 Bohr mag/cell
     absolute magnetization    =    15.61 Bohr mag/cell

     iteration #  5     ecut=    90.00 Ry     beta= 0.50
     Davidson diagonalization with overlap
     ethr =  1.09E-04,  avg # of iterations =  4.0

     negative rho (up, down):  3.143E-02 3.143E-02

     total cpu time spent up to now is      619.2 secs

     total energy              =   -5539.72586642 Ry
     estimated scf accuracy    <       0.02491612 Ry

     total magnetization       =    -0.00 Bohr mag/cell
     absolute magnetization    =    15.88 Bohr mag/cell

     iteration #  6     ecut=    90.00 Ry     beta= 0.50
     Davidson diagonalization with overlap
     ethr =  1.78E-05,  avg # of iterations =  5.1

     negative rho (up, down):  3.123E-02 3.123E-02

     total cpu time spent up to now is      702.3 secs

     total energy              =   -5539.73730016 Ry
     estimated scf accuracy    <       0.01408861 Ry

     total magnetization       =     0.00 Bohr mag/cell
     absolute magnetization    =    16.00 Bohr mag/cell

     iteration #  7     ecut=    90.00 Ry     beta= 0.50
     Davidson diagonalization with overlap
     ethr =  1.01E-05,  avg # of iterations =  2.8

     negative rho (up, down):  3.127E-02 3.127E-02

     total cpu time spent up to now is      775.2 secs

     total energy              =   -5539.74075556 Ry
     estimated scf accuracy    <       0.00607838 Ry

     total magnetization       =    -0.00 Bohr mag/cell
     absolute magnetization    =    16.44 Bohr mag/cell

     iteration #  8     ecut=    90.00 Ry     beta= 0.50
     Davidson diagonalization with overlap
     ethr =  4.34E-06,  avg # of iterations =  4.8

     negative rho (up, down):  3.131E-02 3.131E-02

     total cpu time spent up to now is      856.2 secs

     total energy              =   -5539.74113103 Ry
     estimated scf accuracy    <       0.00364027 Ry

     total magnetization       =    -0.00 Bohr mag/cell
     absolute magnetization    =    16.48 Bohr mag/cell

     iteration #  9     ecut=    90.00 Ry     beta= 0.50
     Davidson diagonalization with overlap
     ethr =  2.60E-06,  avg # of iterations =  3.0

     negative rho (up, down):  3.133E-02 3.133E-02

     total cpu time spent up to now is      923.4 secs

     total energy              =   -5539.74141105 Ry
     estimated scf accuracy    <       0.00043845 Ry

     total magnetization       =     0.00 Bohr mag/cell
     absolute magnetization    =    16.46 Bohr mag/cell

     iteration # 10     ecut=    90.00 Ry     beta= 0.50
     Davidson diagonalization with overlap
     ethr =  3.13E-07,  avg # of iterations =  4.0

     negative rho (up, down):  3.129E-02 3.128E-02

     total cpu time spent up to now is     1002.2 secs

     total energy              =   -5539.74156252 Ry
     estimated scf accuracy    <       0.00000921 Ry

     total magnetization       =    -0.00 Bohr mag/cell
     absolute magnetization    =    16.43 Bohr mag/cell

     iteration # 11     ecut=    90.00 Ry     beta= 0.50
     Davidson diagonalization with overlap
     ethr =  6.58E-09,  avg # of iterations =  4.5

     negative rho (up, down):  3.124E-02 3.124E-02

     total cpu time spent up to now is     1103.1 secs

     total energy              =   -5539.74157214 Ry
     estimated scf accuracy    <       0.00000507 Ry

     total magnetization       =    -0.00 Bohr mag/cell
     absolute magnetization    =    16.44 Bohr mag/cell

     iteration # 12     ecut=    90.00 Ry     beta= 0.50
     Davidson diagonalization with overlap
     ethr =  3.62E-09,  avg # of iterations =  2.0

     negative rho (up, down):  3.124E-02 3.123E-02

     total cpu time spent up to now is     1174.3 secs

     total energy              =   -5539.74157335 Ry
     estimated scf accuracy    <       0.00000403 Ry

     total magnetization       =    -0.00 Bohr mag/cell
     absolute magnetization    =    16.45 Bohr mag/cell

     iteration # 13     ecut=    90.00 Ry     beta= 0.50
     Davidson diagonalization with overlap
     ethr =  2.88E-09,  avg # of iterations =  2.0

     negative rho (up, down):  3.123E-02 3.123E-02

     total cpu time spent up to now is     1239.6 secs

     total energy              =   -5539.74157476 Ry
     estimated scf accuracy    <       0.00000074 Ry

     total magnetization       =    -0.00 Bohr mag/cell
     absolute magnetization    =    16.45 Bohr mag/cell

     iteration # 14     ecut=    90.00 Ry     beta= 0.50
     Davidson diagonalization with overlap
     ethr =  5.29E-10,  avg # of iterations =  4.0

     negative rho (up, down):  3.123E-02 3.122E-02

     total cpu time spent up to now is     1320.1 secs

     total energy              =   -5539.74157522 Ry
     estimated scf accuracy    <       0.00000015 Ry

     total magnetization       =     0.00 Bohr mag/cell
     absolute magnetization    =    16.46 Bohr mag/cell

     iteration # 15     ecut=    90.00 Ry     beta= 0.50
     Davidson diagonalization with overlap
     ethr =  1.04E-10,  avg # of iterations =  3.4

     negative rho (up, down):  3.123E-02 3.122E-02

     total cpu time spent up to now is     1403.6 secs

     total energy              =   -5539.74157537 Ry
     estimated scf accuracy    <       0.00000018 Ry

     total magnetization       =    -0.00 Bohr mag/cell
     absolute magnetization    =    16.46 Bohr mag/cell

     iteration # 16     ecut=    90.00 Ry     beta= 0.50
     Davidson diagonalization with overlap
     ethr =  1.04E-10,  avg # of iterations =  2.0

     negative rho (up, down):  3.123E-02 3.122E-02

     total cpu time spent up to now is     1469.2 secs

     total energy              =   -5539.74157541 Ry
     estimated scf accuracy    <       0.00000010 Ry

     total magnetization       =     0.00 Bohr mag/cell
     absolute magnetization    =    16.46 Bohr mag/cell

     iteration # 17     ecut=    90.00 Ry     beta= 0.50
     Davidson diagonalization with overlap
     ethr =  7.47E-11,  avg # of iterations =  2.0

     negative rho (up, down):  3.123E-02 3.122E-02

     total cpu time spent up to now is     1535.0 secs

     total energy              =   -5539.74157545 Ry
     estimated scf accuracy    <       0.00000003 Ry

     total magnetization       =     0.00 Bohr mag/cell
     absolute magnetization    =    16.47 Bohr mag/cell

     iteration # 18     ecut=    90.00 Ry     beta= 0.50
     Davidson diagonalization with overlap
     ethr =  2.31E-11,  avg # of iterations =  2.3

     negative rho (up, down):  3.123E-02 3.122E-02

     total cpu time spent up to now is     1600.9 secs

     total energy              =   -5539.74157546 Ry
     estimated scf accuracy    <       0.00000001 Ry

     total magnetization       =    -0.00 Bohr mag/cell
     absolute magnetization    =    16.47 Bohr mag/cell

     iteration # 19     ecut=    90.00 Ry     beta= 0.50
     Davidson diagonalization with overlap
     ethr =  1.03E-11,  avg # of iterations =  3.0

     negative rho (up, down):  3.123E-02 3.123E-02

     total cpu time spent up to now is     1673.1 secs

     total energy              =   -5539.74157546 Ry
     estimated scf accuracy    <          8.4E-09 Ry

     total magnetization       =    -0.00 Bohr mag/cell
     absolute magnetization    =    16.47 Bohr mag/cell

     iteration # 20     ecut=    90.00 Ry     beta= 0.50
     Davidson diagonalization with overlap
     ethr =  5.99E-12,  avg # of iterations =  2.0

     negative rho (up, down):  3.123E-02 3.122E-02

     total cpu time spent up to now is     1737.1 secs

     total energy              =   -5539.74157546 Ry
     estimated scf accuracy    <          8.3E-10 Ry

     total magnetization       =     0.00 Bohr mag/cell
     absolute magnetization    =    16.47 Bohr mag/cell

     iteration # 21     ecut=    90.00 Ry     beta= 0.50
     Davidson diagonalization with overlap
     ethr =  5.95E-13,  avg # of iterations =  4.0

     negative rho (up, down):  3.123E-02 3.122E-02

     total cpu time spent up to now is     1822.4 secs

     total energy              =   -5539.74157546 Ry
     estimated scf accuracy    <          2.8E-09 Ry

     total magnetization       =     0.00 Bohr mag/cell
     absolute magnetization    =    16.47 Bohr mag/cell

     iteration # 22     ecut=    90.00 Ry     beta= 0.50
     Davidson diagonalization with overlap
     ethr =  5.95E-13,  avg # of iterations =  2.5

     negative rho (up, down):  3.123E-02 3.122E-02

     total cpu time spent up to now is     1893.0 secs

     total energy              =   -5539.74157546 Ry
     estimated scf accuracy    <          1.9E-10 Ry

     total magnetization       =     0.00 Bohr mag/cell
     absolute magnetization    =    16.47 Bohr mag/cell

     iteration # 23     ecut=    90.00 Ry     beta= 0.50
     Davidson diagonalization with overlap
     ethr =  1.33E-13,  avg # of iterations =  2.7

     negative rho (up, down):  3.123E-02 3.122E-02

     total cpu time spent up to now is     1965.7 secs

     total energy              =   -5539.74157546 Ry
     estimated scf accuracy    <          9.7E-11 Ry

     total magnetization       =     0.00 Bohr mag/cell
     absolute magnetization    =    16.47 Bohr mag/cell

     iteration # 24     ecut=    90.00 Ry     beta= 0.50
     Davidson diagonalization with overlap
     ethr =  1.00E-13,  avg # of iterations =  2.0

     negative rho (up, down):  3.123E-02 3.122E-02

     total cpu time spent up to now is     2029.8 secs

     total energy              =   -5539.74157546 Ry
     estimated scf accuracy    <          2.9E-11 Ry

     total magnetization       =    -0.00 Bohr mag/cell
     absolute magnetization    =    16.47 Bohr mag/cell

     iteration # 25     ecut=    90.00 Ry     beta= 0.50
     Davidson diagonalization with overlap
     ethr =  1.00E-13,  avg # of iterations =  1.0

     negative rho (up, down):  3.123E-02 3.122E-02

     Magnetic moment per site  (integrated on atomic sphere of radius R)
     atom   1 (R=0.162)  charge= 12.4163  magn=  3.2162
     atom   2 (R=0.162)  charge= 12.4206  magn=  3.2115
     atom   3 (R=0.162)  charge=  4.0418  magn= -0.1151
     atom   4 (R=0.162)  charge=  4.0418  magn= -0.1151
     atom   5 (R=0.162)  charge=  4.0418  magn= -0.1152
     atom   6 (R=0.162)  charge=  4.0433  magn= -0.1186
     atom   7 (R=0.162)  charge=  4.0433  magn= -0.1186
     atom   8 (R=0.162)  charge=  4.0432  magn= -0.1186
     atom   9 (R=0.162)  charge= 12.4207  magn= -3.2115
     atom  10 (R=0.162)  charge= 12.4163  magn= -3.2162
     atom  11 (R=0.162)  charge=  4.0433  magn=  0.1186
     atom  12 (R=0.162)  charge=  4.0433  magn=  0.1186
     atom  13 (R=0.162)  charge=  4.0433  magn=  0.1186
     atom  14 (R=0.162)  charge=  4.0417  magn=  0.1152
     atom  15 (R=0.162)  charge=  4.0417  magn=  0.1151
     atom  16 (R=0.162)  charge=  4.0417  magn=  0.1151

     total cpu time spent up to now is     2089.4 secs

     End of self-consistent calculation

     =================== HUBBARD OCCUPATIONS ===================
     ------------------------ ATOM    1 ------------------------
     Tr[ns(  1)] (up, down, total) =   4.40275  1.12890  5.53165
     Atomic magnetic moment for atom   1 =   3.27385
     SPIN  1
     eigenvalues:
       0.710  0.710  0.994  0.994  0.994
     eigenvectors (columns):
       0.000 -0.000  1.000  0.000 -0.000
       0.434 -0.698  0.000 -0.334  0.461
      -0.698 -0.434 -0.000  0.461  0.334
      -0.302  0.483  0.000 -0.484  0.665
      -0.483 -0.302  0.000 -0.665 -0.484
     occupation matrix ns (before diag.):
       0.994 -0.000  0.000  0.000  0.000
      -0.000  0.802  0.000  0.133 -0.000
       0.000  0.000  0.802 -0.000 -0.133
       0.000  0.133 -0.000  0.902  0.000
       0.000 -0.000 -0.133  0.000  0.902
     SPIN  2
     eigenvalues:
       0.108  0.116  0.116  0.395  0.395
     eigenvectors (columns):
      -1.000 -0.000  0.000  0.000 -0.000
      -0.000  0.575 -0.027  0.818 -0.014
       0.000  0.027  0.575  0.014  0.818
      -0.000  0.817 -0.041 -0.576  0.011
      -0.000 -0.041 -0.817  0.011  0.576
     occupation matrix ns (before diag.):
       0.108  0.000 -0.000 -0.000 -0.000
       0.000  0.302 -0.000 -0.131  0.000
      -0.000 -0.000  0.302  0.000  0.131
      -0.000 -0.131  0.000  0.208 -0.000
      -0.000  0.000  0.131 -0.000  0.208
     ------------------------ ATOM    2 ------------------------
     Tr[ns(  2)] (up, down, total) =   4.40224  1.13401  5.53624
     Atomic magnetic moment for atom   2 =   3.26823
     SPIN  1
     eigenvalues:
       0.710  0.710  0.994  0.994  0.994
     eigenvectors (columns):
       0.000 -0.000 -1.000 -0.000 -0.000
       0.243 -0.785 -0.000  0.157  0.548
      -0.785 -0.243  0.000 -0.548  0.157
      -0.170  0.545 -0.000  0.228  0.789
      -0.545 -0.170 -0.000  0.789 -0.228
     occupation matrix ns (before diag.):
       0.994 -0.000  0.000  0.000  0.000
      -0.000  0.803  0.000  0.133 -0.000
       0.000  0.000  0.803 -0.000 -0.133
       0.000  0.133 -0.000  0.902  0.000
       0.000 -0.000 -0.133  0.000  0.902
     SPIN  2
     eigenvalues:
       0.108  0.116  0.116  0.397  0.397
     eigenvectors (columns):
       1.000 -0.000 -0.000 -0.000 -0.000
      -0.000 -0.295  0.496  0.645 -0.501
      -0.000 -0.496 -0.295  0.501  0.645
      -0.000 -0.417  0.703 -0.455  0.355
       0.000  0.703  0.417  0.355  0.455
     occupation matrix ns (before diag.):
       0.108  0.000 -0.000 -0.000 -0.000
       0.000  0.304 -0.000 -0.133  0.000
      -0.000 -0.000  0.304  0.000  0.133
      -0.000 -0.133  0.000  0.209 -0.000
      -0.000  0.000  0.133 -0.000  0.209
     ------------------------ ATOM    9 ------------------------
     Tr[ns(  9)] (up, down, total) =   1.13403  4.40223  5.53626
     Atomic magnetic moment for atom   9 =  -3.26820
     SPIN  1
     eigenvalues:
       0.108  0.116  0.116  0.397  0.397
     eigenvectors (columns):
       1.000  0.000 -0.000  0.000  0.000
      -0.000  0.336 -0.469  0.644 -0.503
       0.000  0.469  0.336  0.503  0.644
      -0.000  0.475 -0.665 -0.454  0.356
      -0.000 -0.665 -0.475  0.356  0.454
     occupation matrix ns (before diag.):
       0.108 -0.000  0.000  0.000  0.000
      -0.000  0.304 -0.000 -0.133  0.000
       0.000 -0.000  0.304  0.000  0.133
       0.000 -0.133  0.000  0.209  0.000
       0.000  0.000  0.133  0.000  0.209
     SPIN  2
     eigenvalues:
       0.710  0.710  0.994  0.994  0.994
     eigenvectors (columns):
       0.000  0.000 -1.000 -0.000 -0.000
       0.708 -0.416 -0.000 -0.525  0.223
       0.416  0.708  0.000 -0.223 -0.525
      -0.491  0.290 -0.000 -0.755  0.323
       0.290  0.491 -0.000  0.323  0.755
     occupation matrix ns (before diag.):
       0.994  0.000 -0.000 -0.000 -0.000
       0.000  0.803 -0.000  0.133 -0.000
      -0.000 -0.000  0.803 -0.000 -0.133
      -0.000  0.133 -0.000  0.902  0.000
      -0.000 -0.000 -0.133  0.000  0.902
     ------------------------ ATOM   10 ------------------------
     Tr[ns( 10)] (up, down, total) =   1.12887  4.40276  5.53163
     Atomic magnetic moment for atom  10 =  -3.27388
     SPIN  1
     eigenvalues:
       0.108  0.116  0.116  0.395  0.395
     eigenvectors (columns):
       1.000 -0.000  0.000  0.000 -0.000
      -0.000 -0.354  0.454 -0.646  0.502
       0.000  0.454  0.354  0.502  0.646
      -0.000 -0.504  0.644  0.456 -0.352
      -0.000 -0.644 -0.504  0.352  0.456
     occupation matrix ns (before diag.):
       0.108 -0.000 -0.000  0.000 -0.000
      -0.000  0.302  0.000 -0.131  0.000
      -0.000  0.000  0.302  0.000  0.131
       0.000 -0.131  0.000  0.208 -0.000
      -0.000  0.000  0.131 -0.000  0.208
     SPIN  2
     eigenvalues:
       0.710  0.710  0.994  0.994  0.994
     eigenvectors (columns):
       0.000 -0.000  1.000  0.000  0.000
      -0.810  0.137  0.000 -0.565  0.073
       0.137  0.810  0.000 -0.073 -0.565
       0.562 -0.094  0.000 -0.815  0.107
       0.094  0.562 -0.000  0.107  0.815
     occupation matrix ns (before diag.):
       0.994  0.000  0.000 -0.000  0.000
       0.000  0.802  0.000  0.133 -0.000
       0.000  0.000  0.802 -0.000 -0.133
      -0.000  0.133 -0.000  0.902 -0.000
       0.000 -0.000 -0.133 -0.000  0.902

     Number of occupied Hubbard levels =   22.1358

 ------ SPIN UP ------------


          k = 0.0000 0.0000 0.0000 (109591 PWs)   bands (ev):

   -78.2073 -78.1839 -74.8667 -74.8486 -49.5496 -49.5441 -49.5441 -49.5271
   -49.5205 -49.5205 -46.2707 -46.2520 -46.2514 -46.2514 -46.2336 -46.2336
   -18.5920 -18.4891 -17.7999 -17.6314 -17.5101 -17.5101 -17.4477 -17.4476
   -17.3598 -17.3598 -17.3468 -17.3468 -10.4217 -10.1913  -9.9261  -9.7045
    -9.7045  -9.5551  -9.5551  -9.3102  -8.9319  -8.9319  -8.7691  -8.7324
    -8.7324  -8.6974  -8.6532  -8.6532  -8.5261  -8.1722  -8.1722  -7.8809
    -7.8379  -7.6497  -7.6497  -7.4602  -7.4602  -7.3137  -7.3137  -7.3065
    -7.2430  -6.9722  -6.8864  -6.8863  -6.7396  -6.3528  -6.3528  -6.1988
    -6.1988  -6.1467  -5.8462  -5.8462  -5.6585  -5.6584  -4.4904  -4.4904
    -4.0184  -4.0184  -2.7411  -2.7411  -2.5941  -2.5941  -2.5214  -2.4804
    -2.1888  -2.1888  -2.0996  -2.0996  -0.8388  -0.4364  -0.1811   0.0836
     0.1640   0.2508   0.9651   1.0776   1.0777   1.1885   1.1885   1.3330
     1.7720   1.9071   1.9071   1.9719

          k = 0.0000 0.1925 0.0000 (109722 PWs)   bands (ev):

   -78.2074 -78.1840 -74.8667 -74.8485 -49.5496 -49.5441 -49.5440 -49.5272
   -49.5205 -49.5205 -46.2707 -46.2520 -46.2514 -46.2514 -46.2336 -46.2336
   -18.5331 -18.4313 -17.7653 -17.6088 -17.5930 -17.5417 -17.5217 -17.4646
   -17.3761 -17.3739 -17.3494 -17.3473 -10.4058 -10.1374  -9.9126  -9.7827
    -9.7479  -9.4749  -9.4089  -9.3028  -9.0026  -8.9531  -8.8380  -8.7710
    -8.7201  -8.7068  -8.6563  -8.3686  -8.2700  -8.1426  -8.0272  -7.9367
    -7.8025  -7.7463  -7.6530  -7.6033  -7.4507  -7.3505  -7.3170  -7.2067
    -7.0781  -6.9659  -6.8515  -6.8102  -6.7069  -6.4341  -6.4059  -6.2911
    -6.2366  -6.1896  -6.0711  -5.9402  -5.8404  -5.6962  -4.4862  -4.4621
    -4.2119  -4.0666  -2.7343  -2.6987  -2.6309  -2.6038  -2.4869  -2.3997
    -2.2357  -2.1848  -2.1769  -2.1592  -0.7417  -0.1328   0.0444   0.3470
     0.4321   0.5866   0.6756   0.8035   0.9035   1.1056   1.4116   1.5482
     1.6774   1.7571   1.8855   1.9231

          k = 0.0000 0.3849 0.0000 (109616 PWs)   bands (ev):

   -78.2076 -78.1842 -74.8666 -74.8485 -49.5496 -49.5440 -49.5440 -49.5272
   -49.5205 -49.5204 -46.2707 -46.2520 -46.2514 -46.2513 -46.2337 -46.2336
   -18.3706 -18.2761 -17.7972 -17.7126 -17.6716 -17.5953 -17.5442 -17.4935
   -17.4305 -17.4049 -17.3794 -17.3605 -10.4556  -9.9754  -9.8550  -9.7617
    -9.6028  -9.3837  -9.3126  -9.2508  -9.1160  -8.9611  -8.8843  -8.7608
    -8.6846  -8.6112  -8.4462  -8.3559  -8.1758  -8.0974  -8.0636  -7.9300
    -7.7644  -7.7406  -7.6947  -7.4396  -7.4077  -7.3510  -7.2304  -7.1397
    -7.0849  -7.0368  -6.9563  -6.7435  -6.6954  -6.6759  -6.4530  -6.3826
    -6.2792  -6.2489  -6.1822  -6.0707  -5.9570  -5.7860  -4.4690  -4.4067
    -4.3328  -4.2185  -2.7656  -2.6864  -2.6645  -2.6135  -2.5451  -2.3470
    -2.3187  -2.2122  -2.1653  -2.1073  -0.7839  -0.2050   0.0916   0.4791
     0.6415   0.7667   0.8658   0.9780   1.0753   1.1088   1.1981   1.2814
     1.3885   1.5247   1.5775   1.6806

          k = 0.0000-0.5774 0.0000 (109602 PWs)   bands (ev):

   -78.2077 -78.1843 -74.8666 -74.8484 -49.5496 -49.5440 -49.5439 -49.5272
   -49.5205 -49.5204 -46.2707 -46.2521 -46.2515 -46.2513 -46.2338 -46.2336
   -18.2050 -18.1487 -17.9612 -17.8750 -17.6182 -17.5833 -17.5246 -17.5051
   -17.4555 -17.4379 -17.4186 -17.3687 -10.5076  -9.8559  -9.8040  -9.7503
    -9.3871  -9.3119  -9.2823  -9.1918  -9.1297  -9.0406  -8.8882  -8.6954
    -8.5916  -8.5657  -8.5548  -8.5023  -8.2905  -8.1555  -8.0378  -7.8497
    -7.8073  -7.6926  -7.5621  -7.4572  -7.4503  -7.3647  -7.3425  -7.2070
    -7.1299  -6.9272  -6.8344  -6.7804  -6.6749  -6.5979  -6.4833  -6.4702
    -6.3697  -6.2589  -6.2068  -6.0095  -5.8951  -5.8778  -4.4372  -4.4136
    -4.3440  -4.2380  -2.8630  -2.6854  -2.6784  -2.6476  -2.5094  -2.4248
    -2.3374  -2.1334  -2.1283  -2.0757  -1.0017  -0.4343   0.1608   0.1671
     0.4525   0.7733   0.9194   0.9812   1.0131   1.2164   1.2654   1.3279
     1.4094   1.4859   1.5973   1.6534

          k = 0.1667 0.2887 0.0000 (109615 PWs)   bands (ev):

   -78.2076 -78.1842 -74.8666 -74.8485 -49.5496 -49.5440 -49.5440 -49.5272
   -49.5205 -49.5204 -46.2707 -46.2520 -46.2515 -46.2513 -46.2337 -46.2336
   -18.4216 -18.3234 -17.7179 -17.7024 -17.6516 -17.5947 -17.5626 -17.5077
   -17.4064 -17.3963 -17.3685 -17.3512 -10.3520 -10.1027  -9.8805  -9.8408
    -9.5446  -9.4592  -9.3294  -9.2622  -9.0608  -8.9902  -8.9333  -8.8069
    -8.6667  -8.6124  -8.4507  -8.3104  -8.1467  -8.0944  -8.0356  -7.9225
    -7.8468  -7.8027  -7.7010  -7.5133  -7.3681  -7.3273  -7.2337  -7.1677
    -7.0962  -6.9975  -6.8749  -6.8126  -6.7082  -6.5044  -6.4564  -6.4236
    -6.2750  -6.1907  -6.1760  -6.0889  -5.9485  -5.7546  -4.4750  -4.4179
    -4.3862  -4.0976  -2.7212  -2.6867  -2.6324  -2.6110  -2.5912  -2.3125
    -2.2794  -2.2666  -2.1501  -2.1277  -0.6736  -0.1119  -0.0294   0.3942
     0.5409   0.6115   0.7674   0.8576   1.1101   1.1863   1.3521   1.4133
     1.4986   1.5999   1.6142   1.7125

          k = 0.1667 0.4811 0.0000 (109606 PWs)   bands (ev):

   -78.2077 -78.1843 -74.8666 -74.8484 -49.5496 -49.5440 -49.5439 -49.5272
   -49.5205 -49.5204 -46.2707 -46.2521 -46.2515 -46.2513 -46.2338 -46.2336
   -18.2320 -18.1503 -17.9134 -17.8377 -17.6563 -17.6046 -17.5503 -17.4995
   -17.4621 -17.4276 -17.4052 -17.3651 -10.3448  -9.9578  -9.8046  -9.7148
    -9.4203  -9.3860  -9.3062  -9.2531  -9.1121  -9.0692  -8.8558  -8.7752
    -8.6743  -8.5431  -8.4616  -8.3994  -8.2925  -8.1667  -8.0023  -7.9321
    -7.8278  -7.6962  -7.6360  -7.5292  -7.4781  -7.3967  -7.2557  -7.1425
    -6.9960  -6.9390  -6.7806  -6.7446  -6.6794  -6.6392  -6.5199  -6.4300
    -6.3264  -6.2179  -6.1848  -6.1176  -5.9247  -5.8303  -4.4524  -4.3966
    -4.3313  -4.1452  -2.7840  -2.7022  -2.6572  -2.6308  -2.5523  -2.4344
    -2.3749  -2.1528  -2.0804  -2.0597  -0.8640  -0.3724  -0.2839   0.2145
     0.3208   0.5788   0.6843   0.6987   0.9210   1.0225   1.1659   1.2731
     1.3202   1.3892   1.4860   1.5729

          k = 0.3333 0.5774 0.0000 (109542 PWs)   bands (ev):

   -78.2078 -78.1844 -74.8665 -74.8484 -49.5496 -49.5440 -49.5439 -49.5272
   -49.5205 -49.5204 -46.2707 -46.2521 -46.2516 -46.2512 -46.2338 -46.2336
   -18.0629 -18.0525 -17.9972 -17.9746 -17.7095 -17.6071 -17.5256 -17.5074
   -17.4685 -17.4328 -17.4269 -17.3742 -10.0165  -9.9889  -9.9842  -9.4631
    -9.4477  -9.4224  -9.4013  -9.2244  -9.2237  -8.9696  -8.8636  -8.8210
    -8.7630  -8.7173  -8.3059  -8.2754  -8.2371  -8.1399  -8.1077  -8.1011
    -7.9095  -7.7003  -7.6891  -7.6247  -7.6014  -7.1412  -7.1404  -7.1010
    -6.9199  -6.9059  -6.7959  -6.7225  -6.6447  -6.6240  -6.5291  -6.5122
    -6.2581  -6.2093  -6.1900  -6.1825  -5.8697  -5.8479  -4.4645  -4.3404
    -4.3106  -4.0565  -2.7242  -2.7227  -2.6769  -2.5996  -2.5713  -2.5570
    -2.3692  -2.1020  -2.0310  -2.0298  -0.7917  -0.7658  -0.2167  -0.1990
     0.2407   0.3649   0.3898   0.5850   0.6411   0.6851   0.9742   1.0209
     1.1716   1.3854   1.4254   1.4444

          k =-0.1667 0.0962 0.0000 (109722 PWs)   bands (ev):

   -78.2074 -78.1840 -74.8667 -74.8485 -49.5496 -49.5441 -49.5440 -49.5272
   -49.5205 -49.5205 -46.2707 -46.2520 -46.2514 -46.2514 -46.2336 -46.2336
   -18.5331 -18.4313 -17.7653 -17.6088 -17.5930 -17.5417 -17.5217 -17.4646
   -17.3761 -17.3739 -17.3494 -17.3473 -10.4058 -10.1374  -9.9126  -9.7827
    -9.7479  -9.4749  -9.4089  -9.3028  -9.0026  -8.9531  -8.8380  -8.7710
    -8.7201  -8.7068  -8.6563  -8.3686  -8.2700  -8.1426  -8.0272  -7.9367
    -7.8025  -7.7463  -7.6530  -7.6033  -7.4507  -7.3506  -7.3170  -7.2067
    -7.0781  -6.9659  -6.8515  -6.8102  -6.7069  -6.4341  -6.4059  -6.2911
    -6.2366  -6.1896  -6.0711  -5.9402  -5.8404  -5.6962  -4.4862  -4.4621
    -4.2119  -4.0666  -2.7343  -2.6987  -2.6309  -2.6038  -2.4869  -2.3997
    -2.2357  -2.1848  -2.1769  -2.1592  -0.7417  -0.1328   0.0444   0.3470
     0.4321   0.5866   0.6756   0.8035   0.9035   1.1056   1.4116   1.5482
     1.6774   1.7571   1.8855   1.9231

          k = 0.1667 0.0962 0.0000 (109722 PWs)   bands (ev):

   -78.2074 -78.1840 -74.8667 -74.8485 -49.5496 -49.5441 -49.5440 -49.5272
   -49.5205 -49.5205 -46.2707 -46.2520 -46.2514 -46.2514 -46.2336 -46.2336
   -18.5331 -18.4313 -17.7653 -17.6088 -17.5930 -17.5417 -17.5217 -17.4646
   -17.3761 -17.3739 -17.3494 -17.3473 -10.4058 -10.1375  -9.9126  -9.7827
    -9.7479  -9.4749  -9.4089  -9.3028  -9.0026  -8.9531  -8.8380  -8.7710
    -8.7201  -8.7068  -8.6563  -8.3686  -8.2700  -8.1426  -8.0272  -7.9367
    -7.8025  -7.7463  -7.6530  -7.6033  -7.4507  -7.3505  -7.3170  -7.2067
    -7.0781  -6.9660  -6.8515  -6.8102  -6.7069  -6.4341  -6.4059  -6.2911
    -6.2367  -6.1896  -6.0711  -5.9402  -5.8404  -5.6962  -4.4862  -4.4621
    -4.2119  -4.0666  -2.7343  -2.6987  -2.6309  -2.6038  -2.4869  -2.3997
    -2.2357  -2.1848  -2.1769  -2.1592  -0.7417  -0.1328   0.0444   0.3470
     0.4321   0.5866   0.6755   0.8036   0.9035   1.1056   1.4116   1.5482
     1.6774   1.7571   1.8855   1.9231

          k =-0.3333 0.1925 0.0000 (109616 PWs)   bands (ev):

   -78.2076 -78.1842 -74.8666 -74.8485 -49.5496 -49.5440 -49.5440 -49.5272
   -49.5205 -49.5204 -46.2707 -46.2520 -46.2514 -46.2513 -46.2337 -46.2336
   -18.3706 -18.2761 -17.7972 -17.7126 -17.6716 -17.5953 -17.5442 -17.4935
   -17.4305 -17.4049 -17.3794 -17.3605 -10.4556  -9.9754  -9.8551  -9.7617
    -9.6028  -9.3837  -9.3126  -9.2508  -9.1160  -8.9611  -8.8843  -8.7608
    -8.6846  -8.6112  -8.4462  -8.3559  -8.1758  -8.0974  -8.0636  -7.9300
    -7.7644  -7.7406  -7.6947  -7.4396  -7.4077  -7.3510  -7.2304  -7.1397
    -7.0849  -7.0367  -6.9563  -6.7434  -6.6954  -6.6759  -6.4530  -6.3826
    -6.2792  -6.2489  -6.1822  -6.0707  -5.9570  -5.7860  -4.4690  -4.4067
    -4.3328  -4.2185  -2.7656  -2.6864  -2.6645  -2.6135  -2.5451  -2.3470
    -2.3187  -2.2122  -2.1653  -2.1073  -0.7839  -0.2050   0.0917   0.4791
     0.6415   0.7667   0.8658   0.9780   1.0753   1.1088   1.1981   1.2813
     1.3885   1.5247   1.5775   1.6806

          k = 0.3333 0.1925 0.0000 (109616 PWs)   bands (ev):

   -78.2076 -78.1842 -74.8666 -74.8485 -49.5496 -49.5440 -49.5440 -49.5272
   -49.5205 -49.5204 -46.2707 -46.2520 -46.2514 -46.2513 -46.2337 -46.2336
   -18.3706 -18.2761 -17.7972 -17.7126 -17.6716 -17.5953 -17.5442 -17.4935
   -17.4305 -17.4049 -17.3794 -17.3605 -10.4555  -9.9755  -9.8551  -9.7617
    -9.6027  -9.3837  -9.3126  -9.2508  -9.1160  -8.9611  -8.8843  -8.7608
    -8.6846  -8.6112  -8.4462  -8.3559  -8.1758  -8.0974  -8.0636  -7.9300
    -7.7644  -7.7406  -7.6947  -7.4396  -7.4077  -7.3510  -7.2304  -7.1397
    -7.0849  -7.0367  -6.9563  -6.7434  -6.6954  -6.6759  -6.4530  -6.3826
    -6.2792  -6.2489  -6.1822  -6.0706  -5.9570  -5.7860  -4.4690  -4.4067
    -4.3328  -4.2185  -2.7656  -2.6864  -2.6645  -2.6135  -2.5451  -2.3470
    -2.3187  -2.2122  -2.1653  -2.1073  -0.7839  -0.2050   0.0917   0.4791
     0.6415   0.7667   0.8658   0.9780   1.0753   1.1088   1.1981   1.2813
     1.3885   1.5247   1.5775   1.6806

          k = 0.5000-0.2887 0.0000 (109602 PWs)   bands (ev):

   -78.2077 -78.1843 -74.8666 -74.8484 -49.5496 -49.5440 -49.5439 -49.5272
   -49.5205 -49.5204 -46.2707 -46.2521 -46.2515 -46.2513 -46.2338 -46.2336
   -18.2050 -18.1487 -17.9612 -17.8750 -17.6182 -17.5832 -17.5246 -17.5051
   -17.4555 -17.4379 -17.4186 -17.3687 -10.5076  -9.8559  -9.8040  -9.7503
    -9.3871  -9.3119  -9.2823  -9.1918  -9.1297  -9.0406  -8.8881  -8.6954
    -8.5916  -8.5657  -8.5548  -8.5023  -8.2905  -8.1555  -8.0378  -7.8497
    -7.8073  -7.6926  -7.5621  -7.4572  -7.4503  -7.3647  -7.3424  -7.2070
    -7.1299  -6.9272  -6.8344  -6.7804  -6.6749  -6.5978  -6.4833  -6.4703
    -6.3697  -6.2589  -6.2067  -6.0095  -5.8951  -5.8779  -4.4372  -4.4136
    -4.3440  -4.2380  -2.8630  -2.6854  -2.6784  -2.6476  -2.5094  -2.4248
    -2.3374  -2.1334  -2.1283  -2.0757  -1.0017  -0.4343   0.1608   0.1672
     0.4525   0.7733   0.9194   0.9812   1.0131   1.2164   1.2654   1.3279
     1.4094   1.4859   1.5973   1.6534

          k =-0.5000-0.2887 0.0000 (109602 PWs)   bands (ev):

   -78.2077 -78.1843 -74.8666 -74.8484 -49.5496 -49.5440 -49.5439 -49.5272
   -49.5205 -49.5204 -46.2707 -46.2521 -46.2515 -46.2513 -46.2338 -46.2336
   -18.2050 -18.1487 -17.9612 -17.8750 -17.6182 -17.5832 -17.5246 -17.5051
   -17.4554 -17.4379 -17.4186 -17.3687 -10.5076  -9.8559  -9.8040  -9.7503
    -9.3871  -9.3119  -9.2822  -9.1917  -9.1297  -9.0407  -8.8881  -8.6954
    -8.5916  -8.5657  -8.5548  -8.5023  -8.2905  -8.1555  -8.0378  -7.8497
    -7.8073  -7.6926  -7.5621  -7.4572  -7.4502  -7.3647  -7.3424  -7.2070
    -7.1299  -6.9272  -6.8344  -6.7804  -6.6749  -6.5978  -6.4833  -6.4703
    -6.3697  -6.2589  -6.2068  -6.0095  -5.8951  -5.8779  -4.4372  -4.4136
    -4.3440  -4.2380  -2.8630  -2.6854  -2.6784  -2.6476  -2.5093  -2.4248
    -2.3374  -2.1334  -2.1283  -2.0757  -1.0017  -0.4343   0.1608   0.1672
     0.4525   0.7733   0.9194   0.9812   1.0131   1.2163   1.2654   1.3279
     1.4094   1.4859   1.5973   1.6533

          k =-0.1667 0.2887 0.0000 (109615 PWs)   bands (ev):

   -78.2076 -78.1842 -74.8666 -74.8485 -49.5496 -49.5440 -49.5440 -49.5272
   -49.5205 -49.5204 -46.2707 -46.2520 -46.2515 -46.2513 -46.2337 -46.2336
   -18.4216 -18.3234 -17.7179 -17.7024 -17.6516 -17.5947 -17.5626 -17.5077
   -17.4064 -17.3963 -17.3685 -17.3512 -10.3520 -10.1027  -9.8805  -9.8408
    -9.5446  -9.4592  -9.3294  -9.2622  -9.0608  -8.9902  -8.9333  -8.8069
    -8.6667  -8.6124  -8.4507  -8.3104  -8.1467  -8.0944  -8.0356  -7.9225
    -7.8468  -7.8027  -7.7010  -7.5133  -7.3682  -7.3272  -7.2337  -7.1677
    -7.0962  -6.9975  -6.8749  -6.8127  -6.7083  -6.5044  -6.4564  -6.4236
    -6.2750  -6.1907  -6.1760  -6.0889  -5.9485  -5.7546  -4.4750  -4.4179
    -4.3862  -4.0976  -2.7212  -2.6867  -2.6324  -2.6110  -2.5912  -2.3125
    -2.2794  -2.2666  -2.1501  -2.1277  -0.6736  -0.1119  -0.0295   0.3942
     0.5409   0.6115   0.7674   0.8576   1.1101   1.1862   1.3521   1.4133
     1.4986   1.5999   1.6142   1.7125

          k = 0.3333 0.0000 0.0000 (109615 PWs)   bands (ev):

   -78.2076 -78.1842 -74.8666 -74.8485 -49.5496 -49.5440 -49.5440 -49.5272
   -49.5205 -49.5204 -46.2707 -46.2520 -46.2515 -46.2513 -46.2337 -46.2336
   -18.4216 -18.3234 -17.7179 -17.7024 -17.6516 -17.5947 -17.5626 -17.5077
   -17.4064 -17.3963 -17.3685 -17.3512 -10.3520 -10.1027  -9.8805  -9.8408
    -9.5446  -9.4592  -9.3294  -9.2622  -9.0608  -8.9902  -8.9333  -8.8069
    -8.6667  -8.6124  -8.4507  -8.3104  -8.1467  -8.0944  -8.0356  -7.9225
    -7.8468  -7.8027  -7.7010  -7.5133  -7.3681  -7.3273  -7.2337  -7.1678
    -7.0962  -6.9975  -6.8749  -6.8126  -6.7082  -6.5044  -6.4564  -6.4236
    -6.2750  -6.1907  -6.1760  -6.0889  -5.9485  -5.7546  -4.4750  -4.4179
    -4.3862  -4.0976  -2.7212  -2.6867  -2.6324  -2.6110  -2.5912  -2.3125
    -2.2794  -2.2666  -2.1501  -2.1277  -0.6736  -0.1119  -0.0294   0.3942
     0.5409   0.6115   0.7674   0.8576   1.1101   1.1863   1.3521   1.4133
     1.4986   1.5999   1.6142   1.7125

          k =-0.1667 0.4811 0.0000 (109606 PWs)   bands (ev):

   -78.2077 -78.1843 -74.8666 -74.8484 -49.5496 -49.5440 -49.5439 -49.5272
   -49.5205 -49.5204 -46.2707 -46.2521 -46.2515 -46.2513 -46.2338 -46.2336
   -18.2321 -18.1499 -17.9150 -17.8357 -17.6571 -17.6049 -17.5504 -17.4954
   -17.4677 -17.4242 -17.4066 -17.3649 -10.3450  -9.9557  -9.7962  -9.7321
    -9.4189  -9.3768  -9.2908  -9.2651  -9.1234  -9.0600  -8.8622  -8.7760
    -8.6806  -8.5505  -8.4482  -8.3989  -8.2649  -8.1767  -8.0323  -7.9400
    -7.7971  -7.7066  -7.6278  -7.5374  -7.4819  -7.3915  -7.2494  -7.1298
    -7.0229  -6.9303  -6.8278  -6.7098  -6.6645  -6.6014  -6.5493  -6.4528
    -6.3098  -6.2307  -6.1842  -6.1089  -5.9237  -5.8323  -4.4513  -4.4015
    -4.3281  -4.1447  -2.7833  -2.7010  -2.6548  -2.6353  -2.5509  -2.4348
    -2.3761  -2.1526  -2.0803  -2.0596  -0.8646  -0.3542  -0.3048   0.2228
     0.3364   0.5301   0.6644   0.7418   0.9154   1.0288   1.1669   1.2317
     1.3446   1.4135   1.5288   1.5822

          k =-0.3333 0.3849 0.0000 (109606 PWs)   bands (ev):

   -78.2077 -78.1843 -74.8666 -74.8484 -49.5496 -49.5440 -49.5439 -49.5272
   -49.5205 -49.5204 -46.2707 -46.2521 -46.2515 -46.2513 -46.2338 -46.2336
   -18.2320 -18.1503 -17.9134 -17.8377 -17.6563 -17.6046 -17.5503 -17.4995
   -17.4621 -17.4276 -17.4052 -17.3651 -10.3448  -9.9578  -9.8045  -9.7148
    -9.4203  -9.3860  -9.3062  -9.2531  -9.1121  -9.0692  -8.8558  -8.7752
    -8.6743  -8.5431  -8.4616  -8.3994  -8.2926  -8.1667  -8.0023  -7.9321
    -7.8277  -7.6962  -7.6360  -7.5292  -7.4781  -7.3967  -7.2557  -7.1425
    -6.9960  -6.9390  -6.7806  -6.7446  -6.6794  -6.6392  -6.5199  -6.4300
    -6.3265  -6.2179  -6.1848  -6.1176  -5.9247  -5.8303  -4.4524  -4.3966
    -4.3313  -4.1452  -2.7840  -2.7022  -2.6571  -2.6308  -2.5523  -2.4344
    -2.3749  -2.1528  -2.0804  -2.0597  -0.8640  -0.3724  -0.2839   0.2145
     0.3208   0.5788   0.6843   0.6987   0.9210   1.0225   1.1659   1.2731
     1.3202   1.3892   1.4860   1.5729

          k = 0.5000 0.0962 0.0000 (109606 PWs)   bands (ev):

   -78.2077 -78.1843 -74.8666 -74.8484 -49.5496 -49.5440 -49.5439 -49.5272
   -49.5205 -49.5204 -46.2707 -46.2521 -46.2515 -46.2513 -46.2338 -46.2336
   -18.2320 -18.1503 -17.9134 -17.8377 -17.6563 -17.6046 -17.5503 -17.4995
   -17.4621 -17.4276 -17.4052 -17.3651 -10.3448  -9.9578  -9.8046  -9.7148
    -9.4203  -9.3860  -9.3062  -9.2531  -9.1121  -9.0692  -8.8558  -8.7752
    -8.6743  -8.5431  -8.4616  -8.3994  -8.2926  -8.1667  -8.0023  -7.9321
    -7.8278  -7.6962  -7.6360  -7.5292  -7.4781  -7.3967  -7.2557  -7.1425
    -6.9960  -6.9390  -6.7806  -6.7446  -6.6794  -6.6392  -6.5199  -6.4300
    -6.3265  -6.2179  -6.1848  -6.1176  -5.9247  -5.8303  -4.4524  -4.3966
    -4.3313  -4.1452  -2.7840  -2.7022  -2.6572  -2.6308  -2.5523  -2.4344
    -2.3749  -2.1528  -2.0804  -2.0597  -0.8640  -0.3724  -0.2839   0.2145
     0.3208   0.5788   0.6843   0.6987   0.9210   1.0225   1.1659   1.2731
     1.3202   1.3892   1.4860   1.5729

          k =-0.3333-0.3849 0.0000 (109606 PWs)   bands (ev):

   -78.2077 -78.1843 -74.8666 -74.8484 -49.5496 -49.5440 -49.5439 -49.5272
   -49.5205 -49.5204 -46.2707 -46.2521 -46.2515 -46.2513 -46.2338 -46.2336
   -18.2321 -18.1499 -17.9150 -17.8357 -17.6571 -17.6049 -17.5504 -17.4954
   -17.4677 -17.4242 -17.4066 -17.3649 -10.3450  -9.9557  -9.7962  -9.7321
    -9.4189  -9.3768  -9.2908  -9.2651  -9.1234  -9.0600  -8.8622  -8.7760
    -8.6805  -8.5505  -8.4482  -8.3989  -8.2649  -8.1767  -8.0324  -7.9401
    -7.7971  -7.7066  -7.6278  -7.5374  -7.4819  -7.3915  -7.2494  -7.1299
    -7.0229  -6.9303  -6.8278  -6.7098  -6.6644  -6.6014  -6.5493  -6.4528
    -6.3098  -6.2307  -6.1842  -6.1089  -5.9237  -5.8323  -4.4513  -4.4015
    -4.3281  -4.1447  -2.7833  -2.7010  -2.6548  -2.6352  -2.5509  -2.4348
    -2.3761  -2.1526  -2.0803  -2.0596  -0.8646  -0.3542  -0.3048   0.2228
     0.3365   0.5301   0.6644   0.7418   0.9154   1.0288   1.1669   1.2317
     1.3446   1.4135   1.5288   1.5822

          k = 0.5000-0.0962 0.0000 (109606 PWs)   bands (ev):

   -78.2077 -78.1843 -74.8666 -74.8484 -49.5496 -49.5440 -49.5439 -49.5272
   -49.5205 -49.5204 -46.2707 -46.2521 -46.2515 -46.2513 -46.2338 -46.2336
   -18.2321 -18.1499 -17.9150 -17.8357 -17.6571 -17.6049 -17.5504 -17.4953
   -17.4677 -17.4242 -17.4066 -17.3649 -10.3450  -9.9557  -9.7962  -9.7321
    -9.4189  -9.3768  -9.2908  -9.2651  -9.1234  -9.0600  -8.8622  -8.7760
    -8.6805  -8.5505  -8.4482  -8.3989  -8.2649  -8.1767  -8.0323  -7.9400
    -7.7971  -7.7066  -7.6278  -7.5374  -7.4819  -7.3915  -7.2494  -7.1298
    -7.0229  -6.9303  -6.8278  -6.7098  -6.6644  -6.6014  -6.5493  -6.4528
    -6.3098  -6.2307  -6.1842  -6.1089  -5.9237  -5.8323  -4.4513  -4.4014
    -4.3281  -4.1447  -2.7833  -2.7010  -2.6548  -2.6353  -2.5509  -2.4348
    -2.3761  -2.1526  -2.0803  -2.0596  -0.8646  -0.3542  -0.3048   0.2228
     0.3365   0.5301   0.6644   0.7418   0.9154   1.0288   1.1669   1.2317
     1.3446   1.4135   1.5288   1.5822

 ------ SPIN DOWN ----------


          k = 0.0000 0.0000 0.0000 (109591 PWs)   bands (ev):

   -78.2074 -78.1839 -74.8667 -74.8486 -49.5496 -49.5441 -49.5441 -49.5271
   -49.5205 -49.5205 -46.2707 -46.2520 -46.2514 -46.2514 -46.2335 -46.2335
   -18.5920 -18.4891 -17.7999 -17.6314 -17.5101 -17.5101 -17.4477 -17.4476
   -17.3598 -17.3598 -17.3468 -17.3468 -10.4217 -10.1913  -9.9261  -9.7045
    -9.7045  -9.5551  -9.5551  -9.3102  -8.9319  -8.9319  -8.7691  -8.7324
    -8.7324  -8.6974  -8.6532  -8.6531  -8.5261  -8.1722  -8.1722  -7.8809
    -7.8379  -7.6497  -7.6497  -7.4602  -7.4602  -7.3137  -7.3137  -7.3065
    -7.2431  -6.9722  -6.8864  -6.8863  -6.7396  -6.3528  -6.3528  -6.1988
    -6.1988  -6.1467  -5.8462  -5.8462  -5.6585  -5.6584  -4.4905  -4.4904
    -4.0184  -4.0184  -2.7411  -2.7411  -2.5941  -2.5941  -2.5214  -2.4804
    -2.1888  -2.1888  -2.0996  -2.0995  -0.8388  -0.4364  -0.1811   0.0836
     0.1640   0.2508   0.9651   1.0776   1.0776   1.1885   1.1885   1.3330
     1.7720   1.9070   1.9071   1.9719

          k = 0.0000 0.1925 0.0000 (109722 PWs)   bands (ev):

   -78.2075 -78.1840 -74.8667 -74.8485 -49.5497 -49.5441 -49.5441 -49.5272
   -49.5205 -49.5205 -46.2707 -46.2520 -46.2514 -46.2514 -46.2336 -46.2336
   -18.5331 -18.4313 -17.7653 -17.6088 -17.5930 -17.5417 -17.5217 -17.4646
   -17.3761 -17.3739 -17.3494 -17.3473 -10.4058 -10.1375  -9.9126  -9.7827
    -9.7479  -9.4749  -9.4089  -9.3028  -9.0026  -8.9531  -8.8380  -8.7711
    -8.7201  -8.7068  -8.6563  -8.3686  -8.2700  -8.1426  -8.0272  -7.9367
    -7.8025  -7.7463  -7.6530  -7.6033  -7.4507  -7.3505  -7.3170  -7.2067
    -7.0781  -6.9659  -6.8515  -6.8102  -6.7069  -6.4341  -6.4059  -6.2911
    -6.2367  -6.1896  -6.0711  -5.9402  -5.8404  -5.6962  -4.4862  -4.4621
    -4.2119  -4.0666  -2.7343  -2.6987  -2.6309  -2.6038  -2.4869  -2.3997
    -2.2357  -2.1848  -2.1769  -2.1592  -0.7417  -0.1328   0.0444   0.3470
     0.4321   0.5867   0.6755   0.8035   0.9036   1.1056   1.4116   1.5482
     1.6774   1.7571   1.8855   1.9231

          k = 0.0000 0.3849 0.0000 (109616 PWs)   bands (ev):

   -78.2077 -78.1842 -74.8666 -74.8484 -49.5497 -49.5440 -49.5440 -49.5272
   -49.5205 -49.5204 -46.2707 -46.2520 -46.2514 -46.2513 -46.2337 -46.2336
   -18.3706 -18.2761 -17.7972 -17.7126 -17.6716 -17.5953 -17.5442 -17.4935
   -17.4305 -17.4049 -17.3794 -17.3605 -10.4555  -9.9755  -9.8551  -9.7617
    -9.6027  -9.3837  -9.3126  -9.2508  -9.1160  -8.9611  -8.8843  -8.7608
    -8.6846  -8.6112  -8.4462  -8.3559  -8.1758  -8.0974  -8.0636  -7.9300
    -7.7644  -7.7406  -7.6947  -7.4396  -7.4077  -7.3510  -7.2304  -7.1397
    -7.0849  -7.0367  -6.9563  -6.7434  -6.6954  -6.6759  -6.4530  -6.3826
    -6.2792  -6.2489  -6.1822  -6.0706  -5.9570  -5.7860  -4.4690  -4.4068
    -4.3328  -4.2185  -2.7656  -2.6864  -2.6645  -2.6135  -2.5451  -2.3470
    -2.3187  -2.2121  -2.1653  -2.1073  -0.7839  -0.2050   0.0916   0.4791
     0.6415   0.7667   0.8658   0.9780   1.0753   1.1088   1.1981   1.2813
     1.3885   1.5247   1.5775   1.6806

          k = 0.0000-0.5774 0.0000 (109602 PWs)   bands (ev):

   -78.2078 -78.1843 -74.8666 -74.8484 -49.5497 -49.5440 -49.5439 -49.5272
   -49.5205 -49.5204 -46.2707 -46.2520 -46.2515 -46.2513 -46.2338 -46.2336
   -18.2050 -18.1487 -17.9612 -17.8750 -17.6182 -17.5832 -17.5246 -17.5051
   -17.4555 -17.4379 -17.4186 -17.3687 -10.5076  -9.8559  -9.8040  -9.7503
    -9.3871  -9.3119  -9.2823  -9.1917  -9.1297  -9.0407  -8.8881  -8.6954
    -8.5916  -8.5657  -8.5548  -8.5023  -8.2905  -8.1555  -8.0378  -7.8497
    -7.8073  -7.6926  -7.5621  -7.4572  -7.4503  -7.3647  -7.3424  -7.2070
    -7.1299  -6.9272  -6.8344  -6.7804  -6.6749  -6.5978  -6.4833  -6.4703
    -6.3697  -6.2589  -6.2068  -6.0095  -5.8951  -5.8779  -4.4372  -4.4136
    -4.3440  -4.2380  -2.8630  -2.6854  -2.6784  -2.6476  -2.5093  -2.4248
    -2.3374  -2.1334  -2.1283  -2.0757  -1.0017  -0.4343   0.1608   0.1672
     0.4525   0.7733   0.9194   0.9812   1.0131   1.2164   1.2654   1.3279
     1.4094   1.4859   1.5973   1.6534

          k = 0.1667 0.2887 0.0000 (109615 PWs)   bands (ev):

   -78.2076 -78.1842 -74.8666 -74.8485 -49.5497 -49.5441 -49.5440 -49.5272
   -49.5205 -49.5204 -46.2707 -46.2520 -46.2514 -46.2513 -46.2337 -46.2336
   -18.4216 -18.3234 -17.7179 -17.7024 -17.6516 -17.5947 -17.5626 -17.5077
   -17.4064 -17.3963 -17.3685 -17.3512 -10.3520 -10.1027  -9.8805  -9.8408
    -9.5446  -9.4592  -9.3294  -9.2622  -9.0608  -8.9902  -8.9333  -8.8069
    -8.6667  -8.6124  -8.4507  -8.3104  -8.1468  -8.0944  -8.0356  -7.9225
    -7.8468  -7.8027  -7.7010  -7.5133  -7.3681  -7.3273  -7.2337  -7.1677
    -7.0962  -6.9975  -6.8749  -6.8127  -6.7083  -6.5044  -6.4564  -6.4236
    -6.2750  -6.1907  -6.1760  -6.0889  -5.9485  -5.7546  -4.4750  -4.4179
    -4.3862  -4.0976  -2.7212  -2.6866  -2.6324  -2.6110  -2.5912  -2.3125
    -2.2794  -2.2666  -2.1501  -2.1276  -0.6736  -0.1120  -0.0294   0.3942
     0.5409   0.6115   0.7674   0.8576   1.1101   1.1862   1.3521   1.4133
     1.4986   1.5999   1.6142   1.7125

          k = 0.1667 0.4811 0.0000 (109606 PWs)   bands (ev):

   -78.2078 -78.1843 -74.8666 -74.8484 -49.5497 -49.5440 -49.5439 -49.5272
   -49.5205 -49.5204 -46.2707 -46.2520 -46.2515 -46.2513 -46.2338 -46.2336
   -18.2320 -18.1503 -17.9134 -17.8377 -17.6563 -17.6046 -17.5503 -17.4995
   -17.4621 -17.4276 -17.4052 -17.3651 -10.3448  -9.9578  -9.8046  -9.7148
    -9.4203  -9.3860  -9.3062  -9.2531  -9.1121  -9.0692  -8.8558  -8.7752
    -8.6743  -8.5431  -8.4616  -8.3994  -8.2926  -8.1667  -8.0024  -7.9322
    -7.8278  -7.6962  -7.6360  -7.5292  -7.4781  -7.3967  -7.2557  -7.1425
    -6.9960  -6.9390  -6.7806  -6.7446  -6.6794  -6.6392  -6.5199  -6.4300
    -6.3265  -6.2179  -6.1848  -6.1176  -5.9247  -5.8303  -4.4524  -4.3966
    -4.3313  -4.1452  -2.7840  -2.7022  -2.6572  -2.6307  -2.5523  -2.4344
    -2.3749  -2.1528  -2.0804  -2.0597  -0.8640  -0.3724  -0.2839   0.2145
     0.3208   0.5788   0.6843   0.6987   0.9210   1.0225   1.1659   1.2731
     1.3202   1.3892   1.4860   1.5729

          k = 0.3333 0.5774 0.0000 (109542 PWs)   bands (ev):

   -78.2078 -78.1844 -74.8665 -74.8484 -49.5497 -49.5440 -49.5439 -49.5272
   -49.5205 -49.5203 -46.2707 -46.2520 -46.2516 -46.2512 -46.2338 -46.2336
   -18.0629 -18.0525 -17.9972 -17.9746 -17.7095 -17.6071 -17.5256 -17.5074
   -17.4685 -17.4328 -17.4269 -17.3742 -10.0165  -9.9889  -9.9842  -9.4631
    -9.4477  -9.4225  -9.4013  -9.2244  -9.2237  -8.9696  -8.8636  -8.8210
    -8.7630  -8.7173  -8.3059  -8.2754  -8.2371  -8.1399  -8.1077  -8.1011
    -7.9095  -7.7003  -7.6892  -7.6247  -7.6014  -7.1412  -7.1404  -7.1010
    -6.9200  -6.9059  -6.7959  -6.7225  -6.6447  -6.6240  -6.5291  -6.5122
    -6.2581  -6.2093  -6.1900  -6.1825  -5.8697  -5.8479  -4.4645  -4.3405
    -4.3105  -4.0565  -2.7242  -2.7227  -2.6769  -2.5996  -2.5713  -2.5570
    -2.3692  -2.1020  -2.0310  -2.0298  -0.7917  -0.7658  -0.2167  -0.1990
     0.2407   0.3649   0.3898   0.5850   0.6411   0.6851   0.9742   1.0209
     1.1716   1.3854   1.4254   1.4444

          k =-0.1667 0.0962 0.0000 (109722 PWs)   bands (ev):

   -78.2075 -78.1840 -74.8667 -74.8485 -49.5497 -49.5441 -49.5441 -49.5272
   -49.5205 -49.5205 -46.2707 -46.2520 -46.2514 -46.2513 -46.2336 -46.2335
   -18.5331 -18.4313 -17.7653 -17.6088 -17.5930 -17.5417 -17.5217 -17.4646
   -17.3761 -17.3739 -17.3494 -17.3473 -10.4058 -10.1375  -9.9126  -9.7827
    -9.7479  -9.4749  -9.4089  -9.3028  -9.0026  -8.9531  -8.8380  -8.7710
    -8.7201  -8.7068  -8.6563  -8.3686  -8.2700  -8.1426  -8.0272  -7.9367
    -7.8025  -7.7463  -7.6530  -7.6033  -7.4507  -7.3505  -7.3170  -7.2067
    -7.0781  -6.9659  -6.8515  -6.8102  -6.7069  -6.4341  -6.4059  -6.2911
    -6.2367  -6.1896  -6.0711  -5.9402  -5.8404  -5.6962  -4.4862  -4.4621
    -4.2119  -4.0666  -2.7343  -2.6987  -2.6309  -2.6038  -2.4869  -2.3997
    -2.2357  -2.1848  -2.1769  -2.1592  -0.7417  -0.1328   0.0444   0.3470
     0.4321   0.5866   0.6755   0.8035   0.9036   1.1056   1.4116   1.5482
     1.6774   1.7571   1.8855   1.9231

          k = 0.1667 0.0962 0.0000 (109722 PWs)   bands (ev):

   -78.2075 -78.1840 -74.8667 -74.8485 -49.5497 -49.5441 -49.5441 -49.5272
   -49.5205 -49.5205 -46.2707 -46.2520 -46.2514 -46.2513 -46.2336 -46.2335
   -18.5331 -18.4313 -17.7653 -17.6088 -17.5930 -17.5417 -17.5217 -17.4646
   -17.3761 -17.3739 -17.3494 -17.3473 -10.4058 -10.1375  -9.9126  -9.7828
    -9.7479  -9.4749  -9.4089  -9.3028  -9.0026  -8.9531  -8.8380  -8.7710
    -8.7201  -8.7068  -8.6563  -8.3686  -8.2700  -8.1426  -8.0272  -7.9367
    -7.8025  -7.7463  -7.6530  -7.6033  -7.4507  -7.3506  -7.3170  -7.2067
    -7.0781  -6.9659  -6.8515  -6.8102  -6.7069  -6.4341  -6.4059  -6.2911
    -6.2367  -6.1896  -6.0711  -5.9402  -5.8404  -5.6962  -4.4862  -4.4621
    -4.2119  -4.0666  -2.7343  -2.6987  -2.6309  -2.6038  -2.4869  -2.3997
    -2.2357  -2.1848  -2.1769  -2.1592  -0.7417  -0.1328   0.0444   0.3470
     0.4321   0.5867   0.6756   0.8035   0.9036   1.1056   1.4116   1.5482
     1.6774   1.7571   1.8855   1.9231

          k =-0.3333 0.1925 0.0000 (109616 PWs)   bands (ev):

   -78.2077 -78.1842 -74.8666 -74.8484 -49.5497 -49.5440 -49.5440 -49.5272
   -49.5205 -49.5204 -46.2707 -46.2520 -46.2514 -46.2513 -46.2337 -46.2336
   -18.3706 -18.2761 -17.7972 -17.7126 -17.6716 -17.5953 -17.5442 -17.4935
   -17.4305 -17.4049 -17.3794 -17.3605 -10.4556  -9.9754  -9.8551  -9.7617
    -9.6028  -9.3837  -9.3126  -9.2508  -9.1160  -8.9611  -8.8843  -8.7608
    -8.6846  -8.6112  -8.4462  -8.3559  -8.1758  -8.0974  -8.0636  -7.9300
    -7.7644  -7.7406  -7.6947  -7.4396  -7.4077  -7.3510  -7.2304  -7.1397
    -7.0849  -7.0367  -6.9563  -6.7434  -6.6954  -6.6759  -6.4530  -6.3825
    -6.2792  -6.2489  -6.1822  -6.0706  -5.9570  -5.7860  -4.4690  -4.4068
    -4.3328  -4.2185  -2.7656  -2.6864  -2.6645  -2.6135  -2.5451  -2.3470
    -2.3187  -2.2121  -2.1653  -2.1073  -0.7839  -0.2050   0.0916   0.4791
     0.6415   0.7667   0.8658   0.9780   1.0753   1.1088   1.1981   1.2813
     1.3885   1.5247   1.5775   1.6806

          k = 0.3333 0.1925 0.0000 (109616 PWs)   bands (ev):

   -78.2077 -78.1842 -74.8666 -74.8484 -49.5497 -49.5440 -49.5440 -49.5272
   -49.5205 -49.5204 -46.2707 -46.2520 -46.2514 -46.2513 -46.2337 -46.2336
   -18.3706 -18.2761 -17.7972 -17.7126 -17.6716 -17.5953 -17.5442 -17.4935
   -17.4305 -17.4049 -17.3794 -17.3605 -10.4556  -9.9754  -9.8550  -9.7617
    -9.6028  -9.3837  -9.3126  -9.2508  -9.1160  -8.9611  -8.8843  -8.7608
    -8.6846  -8.6112  -8.4462  -8.3559  -8.1758  -8.0974  -8.0636  -7.9300
    -7.7644  -7.7406  -7.6947  -7.4396  -7.4077  -7.3510  -7.2304  -7.1397
    -7.0849  -7.0367  -6.9563  -6.7434  -6.6954  -6.6759  -6.4530  -6.3825
    -6.2792  -6.2489  -6.1822  -6.0707  -5.9570  -5.7860  -4.4690  -4.4067
    -4.3328  -4.2185  -2.7656  -2.6864  -2.6644  -2.6135  -2.5451  -2.3470
    -2.3187  -2.2121  -2.1653  -2.1073  -0.7839  -0.2050   0.0916   0.4791
     0.6415   0.7667   0.8658   0.9780   1.0753   1.1088   1.1981   1.2814
     1.3885   1.5247   1.5775   1.6806

          k = 0.5000-0.2887 0.0000 (109602 PWs)   bands (ev):

   -78.2078 -78.1843 -74.8666 -74.8484 -49.5497 -49.5440 -49.5439 -49.5272
   -49.5205 -49.5204 -46.2707 -46.2520 -46.2515 -46.2513 -46.2338 -46.2336
   -18.2050 -18.1487 -17.9612 -17.8750 -17.6182 -17.5832 -17.5246 -17.5051
   -17.4555 -17.4379 -17.4186 -17.3687 -10.5076  -9.8559  -9.8040  -9.7503
    -9.3871  -9.3119  -9.2823  -9.1917  -9.1297  -9.0407  -8.8881  -8.6954
    -8.5916  -8.5657  -8.5548  -8.5023  -8.2905  -8.1555  -8.0378  -7.8497
    -7.8073  -7.6926  -7.5621  -7.4572  -7.4503  -7.3647  -7.3425  -7.2070
    -7.1299  -6.9272  -6.8344  -6.7804  -6.6749  -6.5979  -6.4833  -6.4703
    -6.3697  -6.2589  -6.2068  -6.0095  -5.8951  -5.8779  -4.4372  -4.4136
    -4.3440  -4.2380  -2.8630  -2.6854  -2.6784  -2.6476  -2.5093  -2.4248
    -2.3374  -2.1334  -2.1283  -2.0757  -1.0017  -0.4343   0.1608   0.1671
     0.4525   0.7733   0.9194   0.9812   1.0131   1.2163   1.2654   1.3279
     1.4094   1.4859   1.5973   1.6534

          k =-0.5000-0.2887 0.0000 (109602 PWs)   bands (ev):

   -78.2078 -78.1843 -74.8666 -74.8484 -49.5497 -49.5440 -49.5439 -49.5272
   -49.5205 -49.5204 -46.2707 -46.2520 -46.2515 -46.2513 -46.2338 -46.2336
   -18.2050 -18.1487 -17.9612 -17.8750 -17.6182 -17.5833 -17.5246 -17.5051
   -17.4555 -17.4379 -17.4186 -17.3687 -10.5076  -9.8559  -9.8040  -9.7503
    -9.3871  -9.3119  -9.2823  -9.1918  -9.1297  -9.0407  -8.8882  -8.6954
    -8.5916  -8.5657  -8.5548  -8.5022  -8.2905  -8.1555  -8.0378  -7.8497
    -7.8073  -7.6926  -7.5621  -7.4572  -7.4503  -7.3647  -7.3425  -7.2070
    -7.1299  -6.9272  -6.8344  -6.7804  -6.6749  -6.5979  -6.4833  -6.4703
    -6.3697  -6.2589  -6.2068  -6.0095  -5.8951  -5.8779  -4.4372  -4.4136
    -4.3440  -4.2380  -2.8630  -2.6854  -2.6784  -2.6476  -2.5094  -2.4247
    -2.3374  -2.1334  -2.1283  -2.0757  -1.0017  -0.4343   0.1608   0.1671
     0.4525   0.7732   0.9194   0.9812   1.0131   1.2163   1.2654   1.3279
     1.4094   1.4859   1.5973   1.6534

          k =-0.1667 0.2887 0.0000 (109615 PWs)   bands (ev):

   -78.2076 -78.1842 -74.8666 -74.8485 -49.5497 -49.5441 -49.5440 -49.5272
   -49.5205 -49.5204 -46.2707 -46.2520 -46.2515 -46.2513 -46.2337 -46.2336
   -18.4216 -18.3234 -17.7179 -17.7024 -17.6516 -17.5947 -17.5626 -17.5077
   -17.4064 -17.3963 -17.3685 -17.3512 -10.3520 -10.1027  -9.8805  -9.8408
    -9.5446  -9.4592  -9.3294  -9.2622  -9.0608  -8.9902  -8.9333  -8.8069
    -8.6667  -8.6124  -8.4507  -8.3104  -8.1468  -8.0944  -8.0356  -7.9225
    -7.8468  -7.8027  -7.7010  -7.5133  -7.3681  -7.3273  -7.2337  -7.1677
    -7.0962  -6.9975  -6.8749  -6.8126  -6.7083  -6.5044  -6.4564  -6.4236
    -6.2750  -6.1907  -6.1760  -6.0889  -5.9485  -5.7546  -4.4750  -4.4180
    -4.3861  -4.0976  -2.7212  -2.6866  -2.6324  -2.6110  -2.5912  -2.3125
    -2.2794  -2.2666  -2.1501  -2.1276  -0.6736  -0.1119  -0.0294   0.3942
     0.5409   0.6115   0.7674   0.8576   1.1101   1.1863   1.3521   1.4133
     1.4986   1.5999   1.6142   1.7125

          k = 0.3333 0.0000 0.0000 (109615 PWs)   bands (ev):

   -78.2076 -78.1842 -74.8666 -74.8485 -49.5497 -49.5441 -49.5440 -49.5272
   -49.5205 -49.5204 -46.2707 -46.2520 -46.2515 -46.2513 -46.2337 -46.2336
   -18.4216 -18.3234 -17.7179 -17.7024 -17.6516 -17.5947 -17.5626 -17.5077
   -17.4064 -17.3963 -17.3685 -17.3512 -10.3520 -10.1027  -9.8805  -9.8408
    -9.5446  -9.4592  -9.3294  -9.2622  -9.0608  -8.9902  -8.9333  -8.8069
    -8.6667  -8.6124  -8.4507  -8.3104  -8.1467  -8.0944  -8.0356  -7.9225
    -7.8468  -7.8027  -7.7010  -7.5133  -7.3681  -7.3273  -7.2337  -7.1677
    -7.0962  -6.9975  -6.8749  -6.8127  -6.7083  -6.5044  -6.4564  -6.4236
    -6.2750  -6.1907  -6.1760  -6.0889  -5.9485  -5.7546  -4.4750  -4.4179
    -4.3862  -4.0976  -2.7212  -2.6866  -2.6324  -2.6110  -2.5912  -2.3125
    -2.2794  -2.2666  -2.1501  -2.1277  -0.6736  -0.1120  -0.0294   0.3942
     0.5409   0.6115   0.7674   0.8576   1.1101   1.1862   1.3521   1.4133
     1.4986   1.5999   1.6142   1.7125

          k =-0.1667 0.4811 0.0000 (109606 PWs)   bands (ev):

   -78.2078 -78.1843 -74.8666 -74.8484 -49.5497 -49.5440 -49.5439 -49.5272
   -49.5205 -49.5204 -46.2707 -46.2520 -46.2515 -46.2513 -46.2338 -46.2336
   -18.2321 -18.1499 -17.9150 -17.8357 -17.6571 -17.6049 -17.5504 -17.4954
   -17.4677 -17.4242 -17.4066 -17.3649 -10.3450  -9.9557  -9.7962  -9.7321
    -9.4189  -9.3768  -9.2908  -9.2651  -9.1234  -9.0600  -8.8622  -8.7761
    -8.6805  -8.5505  -8.4482  -8.3989  -8.2649  -8.1767  -8.0324  -7.9401
    -7.7971  -7.7066  -7.6278  -7.5374  -7.4819  -7.3915  -7.2494  -7.1298
    -7.0228  -6.9303  -6.8278  -6.7098  -6.6644  -6.6014  -6.5493  -6.4528
    -6.3098  -6.2307  -6.1842  -6.1089  -5.9237  -5.8324  -4.4514  -4.4015
    -4.3281  -4.1447  -2.7833  -2.7010  -2.6548  -2.6353  -2.5509  -2.4348
    -2.3761  -2.1526  -2.0803  -2.0596  -0.8646  -0.3542  -0.3048   0.2228
     0.3364   0.5301   0.6644   0.7418   0.9154   1.0288   1.1669   1.2317
     1.3446   1.4135   1.5288   1.5822

          k =-0.3333 0.3849 0.0000 (109606 PWs)   bands (ev):

   -78.2078 -78.1843 -74.8666 -74.8484 -49.5497 -49.5440 -49.5439 -49.5272
   -49.5205 -49.5204 -46.2707 -46.2520 -46.2515 -46.2513 -46.2338 -46.2336
   -18.2320 -18.1503 -17.9134 -17.8377 -17.6563 -17.6046 -17.5503 -17.4995
   -17.4621 -17.4276 -17.4052 -17.3651 -10.3448  -9.9578  -9.8046  -9.7148
    -9.4203  -9.3860  -9.3062  -9.2531  -9.1121  -9.0692  -8.8558  -8.7752
    -8.6743  -8.5431  -8.4616  -8.3994  -8.2926  -8.1667  -8.0023  -7.9321
    -7.8278  -7.6962  -7.6360  -7.5292  -7.4782  -7.3967  -7.2557  -7.1425
    -6.9960  -6.9390  -6.7806  -6.7446  -6.6794  -6.6392  -6.5199  -6.4300
    -6.3264  -6.2179  -6.1848  -6.1176  -5.9247  -5.8303  -4.4524  -4.3966
    -4.3313  -4.1452  -2.7840  -2.7022  -2.6572  -2.6308  -2.5522  -2.4344
    -2.3749  -2.1528  -2.0804  -2.0597  -0.8640  -0.3724  -0.2839   0.2145
     0.3208   0.5788   0.6843   0.6987   0.9210   1.0225   1.1659   1.2731
     1.3202   1.3892   1.4860   1.5729

          k = 0.5000 0.0962 0.0000 (109606 PWs)   bands (ev):

   -78.2078 -78.1843 -74.8666 -74.8484 -49.5497 -49.5440 -49.5439 -49.5272
   -49.5205 -49.5204 -46.2707 -46.2520 -46.2515 -46.2513 -46.2338 -46.2336
   -18.2320 -18.1503 -17.9133 -17.8377 -17.6563 -17.6046 -17.5503 -17.4995
   -17.4621 -17.4276 -17.4052 -17.3651 -10.3448  -9.9578  -9.8046  -9.7148
    -9.4203  -9.3860  -9.3062  -9.2531  -9.1121  -9.0692  -8.8558  -8.7752
    -8.6743  -8.5431  -8.4616  -8.3994  -8.2925  -8.1667  -8.0023  -7.9321
    -7.8278  -7.6962  -7.6360  -7.5292  -7.4781  -7.3967  -7.2557  -7.1425
    -6.9960  -6.9390  -6.7806  -6.7446  -6.6794  -6.6392  -6.5199  -6.4300
    -6.3264  -6.2179  -6.1848  -6.1177  -5.9247  -5.8303  -4.4524  -4.3966
    -4.3313  -4.1452  -2.7840  -2.7022  -2.6571  -2.6308  -2.5523  -2.4344
    -2.3749  -2.1528  -2.0804  -2.0597  -0.8640  -0.3724  -0.2839   0.2145
     0.3208   0.5788   0.6843   0.6987   0.9210   1.0225   1.1659   1.2731
     1.3202   1.3892   1.4860   1.5729

          k =-0.3333-0.3849 0.0000 (109606 PWs)   bands (ev):

   -78.2078 -78.1843 -74.8666 -74.8484 -49.5497 -49.5440 -49.5439 -49.5272
   -49.5205 -49.5204 -46.2707 -46.2520 -46.2515 -46.2513 -46.2338 -46.2336
   -18.2321 -18.1499 -17.9150 -17.8357 -17.6571 -17.6049 -17.5504 -17.4954
   -17.4677 -17.4242 -17.4066 -17.3649 -10.3450  -9.9557  -9.7962  -9.7321
    -9.4189  -9.3769  -9.2908  -9.2652  -9.1234  -9.0600  -8.8622  -8.7760
    -8.6806  -8.5505  -8.4482  -8.3989  -8.2649  -8.1767  -8.0323  -7.9400
    -7.7971  -7.7066  -7.6278  -7.5374  -7.4819  -7.3915  -7.2494  -7.1298
    -7.0229  -6.9303  -6.8278  -6.7098  -6.6645  -6.6014  -6.5493  -6.4528
    -6.3098  -6.2307  -6.1842  -6.1089  -5.9237  -5.8323  -4.4514  -4.4015
    -4.3281  -4.1447  -2.7833  -2.7010  -2.6548  -2.6353  -2.5509  -2.4348
    -2.3761  -2.1526  -2.0803  -2.0596  -0.8646  -0.3542  -0.3048   0.2228
     0.3364   0.5301   0.6644   0.7418   0.9154   1.0288   1.1669   1.2317
     1.3446   1.4135   1.5289   1.5822

          k = 0.5000-0.0962 0.0000 (109606 PWs)   bands (ev):

   -78.2078 -78.1843 -74.8666 -74.8484 -49.5497 -49.5440 -49.5439 -49.5272
   -49.5205 -49.5204 -46.2707 -46.2520 -46.2515 -46.2513 -46.2338 -46.2336
   -18.2321 -18.1499 -17.9150 -17.8357 -17.6571 -17.6049 -17.5504 -17.4954
   -17.4677 -17.4242 -17.4066 -17.3649 -10.3450  -9.9557  -9.7962  -9.7321
    -9.4189  -9.3769  -9.2908  -9.2651  -9.1234  -9.0600  -8.8622  -8.7760
    -8.6806  -8.5505  -8.4482  -8.3989  -8.2649  -8.1767  -8.0324  -7.9400
    -7.7971  -7.7066  -7.6278  -7.5374  -7.4819  -7.3915  -7.2494  -7.1298
    -7.0229  -6.9303  -6.8278  -6.7098  -6.6644  -6.6014  -6.5493  -6.4528
    -6.3098  -6.2307  -6.1842  -6.1089  -5.9237  -5.8323  -4.4514  -4.4015
    -4.3281  -4.1447  -2.7833  -2.7010  -2.6548  -2.6352  -2.5509  -2.4348
    -2.3761  -2.1526  -2.0803  -2.0596  -0.8646  -0.3542  -0.3048   0.2228
     0.3365   0.5301   0.6643   0.7418   0.9154   1.0288   1.1669   1.2317
     1.3446   1.4135   1.5288   1.5822

     highest occupied, lowest unoccupied level (ev):    -5.6584   -4.4905

!    total energy              =   -5539.74157546 Ry
     total all-electron energy =     -5539.741575 Ry
     estimated scf accuracy    <          3.6E-12 Ry

     The total energy is the sum of the following terms:
     one-electron contribution =   -9588.46507948 Ry
     hartree contribution      =    4768.53631629 Ry
     xc contribution           =    -165.76499139 Ry
     ewald contribution        =    3989.39166454 Ry
     Hubbard energy            =       0.48511286 Ry
     one-center paw contrib.   =   -4543.92459828 Ry

     total magnetization       =     0.00 Bohr mag/cell
     absolute magnetization    =    16.47 Bohr mag/cell

     convergence has been achieved in  25 iterations

     negative rho (up, down):  3.123E-02 3.122E-02

     Forces acting on atoms (cartesian axes, Ry/au):

     atom    1 type  1   force =    -0.00000188    0.00000001   -0.00060771
     atom    2 type  1   force =     0.00000487    0.00000082   -0.00010110
     atom    3 type  2   force =     0.01088773    0.00003436   -0.01567400
     atom    4 type  2   force =    -0.00541329   -0.00944580   -0.01567392
     atom    5 type  2   force =    -0.00547351    0.00941096   -0.01567238
     atom    6 type  2   force =    -0.01069775    0.00000820    0.01815558
     atom    7 type  2   force =     0.00535858    0.00925882    0.01815417
     atom    8 type  2   force =     0.00533993   -0.00926913    0.01815554
     atom    9 type  3   force =    -0.00000418    0.00000400    0.00010298
     atom   10 type  3   force =     0.00000262   -0.00000466    0.00061084
     atom   11 type  2   force =     0.01069753   -0.00001347   -0.01815558
     atom   12 type  2   force =    -0.00536092   -0.00925748   -0.01815556
     atom   13 type  2   force =    -0.00533702    0.00927164   -0.01815453
     atom   14 type  2   force =    -0.01088796   -0.00003863    0.01567233
     atom   15 type  2   force =     0.00540863    0.00944836    0.01567157
     atom   16 type  2   force =     0.00547660   -0.00940800    0.01567177

     Total force =     0.069642     Total SCF correction =     0.000002


     Computing stress (Cartesian axis) and pressure


     negative rho (up, down):  3.123E-02 3.122E-02
          total   stress  (Ry/bohr**3)                   (kbar)     P=       16.42
   0.00011033  -0.00000000  -0.00000000           16.23       -0.00       -0.00
  -0.00000000   0.00011033  -0.00000000           -0.00       16.23       -0.00
  -0.00000000  -0.00000000   0.00011415           -0.00       -0.00       16.79


     Writing all to output data dir ./lt_fm_afm_qe/lt_fm_afm_qe.save/ :
     XML data file, charge density, pseudopotentials, collected wavefunctions

     init_run     :     42.87s CPU     43.71s WALL (       1 calls)
     electrons    :   1974.98s CPU   2045.33s WALL (       1 calls)
     forces       :     32.27s CPU     32.74s WALL (       1 calls)
     stress       :    207.35s CPU    210.18s WALL (       1 calls)

     Called by init_run:
     wfcinit      :     39.94s CPU     40.59s WALL (       1 calls)
     potinit      :      1.11s CPU      1.16s WALL (       1 calls)
     hinit0       :      0.98s CPU      0.99s WALL (       1 calls)

     Called by electrons:
     c_bands      :   1633.32s CPU   1691.65s WALL (      25 calls)
     sum_band     :    298.71s CPU    307.72s WALL (      25 calls)
     v_of_rho     :      5.69s CPU      5.79s WALL (      26 calls)
     newd         :     13.34s CPU     15.71s WALL (      26 calls)
     PAW_pot      :     21.69s CPU     21.87s WALL (      26 calls)
     mix_rho      :      2.86s CPU      2.94s WALL (      25 calls)

     Called by c_bands:
     init_us_2    :     24.90s CPU     25.24s WALL (    2240 calls)
     init_us_2:cp :     24.88s CPU     25.23s WALL (    2240 calls)
     cegterg      :   1578.09s CPU   1635.35s WALL (    1000 calls)

     Called by *egterg:
     cdiaghg      :    152.06s CPU    153.23s WALL (    4283 calls)
     h_psi        :   1052.42s CPU   1081.02s WALL (    4323 calls)
     s_psi        :     66.92s CPU     67.74s WALL (    4443 calls)
     g_psi        :      9.35s CPU      9.49s WALL (    3283 calls)

     Called by h_psi:
     h_psi:calbec :     73.01s CPU     74.49s WALL (    4323 calls)
     vloc_psi     :    821.96s CPU    835.25s WALL (    4323 calls)
     add_vuspsi   :     61.81s CPU     62.55s WALL (    4323 calls)
     vhpsi        :     79.74s CPU     80.93s WALL (    4323 calls)

     General routines
     calbec       :    195.43s CPU    198.70s WALL (   42126 calls)
     fft          :      4.65s CPU      4.75s WALL (     688 calls)
     ffts         :      0.32s CPU      0.34s WALL (     102 calls)
     fftw         :    766.35s CPU    779.31s WALL (  624128 calls)
     interpolate  :      0.55s CPU      0.56s WALL (      52 calls)

     Parallel routines

     Hubbard U routines
     new_ns       :     14.77s CPU     15.29s WALL (      25 calls)
     vhpsi        :     79.74s CPU     80.93s WALL (    4323 calls)
     force_hub    :     24.44s CPU     24.73s WALL (       1 calls)
                                        0.00s GPU  (       1 calls)
     stres_hub    :     75.96s CPU     76.95s WALL (       1 calls)
                                        0.00s GPU  (       1 calls)

     PWSCF        :  37m43.16s CPU  40m 5.51s WALL


   This run was terminated on:  16:49:41  15Oct2025            

=------------------------------------------------------------------------------=
   JOB DONE.
=------------------------------------------------------------------------------=
