==================================================================================
It's Sat 26 Apr 2025 12:25:49 AM BST.
*** Starting onetep_launcher (node nid004102, PIDs 40444 40445 40446 40447 40448 40449 40450 40451 40452 40453 40454 40455 40456 40457 40458 40459 40460 40461 40462 40463 40464 40465 40466 40467 40468 40469 40470 40471 40472 40473 40474 40475)...
    - ONETEP arguments: Co.dat
    - Current directory: /mnt/lustre/a2fs-work3/work/e89/e89/phsmea/Co_bulk_single_point/sp
    - Launcher executable directory: /mnt/lustre/a2fs-work3/work/e89/e89/phsmea/Co_bulk_single_point
    - (-e) ONETEP executable specified through command-line: /work/e89/e89/phsmea/onetep.archer2_2024_cray_2
      ... trying /work/e89/e89/phsmea/onetep.archer2_2024_cray_2
          -> looks OK
*** Setting up environment...
    - (-s) Process stack size: unlimited
    - (-t) OMP_NUM_THREADS: 4
    - (-o) OMP_STACKSIZE: 64M
    - (-c) Maximum core file size: 2048000
    - (-d) decfort_dump_flag: n
    - (-m) I_MPI_OFA_TRANSLATION_CACHE: 0
    - (-m) I_MPI_DAPL_TRANSLATION_CACHE: 0
    - (-m) I_MPI_DAPL_UD_TRANSLATION_CACHE: 0
*** Starting ONETEP...
    - /work/e89/e89/phsmea/onetep.archer2_2024_cray_2 Co.dat
=================================================================================
_________________________________________________________________________________
 +---------------------------------------------------------------+
 |                                                               |
 |        ####### #     # ####### ####### ####### ######         |
 |        #     # ##    # #          #    #       #     #        |
 |        #     # # #   # #          #    #       #     #        |
 |        #     # #  #  # #####      #    #####   ######         |
 |        #     # #   # # #          #    #       #              |
 |        #     # #    ## #          #    #       #              |
 |        ####### #     # #######    #    ####### #              |
 |                                                               |
 |        Linear-Scaling Ab Initio Total Energy Program          |
 |                                                               |
 |          Release for academic collaborators of ODG            |
 |                                             Version 7.3.0     |
 | Remote: git@github.com:Miesaz/onetep_mea.git                  |
 | Local branch: master                                          |
 | Commit ID: 4af45e89288c8df5499704252eec3e032ee3d0c8           |
 | Date: Tue Aug 6 11:28:44 2024 +0100                           |
 | Locally modified files:                                       |
 |   src/hubbard_build_mod.F90                                   |
 |   src/services_mod.F90                                        |
 |                                                               |
 +---------------------------------------------------------------+
 |                                                               |
 |  Authors:                                                     |
 |  Jacek Dziedzic, Peter D. Haynes, Nicholas D. M. Hine,        |
 |  Arash A. Mostofi, Mike C. Payne and Chris-Kriton Skylaris    |
 |                                                               |
 |  Contributors:                                                |
 |  J. Aarons, L. Andrinopoulos, P. W. Avraam, R. A. Bell,       |
 |  A. Bhandari, G. A. Bramley, R. J. Charlton, S. J. Clark,     |
 |  R. J. Clements, G. C. Constantinescu, F. Corsetti,           |
 |  N. Corsini, O. Dieguez, S. M. M. Dubois, K. K. B. Duff,      |
 |  J. M. Escartin, M. Escobar Azor, A. Greco,                   |
 |  H. Helal, Q. O. Hill, L. P. Lee, J.-H. Li,                   |
 |  T. Li, E. B. Linscott, G. Moynihan, D. D. O`Regan,           |
 |  O. K. Okan, E. Parkinson, M. J. S. Phipps,                   |
 |  C. J. Pickard, J. C. A. Prentice, M. I. J. Probert,          |
 |  L. E. Ratcliff, M. Robinson, A. Ruiz Serrano,                |
 |  M. dos Santos Dias, J. S. Spencer, E. W. Tait,               |
 |  G. Teobaldi, D. Turban, V. Vitale, K. A. Wilkinson,          |
 |  C. Weber, J. C. Womack, Chengcheng Xiao, N. Yeung,           |
 |  and T. J. Zuehlsdorff.                                       |
 |                                                               |
 |                                   Copyright (c) 2004-2025     |
 |                                                               |
 |  Please cite:                                                 |
 |  "The ONETEP linear-scaling density functional theory program"|
 |   J. Chem. Phys. 152(17) 174111 (2020)                        |
 |                                                               |
 |          in all publications arising from your use of ONETEP. |
 |                                                               |
 +---------------------------------------------------------------+
 |                                                               |
 |   ONETEP is based on developments described in the following  |
 |   publications:                                               |
 |                                                               |
 |  "Nonorthogonal generalized Wannier function pseudopotential  |
 |   plane-wave method".                                         |
 |   C.-K. Skylaris, A. A. Mostofi, P. D. Haynes, O. Dieguez,    |
 |   M. C. Payne.                                                |
 |   Phys. Rev. B 66 035119 (2002).                              |
 |                                                               |
 |  "Preconditioned iterative minimization for linear-scaling    |
 |   electronic structure calculations".                         |
 |   A. A. Mostofi, P. D. Haynes, C.-K. Skylaris, M. C. Payne.   |
 |   J. Chem. Phys. 119(17), pp.8842-8848 (2003).                |
 |                                                               |
 |  "Total-energy calculations on a real space grid with         |
 |   localized functions and a plane-wave basis".                |
 |   A. A. Mostofi, C.-K. Skylaris, P. D. Haynes, M. C. Payne.   |
 |   Comput. Phys. Commun. 147, pp.788-802 (2002).               |
 |                                                               |
 |  "Accurate kinetic energy evaluation in electronic structure  |
 |   calculations with localized functions on real space grids"  |
 |   C.-K. Skylaris, A. A. Mostofi, P. D. Haynes, C. J. Pickard, |
 |   M. C. Payne.                                                |
 |   Comput. Phys. Commun. 140, pp.315-322 (2001).               |
 |                                                               |
 |  "Accurate ionic forces and geometry optimization in linear-  |
 |   scaling density-functional theory with local orbitals"      |
 |   N. D. M. Hine, M. Robinson, P. D. Haynes, C.-K. Skylaris,   |
 |   M. C. Payne, and A. A. Mostofi.                             |
 |   Phys. Rev. B 83 195102 (2011).                              |
 |                                                               |
 +---------------------------------------------------------------+

Job started: 26-04-2025 00:25 (+0100)
 
Reading parameters from file "Co.dat" ...... done

If your calculation crashes here, before "Checking processes and threads..."
is displayed, then your stack size is insufficient.
If so, use "ulimit -s unlimited" at runtime.
You can disable this check with "check_stack_size F".

Checking processes and threads...
      Default threads: 4
   Running with 320 MPI processes.
   There are 32 MPI processes running on the same node as the root process.
   Each MPI process is using: 
               1 threads for simulation cell FFTs.
               1 threads for threaded FFT box operations.
               4 threads for loops over batched FFT box operations.
               4 threads in other parallel regions.
   MPI Interface: S1 (use mpi_f08) (-DMPI -DUSE_MPI_F08).
   MPI_ASYNC_PROTECTS_NONBLOCKING: Yes. MPI_SUBARRAYS_SUPPORTED: Yes.
   FFTW Interface: OMP-capable and MODERN. (-DUSE_MODERN_FFTW specified).
   GPU Interface: None.
   GPU FFT Backend: None.
... done

Basic input checks...
Resetting ngwf_cg_rotate to TRUE for EDFT calculations
... done

Reading geometry and species blocks from file "Co.dat" ...... done


--------------------------------------------------------------------------------
---------------------------------- INPUT FILE ----------------------------------
--------------------------------------------------------------------------------

charge : 0                                                                      
cutoff_energy : 600 eV                                                          
do_properties : T                                                               
edft : T                                                                        
edft_maxit : 15                                                                 
edft_spin_fix : 0                                                               
fine_grid_scale : 4                                                             
geom_continuation : F                                                           
maxit_ngwf_cg : 100                                                             
ngwf_threshold_orig : 1e-07                                                     
ngwfs_spin_polarized : T                                                        
paw : T                                                                         
pseudo_path : ..                                                                
read_denskern : T                                                               
read_hamiltonian : T                                                            
read_tightbox_ngwfs : T                                                         
spin : 2592                                                                     
spin_polarized : T                                                              
task : SinglePoint                                                              
write_denskern : T                                                              
write_forces : T                                                                
write_hamiltonian : T                                                           
write_tightbox_ngwfs : T                                                        
xc_functional : PBE                                                             
%BLOCK LATTICE_CART                                                             
ang                                                                             
14.99119730     0.00000000    0.00000000                                        
0.00000000    25.95883166    0.00000000                                         
0.00000000     0.00000000   24.23272929                                         
%ENDBLOCK LATTICE_CART                                                          
%BLOCK POSITIONS_ABS                                                            
ang                                                                             
Co       0.00000000       0.00000000       0.00000000                           
Co       0.00000000       1.44216649       2.01939411                           
Co       1.24926644       2.16323321       0.00000000                           
Co       1.24926644       3.60540968       2.01939411                           
Co       0.00000000       0.00000000       4.03878822                           
Co       0.00000000       1.44216649       6.05818233                           
Co       1.24926644       2.16323321       4.03878822                           
Co       1.24926644       3.60540968       6.05818233                           
Co       0.00000000       0.00000000       8.07757643                           
Co       0.00000000       1.44216649      10.09697054                           
Co       1.24926644       2.16323321       8.07757643                           
Co       1.24926644       3.60540968      10.09697054                           
Co       0.00000000       0.00000000      12.11636465                           
Co       0.00000000       1.44216649      14.13575876                           
Co       1.24926644       2.16323321      12.11636465                           
Co       1.24926644       3.60540968      14.13575876                           
Co       0.00000000       0.00000000      16.15515286                           
Co       0.00000000       1.44216649      18.17454697                           
Co       1.24926644       2.16323321      16.15515286                           
Co       1.24926644       3.60540968      18.17454697                           
Co       0.00000000       0.00000000      20.19394108                           
Co       0.00000000       1.44216649      22.21333519                           
Co       1.24926644       2.16323321      20.19394108                           
Co       1.24926644       3.60540968      22.21333519                           
Co       0.00000000       4.32647194       0.00000000                           
Co       0.00000000       5.76863843       2.01939411                           
Co       1.24926644       6.48970515       0.00000000                           
Co       1.24926644       7.93188162       2.01939411                           
Co       0.00000000       4.32647194       4.03878822                           
Co       0.00000000       5.76863843       6.05818233                           
Co       1.24926644       6.48970515       4.03878822                           
Co       1.24926644       7.93188162       6.05818233                           
Co       0.00000000       4.32647194       8.07757643                           
Co       0.00000000       5.76863843      10.09697054                           
Co       1.24926644       6.48970515       8.07757643                           
Co       1.24926644       7.93188162      10.09697054                           
Co       0.00000000       4.32647194      12.11636465                           
Co       0.00000000       5.76863843      14.13575876                           
Co       1.24926644       6.48970515      12.11636465                           
Co       1.24926644       7.93188162      14.13575876                           
Co       0.00000000       4.32647194      16.15515286                           
Co       0.00000000       5.76863843      18.17454697                           
Co       1.24926644       6.48970515      16.15515286                           
Co       1.24926644       7.93188162      18.17454697                           
Co       0.00000000       4.32647194      20.19394108                           
Co       0.00000000       5.76863843      22.21333519                           
Co       1.24926644       6.48970515      20.19394108                           
Co       1.24926644       7.93188162      22.21333519                           
Co       0.00000000       8.65294389       0.00000000                           
Co       0.00000000      10.09511038       2.01939411                           
Co       1.24926644      10.81617710       0.00000000                           
Co       1.24926644      12.25835357       2.01939411                           
Co       0.00000000       8.65294389       4.03878822                           
Co       0.00000000      10.09511038       6.05818233                           
Co       1.24926644      10.81617710       4.03878822                           
Co       1.24926644      12.25835357       6.05818233                           
Co       0.00000000       8.65294389       8.07757643                           
Co       0.00000000      10.09511038      10.09697054                           
Co       1.24926644      10.81617710       8.07757643                           
Co       1.24926644      12.25835357      10.09697054                           
Co       0.00000000       8.65294389      12.11636465                           
Co       0.00000000      10.09511038      14.13575876                           
Co       1.24926644      10.81617710      12.11636465                           
Co       1.24926644      12.25835357      14.13575876                           
Co       0.00000000       8.65294389      16.15515286                           
Co       0.00000000      10.09511038      18.17454697                           
Co       1.24926644      10.81617710      16.15515286                           
Co       1.24926644      12.25835357      18.17454697                           
Co       0.00000000       8.65294389      20.19394108                           
Co       0.00000000      10.09511038      22.21333519                           
Co       1.24926644      10.81617710      20.19394108                           
Co       1.24926644      12.25835357      22.21333519                           
Co       0.00000000      12.97941583       0.00000000                           
Co       0.00000000      14.42158232       2.01939411                           
Co       1.24926644      15.14264904       0.00000000                           
Co       1.24926644      16.58482551       2.01939411                           
Co       0.00000000      12.97941583       4.03878822                           
Co       0.00000000      14.42158232       6.05818233                           
Co       1.24926644      15.14264904       4.03878822                           
Co       1.24926644      16.58482551       6.05818233                           
Co       0.00000000      12.97941583       8.07757643                           
Co       0.00000000      14.42158232      10.09697054                           
Co       1.24926644      15.14264904       8.07757643                           
Co       1.24926644      16.58482551      10.09697054                           
Co       0.00000000      12.97941583      12.11636465                           
Co       0.00000000      14.42158232      14.13575876                           
Co       1.24926644      15.14264904      12.11636465                           
Co       1.24926644      16.58482551      14.13575876                           
Co       0.00000000      12.97941583      16.15515286                           
Co       0.00000000      14.42158232      18.17454697                           
Co       1.24926644      15.14264904      16.15515286                           
Co       1.24926644      16.58482551      18.17454697                           
Co       0.00000000      12.97941583      20.19394108                           
Co       0.00000000      14.42158232      22.21333519                           
Co       1.24926644      15.14264904      20.19394108                           
Co       1.24926644      16.58482551      22.21333519                           
Co       0.00000000      17.30588777       0.00000000                           
Co       0.00000000      18.74805426       2.01939411                           
Co       1.24926644      19.46912098       0.00000000                           
Co       1.24926644      20.91129745       2.01939411                           
Co       0.00000000      17.30588777       4.03878822                           
Co       0.00000000      18.74805426       6.05818233                           
Co       1.24926644      19.46912098       4.03878822                           
Co       1.24926644      20.91129745       6.05818233                           
Co       0.00000000      17.30588777       8.07757643                           
Co       0.00000000      18.74805426      10.09697054                           
Co       1.24926644      19.46912098       8.07757643                           
Co       1.24926644      20.91129745      10.09697054                           
Co       0.00000000      17.30588777      12.11636465                           
Co       0.00000000      18.74805426      14.13575876                           
Co       1.24926644      19.46912098      12.11636465                           
Co       1.24926644      20.91129745      14.13575876                           
Co       0.00000000      17.30588777      16.15515286                           
Co       0.00000000      18.74805426      18.17454697                           
Co       1.24926644      19.46912098      16.15515286                           
Co       1.24926644      20.91129745      18.17454697                           
Co       0.00000000      17.30588777      20.19394108                           
Co       0.00000000      18.74805426      22.21333519                           
Co       1.24926644      19.46912098      20.19394108                           
Co       1.24926644      20.91129745      22.21333519                           
Co       0.00000000      21.63235971       0.00000000                           
Co       0.00000000      23.07452620       2.01939411                           
Co       1.24926644      23.79559293       0.00000000                           
Co       1.24926644      25.23776940       2.01939411                           
Co       0.00000000      21.63235971       4.03878822                           
Co       0.00000000      23.07452620       6.05818233                           
Co       1.24926644      23.79559293       4.03878822                           
Co       1.24926644      25.23776940       6.05818233                           
Co       0.00000000      21.63235971       8.07757643                           
Co       0.00000000      23.07452620      10.09697054                           
Co       1.24926644      23.79559293       8.07757643                           
Co       1.24926644      25.23776940      10.09697054                           
Co       0.00000000      21.63235971      12.11636465                           
Co       0.00000000      23.07452620      14.13575876                           
Co       1.24926644      23.79559293      12.11636465                           
Co       1.24926644      25.23776940      14.13575876                           
Co       0.00000000      21.63235971      16.15515286                           
Co       0.00000000      23.07452620      18.17454697                           
Co       1.24926644      23.79559293      16.15515286                           
Co       1.24926644      25.23776940      18.17454697                           
Co       0.00000000      21.63235971      20.19394108                           
Co       0.00000000      23.07452620      22.21333519                           
Co       1.24926644      23.79559293      20.19394108                           
Co       1.24926644      25.23776940      22.21333519                           
Co       2.49853288       0.00000000       0.00000000                           
Co       2.49853288       1.44216649       2.01939411                           
Co       3.74779932       2.16323321       0.00000000                           
Co       3.74779932       3.60540968       2.01939411                           
Co       2.49853288       0.00000000       4.03878822                           
Co       2.49853288       1.44216649       6.05818233                           
Co       3.74779932       2.16323321       4.03878822                           
Co       3.74779932       3.60540968       6.05818233                           
Co       2.49853288       0.00000000       8.07757643                           
Co       2.49853288       1.44216649      10.09697054                           
Co       3.74779932       2.16323321       8.07757643                           
Co       3.74779932       3.60540968      10.09697054                           
Co       2.49853288       0.00000000      12.11636465                           
Co       2.49853288       1.44216649      14.13575876                           
Co       3.74779932       2.16323321      12.11636465                           
Co       3.74779932       3.60540968      14.13575876                           
Co       2.49853288       0.00000000      16.15515286                           
Co       2.49853288       1.44216649      18.17454697                           
Co       3.74779932       2.16323321      16.15515286                           
Co       3.74779932       3.60540968      18.17454697                           
Co       2.49853288       0.00000000      20.19394108                           
Co       2.49853288       1.44216649      22.21333519                           
Co       3.74779932       2.16323321      20.19394108                           
Co       3.74779932       3.60540968      22.21333519                           
Co       2.49853288       4.32647194       0.00000000                           
Co       2.49853288       5.76863843       2.01939411                           
Co       3.74779932       6.48970515       0.00000000                           
Co       3.74779932       7.93188162       2.01939411                           
Co       2.49853288       4.32647194       4.03878822                           
Co       2.49853288       5.76863843       6.05818233                           
Co       3.74779932       6.48970515       4.03878822                           
Co       3.74779932       7.93188162       6.05818233                           
Co       2.49853288       4.32647194       8.07757643                           
Co       2.49853288       5.76863843      10.09697054                           
Co       3.74779932       6.48970515       8.07757643                           
Co       3.74779932       7.93188162      10.09697054                           
Co       2.49853288       4.32647194      12.11636465                           
Co       2.49853288       5.76863843      14.13575876                           
Co       3.74779932       6.48970515      12.11636465                           
Co       3.74779932       7.93188162      14.13575876                           
Co       2.49853288       4.32647194      16.15515286                           
Co       2.49853288       5.76863843      18.17454697                           
Co       3.74779932       6.48970515      16.15515286                           
Co       3.74779932       7.93188162      18.17454697                           
Co       2.49853288       4.32647194      20.19394108                           
Co       2.49853288       5.76863843      22.21333519                           
Co       3.74779932       6.48970515      20.19394108                           
Co       3.74779932       7.93188162      22.21333519                           
Co       2.49853288       8.65294389       0.00000000                           
Co       2.49853288      10.09511038       2.01939411                           
Co       3.74779932      10.81617710       0.00000000                           
Co       3.74779932      12.25835357       2.01939411                           
Co       2.49853288       8.65294389       4.03878822                           
Co       2.49853288      10.09511038       6.05818233                           
Co       3.74779932      10.81617710       4.03878822                           
Co       3.74779932      12.25835357       6.05818233                           
Co       2.49853288       8.65294389       8.07757643                           
Co       2.49853288      10.09511038      10.09697054                           
Co       3.74779932      10.81617710       8.07757643                           
Co       3.74779932      12.25835357      10.09697054                           
Co       2.49853288       8.65294389      12.11636465                           
Co       2.49853288      10.09511038      14.13575876                           
Co       3.74779932      10.81617710      12.11636465                           
Co       3.74779932      12.25835357      14.13575876                           
Co       2.49853288       8.65294389      16.15515286                           
Co       2.49853288      10.09511038      18.17454697                           
Co       3.74779932      10.81617710      16.15515286                           
Co       3.74779932      12.25835357      18.17454697                           
Co       2.49853288       8.65294389      20.19394108                           
Co       2.49853288      10.09511038      22.21333519                           
Co       3.74779932      10.81617710      20.19394108                           
Co       3.74779932      12.25835357      22.21333519                           
Co       2.49853288      12.97941583       0.00000000                           
Co       2.49853288      14.42158232       2.01939411                           
Co       3.74779932      15.14264904       0.00000000                           
Co       3.74779932      16.58482551       2.01939411                           
Co       2.49853288      12.97941583       4.03878822                           
Co       2.49853288      14.42158232       6.05818233                           
Co       3.74779932      15.14264904       4.03878822                           
Co       3.74779932      16.58482551       6.05818233                           
Co       2.49853288      12.97941583       8.07757643                           
Co       2.49853288      14.42158232      10.09697054                           
Co       3.74779932      15.14264904       8.07757643                           
Co       3.74779932      16.58482551      10.09697054                           
Co       2.49853288      12.97941583      12.11636465                           
Co       2.49853288      14.42158232      14.13575876                           
Co       3.74779932      15.14264904      12.11636465                           
Co       3.74779932      16.58482551      14.13575876                           
Co       2.49853288      12.97941583      16.15515286                           
Co       2.49853288      14.42158232      18.17454697                           
Co       3.74779932      15.14264904      16.15515286                           
Co       3.74779932      16.58482551      18.17454697                           
Co       2.49853288      12.97941583      20.19394108                           
Co       2.49853288      14.42158232      22.21333519                           
Co       3.74779932      15.14264904      20.19394108                           
Co       3.74779932      16.58482551      22.21333519                           
Co       2.49853288      17.30588777       0.00000000                           
Co       2.49853288      18.74805426       2.01939411                           
Co       3.74779932      19.46912098       0.00000000                           
Co       3.74779932      20.91129745       2.01939411                           
Co       2.49853288      17.30588777       4.03878822                           
Co       2.49853288      18.74805426       6.05818233                           
Co       3.74779932      19.46912098       4.03878822                           
Co       3.74779932      20.91129745       6.05818233                           
Co       2.49853288      17.30588777       8.07757643                           
Co       2.49853288      18.74805426      10.09697054                           
Co       3.74779932      19.46912098       8.07757643                           
Co       3.74779932      20.91129745      10.09697054                           
Co       2.49853288      17.30588777      12.11636465                           
Co       2.49853288      18.74805426      14.13575876                           
Co       3.74779932      19.46912098      12.11636465                           
Co       3.74779932      20.91129745      14.13575876                           
Co       2.49853288      17.30588777      16.15515286                           
Co       2.49853288      18.74805426      18.17454697                           
Co       3.74779932      19.46912098      16.15515286                           
Co       3.74779932      20.91129745      18.17454697                           
Co       2.49853288      17.30588777      20.19394108                           
Co       2.49853288      18.74805426      22.21333519                           
Co       3.74779932      19.46912098      20.19394108                           
Co       3.74779932      20.91129745      22.21333519                           
Co       2.49853288      21.63235971       0.00000000                           
Co       2.49853288      23.07452620       2.01939411                           
Co       3.74779932      23.79559293       0.00000000                           
Co       3.74779932      25.23776940       2.01939411                           
Co       2.49853288      21.63235971       4.03878822                           
Co       2.49853288      23.07452620       6.05818233                           
Co       3.74779932      23.79559293       4.03878822                           
Co       3.74779932      25.23776940       6.05818233                           
Co       2.49853288      21.63235971       8.07757643                           
Co       2.49853288      23.07452620      10.09697054                           
Co       3.74779932      23.79559293       8.07757643                           
Co       3.74779932      25.23776940      10.09697054                           
Co       2.49853288      21.63235971      12.11636465                           
Co       2.49853288      23.07452620      14.13575876                           
Co       3.74779932      23.79559293      12.11636465                           
Co       3.74779932      25.23776940      14.13575876                           
Co       2.49853288      21.63235971      16.15515286                           
Co       2.49853288      23.07452620      18.17454697                           
Co       3.74779932      23.79559293      16.15515286                           
Co       3.74779932      25.23776940      18.17454697                           
Co       2.49853288      21.63235971      20.19394108                           
Co       2.49853288      23.07452620      22.21333519                           
Co       3.74779932      23.79559293      20.19394108                           
Co       3.74779932      25.23776940      22.21333519                           
Co       4.99706577       0.00000000       0.00000000                           
Co       4.99706577       1.44216649       2.01939411                           
Co       6.24633221       2.16323321       0.00000000                           
Co       6.24633221       3.60540968       2.01939411                           
Co       4.99706577       0.00000000       4.03878822                           
Co       4.99706577       1.44216649       6.05818233                           
Co       6.24633221       2.16323321       4.03878822                           
Co       6.24633221       3.60540968       6.05818233                           
Co       4.99706577       0.00000000       8.07757643                           
Co       4.99706577       1.44216649      10.09697054                           
Co       6.24633221       2.16323321       8.07757643                           
Co       6.24633221       3.60540968      10.09697054                           
Co       4.99706577       0.00000000      12.11636465                           
Co       4.99706577       1.44216649      14.13575876                           
Co       6.24633221       2.16323321      12.11636465                           
Co       6.24633221       3.60540968      14.13575876                           
Co       4.99706577       0.00000000      16.15515286                           
Co       4.99706577       1.44216649      18.17454697                           
Co       6.24633221       2.16323321      16.15515286                           
Co       6.24633221       3.60540968      18.17454697                           
Co       4.99706577       0.00000000      20.19394108                           
Co       4.99706577       1.44216649      22.21333519                           
Co       6.24633221       2.16323321      20.19394108                           
Co       6.24633221       3.60540968      22.21333519                           
Co       4.99706577       4.32647194       0.00000000                           
Co       4.99706577       5.76863843       2.01939411                           
Co       6.24633221       6.48970515       0.00000000                           
Co       6.24633221       7.93188162       2.01939411                           
Co       4.99706577       4.32647194       4.03878822                           
Co       4.99706577       5.76863843       6.05818233                           
Co       6.24633221       6.48970515       4.03878822                           
Co       6.24633221       7.93188162       6.05818233                           
Co       4.99706577       4.32647194       8.07757643                           
Co       4.99706577       5.76863843      10.09697054                           
Co       6.24633221       6.48970515       8.07757643                           
Co       6.24633221       7.93188162      10.09697054                           
Co       4.99706577       4.32647194      12.11636465                           
Co       4.99706577       5.76863843      14.13575876                           
Co       6.24633221       6.48970515      12.11636465                           
Co       6.24633221       7.93188162      14.13575876                           
Co       4.99706577       4.32647194      16.15515286                           
Co       4.99706577       5.76863843      18.17454697                           
Co       6.24633221       6.48970515      16.15515286                           
Co       6.24633221       7.93188162      18.17454697                           
Co       4.99706577       4.32647194      20.19394108                           
Co       4.99706577       5.76863843      22.21333519                           
Co       6.24633221       6.48970515      20.19394108                           
Co       6.24633221       7.93188162      22.21333519                           
Co       4.99706577       8.65294389       0.00000000                           
Co       4.99706577      10.09511038       2.01939411                           
Co       6.24633221      10.81617710       0.00000000                           
Co       6.24633221      12.25835357       2.01939411                           
Co       4.99706577       8.65294389       4.03878822                           
Co       4.99706577      10.09511038       6.05818233                           
Co       6.24633221      10.81617710       4.03878822                           
Co       6.24633221      12.25835357       6.05818233                           
Co       4.99706577       8.65294389       8.07757643                           
Co       4.99706577      10.09511038      10.09697054                           
Co       6.24633221      10.81617710       8.07757643                           
Co       6.24633221      12.25835357      10.09697054                           
Co       4.99706577       8.65294389      12.11636465                           
Co       4.99706577      10.09511038      14.13575876                           
Co       6.24633221      10.81617710      12.11636465                           
Co       6.24633221      12.25835357      14.13575876                           
Co       4.99706577       8.65294389      16.15515286                           
Co       4.99706577      10.09511038      18.17454697                           
Co       6.24633221      10.81617710      16.15515286                           
Co       6.24633221      12.25835357      18.17454697                           
Co       4.99706577       8.65294389      20.19394108                           
Co       4.99706577      10.09511038      22.21333519                           
Co       6.24633221      10.81617710      20.19394108                           
Co       6.24633221      12.25835357      22.21333519                           
Co       4.99706577      12.97941583       0.00000000                           
Co       4.99706577      14.42158232       2.01939411                           
Co       6.24633221      15.14264904       0.00000000                           
Co       6.24633221      16.58482551       2.01939411                           
Co       4.99706577      12.97941583       4.03878822                           
Co       4.99706577      14.42158232       6.05818233                           
Co       6.24633221      15.14264904       4.03878822                           
Co       6.24633221      16.58482551       6.05818233                           
Co       4.99706577      12.97941583       8.07757643                           
Co       4.99706577      14.42158232      10.09697054                           
Co       6.24633221      15.14264904       8.07757643                           
Co       6.24633221      16.58482551      10.09697054                           
Co       4.99706577      12.97941583      12.11636465                           
Co       4.99706577      14.42158232      14.13575876                           
Co       6.24633221      15.14264904      12.11636465                           
Co       6.24633221      16.58482551      14.13575876                           
Co       4.99706577      12.97941583      16.15515286                           
Co       4.99706577      14.42158232      18.17454697                           
Co       6.24633221      15.14264904      16.15515286                           
Co       6.24633221      16.58482551      18.17454697                           
Co       4.99706577      12.97941583      20.19394108                           
Co       4.99706577      14.42158232      22.21333519                           
Co       6.24633221      15.14264904      20.19394108                           
Co       6.24633221      16.58482551      22.21333519                           
Co       4.99706577      17.30588777       0.00000000                           
Co       4.99706577      18.74805426       2.01939411                           
Co       6.24633221      19.46912098       0.00000000                           
Co       6.24633221      20.91129745       2.01939411                           
Co       4.99706577      17.30588777       4.03878822                           
Co       4.99706577      18.74805426       6.05818233                           
Co       6.24633221      19.46912098       4.03878822                           
Co       6.24633221      20.91129745       6.05818233                           
Co       4.99706577      17.30588777       8.07757643                           
Co       4.99706577      18.74805426      10.09697054                           
Co       6.24633221      19.46912098       8.07757643                           
Co       6.24633221      20.91129745      10.09697054                           
Co       4.99706577      17.30588777      12.11636465                           
Co       4.99706577      18.74805426      14.13575876                           
Co       6.24633221      19.46912098      12.11636465                           
Co       6.24633221      20.91129745      14.13575876                           
Co       4.99706577      17.30588777      16.15515286                           
Co       4.99706577      18.74805426      18.17454697                           
Co       6.24633221      19.46912098      16.15515286                           
Co       6.24633221      20.91129745      18.17454697                           
Co       4.99706577      17.30588777      20.19394108                           
Co       4.99706577      18.74805426      22.21333519                           
Co       6.24633221      19.46912098      20.19394108                           
Co       6.24633221      20.91129745      22.21333519                           
Co       4.99706577      21.63235971       0.00000000                           
Co       4.99706577      23.07452620       2.01939411                           
Co       6.24633221      23.79559293       0.00000000                           
Co       6.24633221      25.23776940       2.01939411                           
Co       4.99706577      21.63235971       4.03878822                           
Co       4.99706577      23.07452620       6.05818233                           
Co       6.24633221      23.79559293       4.03878822                           
Co       6.24633221      25.23776940       6.05818233                           
Co       4.99706577      21.63235971       8.07757643                           
Co       4.99706577      23.07452620      10.09697054                           
Co       6.24633221      23.79559293       8.07757643                           
Co       6.24633221      25.23776940      10.09697054                           
Co       4.99706577      21.63235971      12.11636465                           
Co       4.99706577      23.07452620      14.13575876                           
Co       6.24633221      23.79559293      12.11636465                           
Co       6.24633221      25.23776940      14.13575876                           
Co       4.99706577      21.63235971      16.15515286                           
Co       4.99706577      23.07452620      18.17454697                           
Co       6.24633221      23.79559293      16.15515286                           
Co       6.24633221      25.23776940      18.17454697                           
Co       4.99706577      21.63235971      20.19394108                           
Co       4.99706577      23.07452620      22.21333519                           
Co       6.24633221      23.79559293      20.19394108                           
Co       6.24633221      25.23776940      22.21333519                           
Co       7.49559865       0.00000000       0.00000000                           
Co       7.49559865       1.44216649       2.01939411                           
Co       8.74486509       2.16323321       0.00000000                           
Co       8.74486509       3.60540968       2.01939411                           
Co       7.49559865       0.00000000       4.03878822                           
Co       7.49559865       1.44216649       6.05818233                           
Co       8.74486509       2.16323321       4.03878822                           
Co       8.74486509       3.60540968       6.05818233                           
Co       7.49559865       0.00000000       8.07757643                           
Co       7.49559865       1.44216649      10.09697054                           
Co       8.74486509       2.16323321       8.07757643                           
Co       8.74486509       3.60540968      10.09697054                           
Co       7.49559865       0.00000000      12.11636465                           
Co       7.49559865       1.44216649      14.13575876                           
Co       8.74486509       2.16323321      12.11636465                           
Co       8.74486509       3.60540968      14.13575876                           
Co       7.49559865       0.00000000      16.15515286                           
Co       7.49559865       1.44216649      18.17454697                           
Co       8.74486509       2.16323321      16.15515286                           
Co       8.74486509       3.60540968      18.17454697                           
Co       7.49559865       0.00000000      20.19394108                           
Co       7.49559865       1.44216649      22.21333519                           
Co       8.74486509       2.16323321      20.19394108                           
Co       8.74486509       3.60540968      22.21333519                           
Co       7.49559865       4.32647194       0.00000000                           
Co       7.49559865       5.76863843       2.01939411                           
Co       8.74486509       6.48970515       0.00000000                           
Co       8.74486509       7.93188162       2.01939411                           
Co       7.49559865       4.32647194       4.03878822                           
Co       7.49559865       5.76863843       6.05818233                           
Co       8.74486509       6.48970515       4.03878822                           
Co       8.74486509       7.93188162       6.05818233                           
Co       7.49559865       4.32647194       8.07757643                           
Co       7.49559865       5.76863843      10.09697054                           
Co       8.74486509       6.48970515       8.07757643                           
Co       8.74486509       7.93188162      10.09697054                           
Co       7.49559865       4.32647194      12.11636465                           
Co       7.49559865       5.76863843      14.13575876                           
Co       8.74486509       6.48970515      12.11636465                           
Co       8.74486509       7.93188162      14.13575876                           
Co       7.49559865       4.32647194      16.15515286                           
Co       7.49559865       5.76863843      18.17454697                           
Co       8.74486509       6.48970515      16.15515286                           
Co       8.74486509       7.93188162      18.17454697                           
Co       7.49559865       4.32647194      20.19394108                           
Co       7.49559865       5.76863843      22.21333519                           
Co       8.74486509       6.48970515      20.19394108                           
Co       8.74486509       7.93188162      22.21333519                           
Co       7.49559865       8.65294389       0.00000000                           
Co       7.49559865      10.09511038       2.01939411                           
Co       8.74486509      10.81617710       0.00000000                           
Co       8.74486509      12.25835357       2.01939411                           
Co       7.49559865       8.65294389       4.03878822                           
Co       7.49559865      10.09511038       6.05818233                           
Co       8.74486509      10.81617710       4.03878822                           
Co       8.74486509      12.25835357       6.05818233                           
Co       7.49559865       8.65294389       8.07757643                           
Co       7.49559865      10.09511038      10.09697054                           
Co       8.74486509      10.81617710       8.07757643                           
Co       8.74486509      12.25835357      10.09697054                           
Co       7.49559865       8.65294389      12.11636465                           
Co       7.49559865      10.09511038      14.13575876                           
Co       8.74486509      10.81617710      12.11636465                           
Co       8.74486509      12.25835357      14.13575876                           
Co       7.49559865       8.65294389      16.15515286                           
Co       7.49559865      10.09511038      18.17454697                           
Co       8.74486509      10.81617710      16.15515286                           
Co       8.74486509      12.25835357      18.17454697                           
Co       7.49559865       8.65294389      20.19394108                           
Co       7.49559865      10.09511038      22.21333519                           
Co       8.74486509      10.81617710      20.19394108                           
Co       8.74486509      12.25835357      22.21333519                           
Co       7.49559865      12.97941583       0.00000000                           
Co       7.49559865      14.42158232       2.01939411                           
Co       8.74486509      15.14264904       0.00000000                           
Co       8.74486509      16.58482551       2.01939411                           
Co       7.49559865      12.97941583       4.03878822                           
Co       7.49559865      14.42158232       6.05818233                           
Co       8.74486509      15.14264904       4.03878822                           
Co       8.74486509      16.58482551       6.05818233                           
Co       7.49559865      12.97941583       8.07757643                           
Co       7.49559865      14.42158232      10.09697054                           
Co       8.74486509      15.14264904       8.07757643                           
Co       8.74486509      16.58482551      10.09697054                           
Co       7.49559865      12.97941583      12.11636465                           
Co       7.49559865      14.42158232      14.13575876                           
Co       8.74486509      15.14264904      12.11636465                           
Co       8.74486509      16.58482551      14.13575876                           
Co       7.49559865      12.97941583      16.15515286                           
Co       7.49559865      14.42158232      18.17454697                           
Co       8.74486509      15.14264904      16.15515286                           
Co       8.74486509      16.58482551      18.17454697                           
Co       7.49559865      12.97941583      20.19394108                           
Co       7.49559865      14.42158232      22.21333519                           
Co       8.74486509      15.14264904      20.19394108                           
Co       8.74486509      16.58482551      22.21333519                           
Co       7.49559865      17.30588777       0.00000000                           
Co       7.49559865      18.74805426       2.01939411                           
Co       8.74486509      19.46912098       0.00000000                           
Co       8.74486509      20.91129745       2.01939411                           
Co       7.49559865      17.30588777       4.03878822                           
Co       7.49559865      18.74805426       6.05818233                           
Co       8.74486509      19.46912098       4.03878822                           
Co       8.74486509      20.91129745       6.05818233                           
Co       7.49559865      17.30588777       8.07757643                           
Co       7.49559865      18.74805426      10.09697054                           
Co       8.74486509      19.46912098       8.07757643                           
Co       8.74486509      20.91129745      10.09697054                           
Co       7.49559865      17.30588777      12.11636465                           
Co       7.49559865      18.74805426      14.13575876                           
Co       8.74486509      19.46912098      12.11636465                           
Co       8.74486509      20.91129745      14.13575876                           
Co       7.49559865      17.30588777      16.15515286                           
Co       7.49559865      18.74805426      18.17454697                           
Co       8.74486509      19.46912098      16.15515286                           
Co       8.74486509      20.91129745      18.17454697                           
Co       7.49559865      17.30588777      20.19394108                           
Co       7.49559865      18.74805426      22.21333519                           
Co       8.74486509      19.46912098      20.19394108                           
Co       8.74486509      20.91129745      22.21333519                           
Co       7.49559865      21.63235971       0.00000000                           
Co       7.49559865      23.07452620       2.01939411                           
Co       8.74486509      23.79559293       0.00000000                           
Co       8.74486509      25.23776940       2.01939411                           
Co       7.49559865      21.63235971       4.03878822                           
Co       7.49559865      23.07452620       6.05818233                           
Co       8.74486509      23.79559293       4.03878822                           
Co       8.74486509      25.23776940       6.05818233                           
Co       7.49559865      21.63235971       8.07757643                           
Co       7.49559865      23.07452620      10.09697054                           
Co       8.74486509      23.79559293       8.07757643                           
Co       8.74486509      25.23776940      10.09697054                           
Co       7.49559865      21.63235971      12.11636465                           
Co       7.49559865      23.07452620      14.13575876                           
Co       8.74486509      23.79559293      12.11636465                           
Co       8.74486509      25.23776940      14.13575876                           
Co       7.49559865      21.63235971      16.15515286                           
Co       7.49559865      23.07452620      18.17454697                           
Co       8.74486509      23.79559293      16.15515286                           
Co       8.74486509      25.23776940      18.17454697                           
Co       7.49559865      21.63235971      20.19394108                           
Co       7.49559865      23.07452620      22.21333519                           
Co       8.74486509      23.79559293      20.19394108                           
Co       8.74486509      25.23776940      22.21333519                           
Co       9.99413154       0.00000000       0.00000000                           
Co       9.99413154       1.44216649       2.01939411                           
Co      11.24339798       2.16323321       0.00000000                           
Co      11.24339798       3.60540968       2.01939411                           
Co       9.99413154       0.00000000       4.03878822                           
Co       9.99413154       1.44216649       6.05818233                           
Co      11.24339798       2.16323321       4.03878822                           
Co      11.24339798       3.60540968       6.05818233                           
Co       9.99413154       0.00000000       8.07757643                           
Co       9.99413154       1.44216649      10.09697054                           
Co      11.24339798       2.16323321       8.07757643                           
Co      11.24339798       3.60540968      10.09697054                           
Co       9.99413154       0.00000000      12.11636465                           
Co       9.99413154       1.44216649      14.13575876                           
Co      11.24339798       2.16323321      12.11636465                           
Co      11.24339798       3.60540968      14.13575876                           
Co       9.99413154       0.00000000      16.15515286                           
Co       9.99413154       1.44216649      18.17454697                           
Co      11.24339798       2.16323321      16.15515286                           
Co      11.24339798       3.60540968      18.17454697                           
Co       9.99413154       0.00000000      20.19394108                           
Co       9.99413154       1.44216649      22.21333519                           
Co      11.24339798       2.16323321      20.19394108                           
Co      11.24339798       3.60540968      22.21333519                           
Co       9.99413154       4.32647194       0.00000000                           
Co       9.99413154       5.76863843       2.01939411                           
Co      11.24339798       6.48970515       0.00000000                           
Co      11.24339798       7.93188162       2.01939411                           
Co       9.99413154       4.32647194       4.03878822                           
Co       9.99413154       5.76863843       6.05818233                           
Co      11.24339798       6.48970515       4.03878822                           
Co      11.24339798       7.93188162       6.05818233                           
Co       9.99413154       4.32647194       8.07757643                           
Co       9.99413154       5.76863843      10.09697054                           
Co      11.24339798       6.48970515       8.07757643                           
Co      11.24339798       7.93188162      10.09697054                           
Co       9.99413154       4.32647194      12.11636465                           
Co       9.99413154       5.76863843      14.13575876                           
Co      11.24339798       6.48970515      12.11636465                           
Co      11.24339798       7.93188162      14.13575876                           
Co       9.99413154       4.32647194      16.15515286                           
Co       9.99413154       5.76863843      18.17454697                           
Co      11.24339798       6.48970515      16.15515286                           
Co      11.24339798       7.93188162      18.17454697                           
Co       9.99413154       4.32647194      20.19394108                           
Co       9.99413154       5.76863843      22.21333519                           
Co      11.24339798       6.48970515      20.19394108                           
Co      11.24339798       7.93188162      22.21333519                           
Co       9.99413154       8.65294389       0.00000000                           
Co       9.99413154      10.09511038       2.01939411                           
Co      11.24339798      10.81617710       0.00000000                           
Co      11.24339798      12.25835357       2.01939411                           
Co       9.99413154       8.65294389       4.03878822                           
Co       9.99413154      10.09511038       6.05818233                           
Co      11.24339798      10.81617710       4.03878822                           
Co      11.24339798      12.25835357       6.05818233                           
Co       9.99413154       8.65294389       8.07757643                           
Co       9.99413154      10.09511038      10.09697054                           
Co      11.24339798      10.81617710       8.07757643                           
Co      11.24339798      12.25835357      10.09697054                           
Co       9.99413154       8.65294389      12.11636465                           
Co       9.99413154      10.09511038      14.13575876                           
Co      11.24339798      10.81617710      12.11636465                           
Co      11.24339798      12.25835357      14.13575876                           
Co       9.99413154       8.65294389      16.15515286                           
Co       9.99413154      10.09511038      18.17454697                           
Co      11.24339798      10.81617710      16.15515286                           
Co      11.24339798      12.25835357      18.17454697                           
Co       9.99413154       8.65294389      20.19394108                           
Co       9.99413154      10.09511038      22.21333519                           
Co      11.24339798      10.81617710      20.19394108                           
Co      11.24339798      12.25835357      22.21333519                           
Co       9.99413154      12.97941583       0.00000000                           
Co       9.99413154      14.42158232       2.01939411                           
Co      11.24339798      15.14264904       0.00000000                           
Co      11.24339798      16.58482551       2.01939411                           
Co       9.99413154      12.97941583       4.03878822                           
Co       9.99413154      14.42158232       6.05818233                           
Co      11.24339798      15.14264904       4.03878822                           
Co      11.24339798      16.58482551       6.05818233                           
Co       9.99413154      12.97941583       8.07757643                           
Co       9.99413154      14.42158232      10.09697054                           
Co      11.24339798      15.14264904       8.07757643                           
Co      11.24339798      16.58482551      10.09697054                           
Co       9.99413154      12.97941583      12.11636465                           
Co       9.99413154      14.42158232      14.13575876                           
Co      11.24339798      15.14264904      12.11636465                           
Co      11.24339798      16.58482551      14.13575876                           
Co       9.99413154      12.97941583      16.15515286                           
Co       9.99413154      14.42158232      18.17454697                           
Co      11.24339798      15.14264904      16.15515286                           
Co      11.24339798      16.58482551      18.17454697                           
Co       9.99413154      12.97941583      20.19394108                           
Co       9.99413154      14.42158232      22.21333519                           
Co      11.24339798      15.14264904      20.19394108                           
Co      11.24339798      16.58482551      22.21333519                           
Co       9.99413154      17.30588777       0.00000000                           
Co       9.99413154      18.74805426       2.01939411                           
Co      11.24339798      19.46912098       0.00000000                           
Co      11.24339798      20.91129745       2.01939411                           
Co       9.99413154      17.30588777       4.03878822                           
Co       9.99413154      18.74805426       6.05818233                           
Co      11.24339798      19.46912098       4.03878822                           
Co      11.24339798      20.91129745       6.05818233                           
Co       9.99413154      17.30588777       8.07757643                           
Co       9.99413154      18.74805426      10.09697054                           
Co      11.24339798      19.46912098       8.07757643                           
Co      11.24339798      20.91129745      10.09697054                           
Co       9.99413154      17.30588777      12.11636465                           
Co       9.99413154      18.74805426      14.13575876                           
Co      11.24339798      19.46912098      12.11636465                           
Co      11.24339798      20.91129745      14.13575876                           
Co       9.99413154      17.30588777      16.15515286                           
Co       9.99413154      18.74805426      18.17454697                           
Co      11.24339798      19.46912098      16.15515286                           
Co      11.24339798      20.91129745      18.17454697                           
Co       9.99413154      17.30588777      20.19394108                           
Co       9.99413154      18.74805426      22.21333519                           
Co      11.24339798      19.46912098      20.19394108                           
Co      11.24339798      20.91129745      22.21333519                           
Co       9.99413154      21.63235971       0.00000000                           
Co       9.99413154      23.07452620       2.01939411                           
Co      11.24339798      23.79559293       0.00000000                           
Co      11.24339798      25.23776940       2.01939411                           
Co       9.99413154      21.63235971       4.03878822                           
Co       9.99413154      23.07452620       6.05818233                           
Co      11.24339798      23.79559293       4.03878822                           
Co      11.24339798      25.23776940       6.05818233                           
Co       9.99413154      21.63235971       8.07757643                           
Co       9.99413154      23.07452620      10.09697054                           
Co      11.24339798      23.79559293       8.07757643                           
Co      11.24339798      25.23776940      10.09697054                           
Co       9.99413154      21.63235971      12.11636465                           
Co       9.99413154      23.07452620      14.13575876                           
Co      11.24339798      23.79559293      12.11636465                           
Co      11.24339798      25.23776940      14.13575876                           
Co       9.99413154      21.63235971      16.15515286                           
Co       9.99413154      23.07452620      18.17454697                           
Co      11.24339798      23.79559293      16.15515286                           
Co      11.24339798      25.23776940      18.17454697                           
Co       9.99413154      21.63235971      20.19394108                           
Co       9.99413154      23.07452620      22.21333519                           
Co      11.24339798      23.79559293      20.19394108                           
Co      11.24339798      25.23776940      22.21333519                           
Co      12.49266442       0.00000000       0.00000000                           
Co      12.49266442       1.44216649       2.01939411                           
Co      13.74193086       2.16323321       0.00000000                           
Co      13.74193086       3.60540968       2.01939411                           
Co      12.49266442       0.00000000       4.03878822                           
Co      12.49266442       1.44216649       6.05818233                           
Co      13.74193086       2.16323321       4.03878822                           
Co      13.74193086       3.60540968       6.05818233                           
Co      12.49266442       0.00000000       8.07757643                           
Co      12.49266442       1.44216649      10.09697054                           
Co      13.74193086       2.16323321       8.07757643                           
Co      13.74193086       3.60540968      10.09697054                           
Co      12.49266442       0.00000000      12.11636465                           
Co      12.49266442       1.44216649      14.13575876                           
Co      13.74193086       2.16323321      12.11636465                           
Co      13.74193086       3.60540968      14.13575876                           
Co      12.49266442       0.00000000      16.15515286                           
Co      12.49266442       1.44216649      18.17454697                           
Co      13.74193086       2.16323321      16.15515286                           
Co      13.74193086       3.60540968      18.17454697                           
Co      12.49266442       0.00000000      20.19394108                           
Co      12.49266442       1.44216649      22.21333519                           
Co      13.74193086       2.16323321      20.19394108                           
Co      13.74193086       3.60540968      22.21333519                           
Co      12.49266442       4.32647194       0.00000000                           
Co      12.49266442       5.76863843       2.01939411                           
Co      13.74193086       6.48970515       0.00000000                           
Co      13.74193086       7.93188162       2.01939411                           
Co      12.49266442       4.32647194       4.03878822                           
Co      12.49266442       5.76863843       6.05818233                           
Co      13.74193086       6.48970515       4.03878822                           
Co      13.74193086       7.93188162       6.05818233                           
Co      12.49266442       4.32647194       8.07757643                           
Co      12.49266442       5.76863843      10.09697054                           
Co      13.74193086       6.48970515       8.07757643                           
Co      13.74193086       7.93188162      10.09697054                           
Co      12.49266442       4.32647194      12.11636465                           
Co      12.49266442       5.76863843      14.13575876                           
Co      13.74193086       6.48970515      12.11636465                           
Co      13.74193086       7.93188162      14.13575876                           
Co      12.49266442       4.32647194      16.15515286                           
Co      12.49266442       5.76863843      18.17454697                           
Co      13.74193086       6.48970515      16.15515286                           
Co      13.74193086       7.93188162      18.17454697                           
Co      12.49266442       4.32647194      20.19394108                           
Co      12.49266442       5.76863843      22.21333519                           
Co      13.74193086       6.48970515      20.19394108                           
Co      13.74193086       7.93188162      22.21333519                           
Co      12.49266442       8.65294389       0.00000000                           
Co      12.49266442      10.09511038       2.01939411                           
Co      13.74193086      10.81617710       0.00000000                           
Co      13.74193086      12.25835357       2.01939411                           
Co      12.49266442       8.65294389       4.03878822                           
Co      12.49266442      10.09511038       6.05818233                           
Co      13.74193086      10.81617710       4.03878822                           
Co      13.74193086      12.25835357       6.05818233                           
Co      12.49266442       8.65294389       8.07757643                           
Co      12.49266442      10.09511038      10.09697054                           
Co      13.74193086      10.81617710       8.07757643                           
Co      13.74193086      12.25835357      10.09697054                           
Co      12.49266442       8.65294389      12.11636465                           
Co      12.49266442      10.09511038      14.13575876                           
Co      13.74193086      10.81617710      12.11636465                           
Co      13.74193086      12.25835357      14.13575876                           
Co      12.49266442       8.65294389      16.15515286                           
Co      12.49266442      10.09511038      18.17454697                           
Co      13.74193086      10.81617710      16.15515286                           
Co      13.74193086      12.25835357      18.17454697                           
Co      12.49266442       8.65294389      20.19394108                           
Co      12.49266442      10.09511038      22.21333519                           
Co      13.74193086      10.81617710      20.19394108                           
Co      13.74193086      12.25835357      22.21333519                           
Co      12.49266442      12.97941583       0.00000000                           
Co      12.49266442      14.42158232       2.01939411                           
Co      13.74193086      15.14264904       0.00000000                           
Co      13.74193086      16.58482551       2.01939411                           
Co      12.49266442      12.97941583       4.03878822                           
Co      12.49266442      14.42158232       6.05818233                           
Co      13.74193086      15.14264904       4.03878822                           
Co      13.74193086      16.58482551       6.05818233                           
Co      12.49266442      12.97941583       8.07757643                           
Co      12.49266442      14.42158232      10.09697054                           
Co      13.74193086      15.14264904       8.07757643                           
Co      13.74193086      16.58482551      10.09697054                           
Co      12.49266442      12.97941583      12.11636465                           
Co      12.49266442      14.42158232      14.13575876                           
Co      13.74193086      15.14264904      12.11636465                           
Co      13.74193086      16.58482551      14.13575876                           
Co      12.49266442      12.97941583      16.15515286                           
Co      12.49266442      14.42158232      18.17454697                           
Co      13.74193086      15.14264904      16.15515286                           
Co      13.74193086      16.58482551      18.17454697                           
Co      12.49266442      12.97941583      20.19394108                           
Co      12.49266442      14.42158232      22.21333519                           
Co      13.74193086      15.14264904      20.19394108                           
Co      13.74193086      16.58482551      22.21333519                           
Co      12.49266442      17.30588777       0.00000000                           
Co      12.49266442      18.74805426       2.01939411                           
Co      13.74193086      19.46912098       0.00000000                           
Co      13.74193086      20.91129745       2.01939411                           
Co      12.49266442      17.30588777       4.03878822                           
Co      12.49266442      18.74805426       6.05818233                           
Co      13.74193086      19.46912098       4.03878822                           
Co      13.74193086      20.91129745       6.05818233                           
Co      12.49266442      17.30588777       8.07757643                           
Co      12.49266442      18.74805426      10.09697054                           
Co      13.74193086      19.46912098       8.07757643                           
Co      13.74193086      20.91129745      10.09697054                           
Co      12.49266442      17.30588777      12.11636465                           
Co      12.49266442      18.74805426      14.13575876                           
Co      13.74193086      19.46912098      12.11636465                           
Co      13.74193086      20.91129745      14.13575876                           
Co      12.49266442      17.30588777      16.15515286                           
Co      12.49266442      18.74805426      18.17454697                           
Co      13.74193086      19.46912098      16.15515286                           
Co      13.74193086      20.91129745      18.17454697                           
Co      12.49266442      17.30588777      20.19394108                           
Co      12.49266442      18.74805426      22.21333519                           
Co      13.74193086      19.46912098      20.19394108                           
Co      13.74193086      20.91129745      22.21333519                           
Co      12.49266442      21.63235971       0.00000000                           
Co      12.49266442      23.07452620       2.01939411                           
Co      13.74193086      23.79559293       0.00000000                           
Co      13.74193086      25.23776940       2.01939411                           
Co      12.49266442      21.63235971       4.03878822                           
Co      12.49266442      23.07452620       6.05818233                           
Co      13.74193086      23.79559293       4.03878822                           
Co      13.74193086      25.23776940       6.05818233                           
Co      12.49266442      21.63235971       8.07757643                           
Co      12.49266442      23.07452620      10.09697054                           
[...]
     [H,K] commutator            =   7.8226E-06
     ~~~~~~~~~~~~~~~~~~~~~~~~~~~~~~~~~~~~~~~~~~~~~~~~~~~~~~~~~~~




################################################################################
########################### NGWF CG iteration  017 #############################
################################################################################

>>> Checking for convergence of NGWFs:   NOT CONVERGED
  ========================================================================
         NGWF RMS gradient =  1.5646E-06 >  1.0000E-07  | above tolerance
  ========================================================================

>>> Improving NGWFs using line search:
  ========================================================================
   Predicted total energy    =      -1.26495759526406E+05 Eh
   Predicted gain in energy  =      -7.75864464230835E-07 Eh
  ========================================================================

Writing NGWFs to file "Co.tightbox_ngwfs".... done

>>> Optimising kernel for current NGWFs:

--------------------------- Ensemble-DFT optimisation --------------------------
Running ScaLAPACK on  320 processor(s).
With smearing scheme: FERMIDIRAC                                                                      

--------------------------------------------------------------------------------
  Iter                              Commutator    Free_energy(A=E-TS)     DeltaA
#    0                          0.000007825667   -126495.759526510097  -8.80E-07
#    1                          0.000010026216   -126495.760215237780  -6.89E-04
#    2                          0.000007632180   -126495.760916296276  -7.01E-04
EDFT occupancies loop converged after    2 iterations.


Writing density kernel to file "Co.dkn" ... done

Writing Hamiltonian to file "Co.ham" ... done


>>> Density kernel optimised for the current NGWF basis:
     ~~~~~~~~~~~~~~~~~~~~~~~~~~~~~~~~~~~~~~~~~~~~~~~~~~~~~~~~~~~
     Total free energy           =  -1.26495760916296E+05  Eh
     [H,K] commutator            =   7.6322E-06
     ~~~~~~~~~~~~~~~~~~~~~~~~~~~~~~~~~~~~~~~~~~~~~~~~~~~~~~~~~~~




################################################################################
########################### NGWF CG iteration  018 #############################
################################################################################

>>> Checking for convergence of NGWFs:   NOT CONVERGED
  ========================================================================
         NGWF RMS gradient =  1.7670E-06 >  1.0000E-07  | above tolerance
  ========================================================================

>>> Improving NGWFs using line search:
  ========================================================================
   Predicted total energy    =      -1.26495760918482E+05 Eh
   Predicted gain in energy  =      -2.18619243241847E-06 Eh
  ========================================================================

Writing NGWFs to file "Co.tightbox_ngwfs".... done

>>> Optimising kernel for current NGWFs:

--------------------------- Ensemble-DFT optimisation --------------------------
Running ScaLAPACK on  320 processor(s).
With smearing scheme: FERMIDIRAC                                                                      

--------------------------------------------------------------------------------
  Iter                              Commutator    Free_energy(A=E-TS)     DeltaA
#    0                          0.000007639803   -126495.760918767322  -2.47E-06
#    1                          0.000009895295   -126495.761586475986  -6.68E-04
EDFT occupancies loop converged after    1 iterations.


Writing density kernel to file "Co.dkn" ... done

Writing Hamiltonian to file "Co.ham" ... done


>>> Density kernel optimised for the current NGWF basis:
     ~~~~~~~~~~~~~~~~~~~~~~~~~~~~~~~~~~~~~~~~~~~~~~~~~~~~~~~~~~~
     Total free energy           =  -1.26495761586476E+05  Eh
     [H,K] commutator            =   9.8953E-06
     ~~~~~~~~~~~~~~~~~~~~~~~~~~~~~~~~~~~~~~~~~~~~~~~~~~~~~~~~~~~




################################################################################
########################### NGWF CG iteration  019 #############################
################################################################################

>>> Checking for convergence of NGWFs:   NOT CONVERGED
  ========================================================================
         NGWF RMS gradient =  1.4803E-06 >  1.0000E-07  | above tolerance
  ========================================================================

>>> Improving NGWFs using line search:
  ========================================================================
   Predicted total energy    =      -1.26495761588344E+05 Eh
   Predicted gain in energy  =      -1.86805846169591E-06 Eh
  ========================================================================

Writing NGWFs to file "Co.tightbox_ngwfs".... done

>>> Optimising kernel for current NGWFs:

--------------------------- Ensemble-DFT optimisation --------------------------
Running ScaLAPACK on  320 processor(s).
With smearing scheme: FERMIDIRAC                                                                      

--------------------------------------------------------------------------------
  Iter                              Commutator    Free_energy(A=E-TS)     DeltaA
#    0                          0.000009905761   -126495.761588450652  -1.97E-06
#    1                          0.000007518843   -126495.762247399689  -6.59E-04
EDFT occupancies loop converged after    1 iterations.


Writing density kernel to file "Co.dkn" ... done

Writing Hamiltonian to file "Co.ham" ... done


>>> Density kernel optimised for the current NGWF basis:
     ~~~~~~~~~~~~~~~~~~~~~~~~~~~~~~~~~~~~~~~~~~~~~~~~~~~~~~~~~~~
     Total free energy           =  -1.26495762247400E+05  Eh
     [H,K] commutator            =   7.5188E-06
     ~~~~~~~~~~~~~~~~~~~~~~~~~~~~~~~~~~~~~~~~~~~~~~~~~~~~~~~~~~~




################################################################################
########################### NGWF CG iteration  020 #############################
################################################################################

>>> Checking for convergence of NGWFs:   NOT CONVERGED
  ========================================================================
         NGWF RMS gradient =  9.7351E-07 >  1.0000E-07  | above tolerance
  ========================================================================

>>> Improving NGWFs using line search:
  ========================================================================
   Predicted total energy    =      -1.26495762247980E+05 Eh
   Predicted gain in energy  =      -5.80330379307270E-07 Eh
  ========================================================================

Writing NGWFs to file "Co.tightbox_ngwfs".... done

>>> Optimising kernel for current NGWFs:

--------------------------- Ensemble-DFT optimisation --------------------------
Running ScaLAPACK on  320 processor(s).
With smearing scheme: FERMIDIRAC                                                                      

--------------------------------------------------------------------------------
  Iter                              Commutator    Free_energy(A=E-TS)     DeltaA
#    0                          0.000007522141   -126495.762248020910  -6.21E-07
#    1                          0.000009543130   -126495.762863287266  -6.15E-04
EDFT occupancies loop converged after    1 iterations.


Writing density kernel to file "Co.dkn" ... done

Writing Hamiltonian to file "Co.ham" ... done


>>> Density kernel optimised for the current NGWF basis:
     ~~~~~~~~~~~~~~~~~~~~~~~~~~~~~~~~~~~~~~~~~~~~~~~~~~~~~~~~~~~
     Total free energy           =  -1.26495762863287E+05  Eh
     [H,K] commutator            =   9.5431E-06
     ~~~~~~~~~~~~~~~~~~~~~~~~~~~~~~~~~~~~~~~~~~~~~~~~~~~~~~~~~~~




################################################################################
########################### NGWF CG iteration  021 #############################
################################################################################

>>> Checking for convergence of NGWFs:   NOT CONVERGED
  ========================================================================
         NGWF RMS gradient =  8.4689E-07 >  1.0000E-07  | above tolerance
  ========================================================================

>>> Improving NGWFs using line search:
  ========================================================================
   Predicted total energy    =      -1.26495762864217E+05 Eh
   Predicted gain in energy  =      -9.29750967770815E-07 Eh
  ========================================================================

Writing NGWFs to file "Co.tightbox_ngwfs".... done

>>> Optimising kernel for current NGWFs:

--------------------------- Ensemble-DFT optimisation --------------------------
Running ScaLAPACK on  320 processor(s).
With smearing scheme: FERMIDIRAC                                                                      

--------------------------------------------------------------------------------
  Iter                              Commutator    Free_energy(A=E-TS)     DeltaA
#    0                          0.000009549907   -126495.762864196426  -9.09E-07
#    1                          0.000007402080   -126495.763466240896  -6.02E-04
EDFT occupancies loop converged after    1 iterations.


Writing density kernel to file "Co.dkn" ... done

Writing Hamiltonian to file "Co.ham" ... done


>>> Density kernel optimised for the current NGWF basis:
     ~~~~~~~~~~~~~~~~~~~~~~~~~~~~~~~~~~~~~~~~~~~~~~~~~~~~~~~~~~~
     Total free energy           =  -1.26495763466241E+05  Eh
     [H,K] commutator            =   7.4021E-06
     ~~~~~~~~~~~~~~~~~~~~~~~~~~~~~~~~~~~~~~~~~~~~~~~~~~~~~~~~~~~




################################################################################
########################### NGWF CG iteration  022 #############################
################################################################################

>>> Checking for convergence of NGWFs:   NOT CONVERGED
  ========================================================================
         NGWF RMS gradient =  1.9510E-07 >  1.0000E-07  | above tolerance
  ========================================================================

>>> Improving NGWFs using line search:
  ========================================================================
   Predicted total energy    =      -1.26495763466241E+05 Eh
   Predicted gain in energy  =       0.00000000000000E+00 Eh
  ========================================================================

Writing NGWFs to file "Co.tightbox_ngwfs".... done

>>> Optimising kernel for current NGWFs:

--------------------------- Ensemble-DFT optimisation --------------------------
Running ScaLAPACK on  320 processor(s).
With smearing scheme: FERMIDIRAC                                                                      

--------------------------------------------------------------------------------
  Iter                              Commutator    Free_energy(A=E-TS)     DeltaA
#    0                          0.000007402079   -126495.763466240838   5.82E-11
#    1                          0.000009072901   -126495.764004670025  -5.38E-04
EDFT occupancies loop converged after    1 iterations.


Writing density kernel to file "Co.dkn" ... done

Writing Hamiltonian to file "Co.ham" ... done


>>> Density kernel optimised for the current NGWF basis:
     ~~~~~~~~~~~~~~~~~~~~~~~~~~~~~~~~~~~~~~~~~~~~~~~~~~~~~~~~~~~
     Total free energy           =  -1.26495764004670E+05  Eh
     [H,K] commutator            =   9.0729E-06
     ~~~~~~~~~~~~~~~~~~~~~~~~~~~~~~~~~~~~~~~~~~~~~~~~~~~~~~~~~~~




################################################################################
########################### NGWF CG iteration  023 #############################
################################################################################

>>> Checking for convergence of NGWFs:   NOT CONVERGED
  ========================================================================
         NGWF RMS gradient =  3.4460E-07 >  1.0000E-07  | above tolerance
  ========================================================================

>>> Improving NGWFs using line search:
  ========================================================================
   Predicted total energy    =      -1.26495764004734E+05 Eh
   Predicted gain in energy  =      -6.39702193439007E-08 Eh
  ========================================================================

Writing NGWFs to file "Co.tightbox_ngwfs".... done

>>> Optimising kernel for current NGWFs:

--------------------------- Ensemble-DFT optimisation --------------------------
Running ScaLAPACK on  320 processor(s).
With smearing scheme: FERMIDIRAC                                                                      

--------------------------------------------------------------------------------
  Iter                              Commutator    Free_energy(A=E-TS)     DeltaA
#    0                          0.000009073276   -126495.764004734752  -6.47E-08
#    1                          0.000007276892   -126495.764546309016  -5.42E-04
EDFT occupancies loop converged after    1 iterations.


Writing density kernel to file "Co.dkn" ... done

Writing Hamiltonian to file "Co.ham" ... done


>>> Density kernel optimised for the current NGWF basis:
     ~~~~~~~~~~~~~~~~~~~~~~~~~~~~~~~~~~~~~~~~~~~~~~~~~~~~~~~~~~~
     Total free energy           =  -1.26495764546309E+05  Eh
     [H,K] commutator            =   7.2769E-06
     ~~~~~~~~~~~~~~~~~~~~~~~~~~~~~~~~~~~~~~~~~~~~~~~~~~~~~~~~~~~




################################################################################
########################### NGWF CG iteration  024 #############################
################################################################################

>>> Checking for convergence of NGWFs:   NOT CONVERGED
  ========================================================================
         NGWF RMS gradient =  9.4188E-07 >  1.0000E-07  | above tolerance
  ========================================================================

>>> Improving NGWFs using line search:
  ========================================================================
   Predicted total energy    =      -1.26495764546461E+05 Eh
   Predicted gain in energy  =      -1.52474967762828E-07 Eh
  ========================================================================

Writing NGWFs to file "Co.tightbox_ngwfs".... done

>>> Optimising kernel for current NGWFs:

--------------------------- Ensemble-DFT optimisation --------------------------
Running ScaLAPACK on  320 processor(s).
With smearing scheme: FERMIDIRAC                                                                      

--------------------------------------------------------------------------------
  Iter                              Commutator    Free_energy(A=E-TS)     DeltaA
#    0                          0.000007277663   -126495.764546474180  -1.65E-07
#    1                          0.000008538850   -126495.764990992247  -4.45E-04
EDFT occupancies loop converged after    1 iterations.


Writing density kernel to file "Co.dkn" ... done

Writing Hamiltonian to file "Co.ham" ... done


>>> Density kernel optimised for the current NGWF basis:
     ~~~~~~~~~~~~~~~~~~~~~~~~~~~~~~~~~~~~~~~~~~~~~~~~~~~~~~~~~~~
     Total free energy           =  -1.26495764990992E+05  Eh
     [H,K] commutator            =   8.5389E-06
     ~~~~~~~~~~~~~~~~~~~~~~~~~~~~~~~~~~~~~~~~~~~~~~~~~~~~~~~~~~~




################################################################################
########################### NGWF CG iteration  025 #############################
################################################################################

>>> Checking for convergence of NGWFs:   NOT CONVERGED
  ========================================================================
         NGWF RMS gradient =  7.5865E-07 >  1.0000E-07  | above tolerance
  ========================================================================

>>> Improving NGWFs using line search:
  ========================================================================
   Predicted total energy    =      -1.26495764991260E+05 Eh
   Predicted gain in energy  =      -2.67347786575556E-07 Eh
  ========================================================================

Writing NGWFs to file "Co.tightbox_ngwfs".... done

>>> Optimising kernel for current NGWFs:

--------------------------- Ensemble-DFT optimisation --------------------------
Running ScaLAPACK on  320 processor(s).
With smearing scheme: FERMIDIRAC                                                                      

--------------------------------------------------------------------------------
  Iter                              Commutator    Free_energy(A=E-TS)     DeltaA
#    0                          0.000008540699   -126495.764991267832  -2.76E-07
#    1                          0.000007200875   -126495.765438656366  -4.47E-04
EDFT occupancies loop converged after    1 iterations.


Writing density kernel to file "Co.dkn" ... done

Writing Hamiltonian to file "Co.ham" ... done


>>> Density kernel optimised for the current NGWF basis:
     ~~~~~~~~~~~~~~~~~~~~~~~~~~~~~~~~~~~~~~~~~~~~~~~~~~~~~~~~~~~
     Total free energy           =  -1.26495765438656E+05  Eh
     [H,K] commutator            =   7.2009E-06
     ~~~~~~~~~~~~~~~~~~~~~~~~~~~~~~~~~~~~~~~~~~~~~~~~~~~~~~~~~~~




################################################################################
########################### NGWF CG iteration  026 #############################
################################################################################

>>> Checking for convergence of NGWFs:   NOT CONVERGED
  ========================================================================
         NGWF RMS gradient =  1.0930E-06 >  1.0000E-07  | above tolerance
  ========================================================================

>>> Improving NGWFs using line search:
  ========================================================================
   Predicted total energy    =      -1.26495765439033E+05 Eh
   Predicted gain in energy  =      -3.76967363990843E-07 Eh
  ========================================================================

Writing NGWFs to file "Co.tightbox_ngwfs".... done

>>> Optimising kernel for current NGWFs:

--------------------------- Ensemble-DFT optimisation --------------------------
Running ScaLAPACK on  320 processor(s).
With smearing scheme: FERMIDIRAC                                                                      

--------------------------------------------------------------------------------
  Iter                              Commutator    Free_energy(A=E-TS)     DeltaA
#    0                          0.000007202465   -126495.765439070514  -4.14E-07
#    1                          0.000008100165   -126495.765812276499  -3.73E-04
EDFT occupancies loop converged after    1 iterations.


Writing density kernel to file "Co.dkn" ... done

Writing Hamiltonian to file "Co.ham" ... done


>>> Density kernel optimised for the current NGWF basis:
     ~~~~~~~~~~~~~~~~~~~~~~~~~~~~~~~~~~~~~~~~~~~~~~~~~~~~~~~~~~~
     Total free energy           =  -1.26495765812276E+05  Eh
     [H,K] commutator            =   8.1002E-06
     ~~~~~~~~~~~~~~~~~~~~~~~~~~~~~~~~~~~~~~~~~~~~~~~~~~~~~~~~~~~




################################################################################
########################### NGWF CG iteration  027 #############################
################################################################################


onetep_launcher: !!! ONETEP finished with an error

************************************************
*** onetep_launcher terminated               ***
************************************************
