==================================================================================
It's Tue 22 Oct 2024 09:46:01 AM BST.
*** Starting onetep_launcher (node nid003142, PIDs 68379 68380 68381 68382 68383 68384 68385 68386)...
    - ONETEP arguments: U_0_0.2.dat
    - Current directory: /mnt/lustre/a2fs-work3/work/e89/e89/phsmea/J_det/U_0_0.2
    - Launcher executable directory: /mnt/lustre/a2fs-work3/work/e89/e89/phsmea/J_det/U_0_0.2
    - (-e) ONETEP executable specified through command-line: /work/e89/e89/phsmea/onetep.archer2_2024_cray
      ... trying /work/e89/e89/phsmea/onetep.archer2_2024_cray
          -> looks OK
*** Setting up environment...
    - (-s) Process stack size: unlimited
    - (-t) OMP_NUM_THREADS: 16
    - (-o) OMP_STACKSIZE: 64M
    - (-c) Maximum core file size: 2048000
    - (-d) decfort_dump_flag: n
    - (-m) I_MPI_OFA_TRANSLATION_CACHE: 0
    - (-m) I_MPI_DAPL_TRANSLATION_CACHE: 0
    - (-m) I_MPI_DAPL_UD_TRANSLATION_CACHE: 0
*** Starting ONETEP...
    - /work/e89/e89/phsmea/onetep.archer2_2024_cray U_0_0.2.dat
=================================================================================
_________________________________________________________________________________
 +---------------------------------------------------------------+
 |                                                               |
 |        ####### #     # ####### ####### ####### ######         |
 |        #     # ##    # #          #    #       #     #        |
 |        #     # # #   # #          #    #       #     #        |
 |        #     # #  #  # #####      #    #####   ######         |
 |        #     # #   # # #          #    #       #              |
 |        #     # #    ## #          #    #       #              |
 |        ####### #     # #######    #    ####### #              |
 |                                                               |
 |        Linear-Scaling Ab Initio Total Energy Program          |
 |                                                               |
 |          Release for academic collaborators of ODG            |
 |                                             Version 7.3.0     |
 | Remote: git@github.com:Miesaz/onetep_mea.git                  |
 | Local branch: master                                          |
 | Commit ID: 4af45e89288c8df5499704252eec3e032ee3d0c8           |
 | Date: Tue Aug 6 11:28:44 2024 +0100                           |
 | Working tree clean                                            |
 |                                                               |
 +---------------------------------------------------------------+
 |                                                               |
 |  Authors:                                                     |
 |  Jacek Dziedzic, Peter D. Haynes, Nicholas D. M. Hine,        |
 |  Arash A. Mostofi, Mike C. Payne and Chris-Kriton Skylaris    |
 |                                                               |
 |  Contributors:                                                |
 |  J. Aarons, L. Andrinopoulos, P. W. Avraam, R. A. Bell,       |
 |  A. Bhandari, G. A. Bramley, R. J. Charlton, S. J. Clark,     |
 |  R. J. Clements, G. C. Constantinescu, F. Corsetti,           |
 |  N. Corsini, O. Dieguez, S. M. M. Dubois, K. K. B. Duff,      |
 |  J. M. Escartin, M. Escobar Azor, A. Greco,                   |
 |  H. Helal, Q. O. Hill, L. P. Lee, J.-H. Li,                   |
 |  T. Li, E. B. Linscott, G. Moynihan, D. D. O`Regan,           |
 |  O. K. Okan, E. Parkinson, M. J. S. Phipps,                   |
 |  C. J. Pickard, J. C. A. Prentice, M. I. J. Probert,          |
 |  L. E. Ratcliff, M. Robinson, A. Ruiz Serrano,                |
 |  M. dos Santos Dias, J. S. Spencer, E. W. Tait,               |
 |  G. Teobaldi, D. Turban, V. Vitale, K. A. Wilkinson,          |
 |  C. Weber, J. C. Womack, Chengcheng Xiao, N. Yeung,           |
 |  and T. J. Zuehlsdorff.                                       |
 |                                                               |
 |                                   Copyright (c) 2004-2024     |
 |                                                               |
 |  Please cite:                                                 |
 |  "The ONETEP linear-scaling density functional theory program"|
 |   J. Chem. Phys. 152(17) 174111 (2020)                        |
 |                                                               |
 |          in all publications arising from your use of ONETEP. |
 |                                                               |
 +---------------------------------------------------------------+
 |                                                               |
 |   ONETEP is based on developments described in the following  |
 |   publications:                                               |
 |                                                               |
 |  "Nonorthogonal generalized Wannier function pseudopotential  |
 |   plane-wave method".                                         |
 |   C.-K. Skylaris, A. A. Mostofi, P. D. Haynes, O. Dieguez,    |
 |   M. C. Payne.                                                |
 |   Phys. Rev. B 66 035119 (2002).                              |
 |                                                               |
 |  "Preconditioned iterative minimization for linear-scaling    |
 |   electronic structure calculations".                         |
 |   A. A. Mostofi, P. D. Haynes, C.-K. Skylaris, M. C. Payne.   |
 |   J. Chem. Phys. 119(17), pp.8842-8848 (2003).                |
 |                                                               |
 |  "Total-energy calculations on a real space grid with         |
 |   localized functions and a plane-wave basis".                |
 |   A. A. Mostofi, C.-K. Skylaris, P. D. Haynes, M. C. Payne.   |
 |   Comput. Phys. Commun. 147, pp.788-802 (2002).               |
 |                                                               |
 |  "Accurate kinetic energy evaluation in electronic structure  |
 |   calculations with localized functions on real space grids"  |
 |   C.-K. Skylaris, A. A. Mostofi, P. D. Haynes, C. J. Pickard, |
 |   M. C. Payne.                                                |
 |   Comput. Phys. Commun. 140, pp.315-322 (2001).               |
 |                                                               |
 |  "Accurate ionic forces and geometry optimization in linear-  |
 |   scaling density-functional theory with local orbitals"      |
 |   N. D. M. Hine, M. Robinson, P. D. Haynes, C.-K. Skylaris,   |
 |   M. C. Payne, and A. A. Mostofi.                             |
 |   Phys. Rev. B 83 195102 (2011).                              |
 |                                                               |
 +---------------------------------------------------------------+

Job started: 22-10-2024 09:46 (+0100)
 
Reading parameters from file "U_0_0.2.dat" ...
WARNING in get_rundat: hubbard_calculating_u is TRUE, so do_properties will be
overridden to TRUE.
... done

If your calculation crashes here, before "Checking processes and threads..."
is displayed, then your stack size is insufficient.
If so, use "ulimit -s unlimited" at runtime.
You can disable this check with "check_stack_size F".

Checking processes and threads...
   Running with 56 MPI processes.
   There are 8 MPI processes running on the same node as the root process.
   Each MPI process is using: 
               1 threads for simulation cell FFTs.
               1 threads for threaded FFT box operations.
              16 threads for loops over batched FFT box operations.
              16 threads in other parallel regions.
   MPI Interface: S1 (use mpi_f08) (-DMPI -DUSE_MPI_F08).
   MPI_ASYNC_PROTECTS_NONBLOCKING: Yes. MPI_SUBARRAYS_SUPPORTED: Yes.
   FFTW Interface: OMP-capable and MODERN. (-DUSE_MODERN_FFTW specified).
   GPU Interface: None.
   GPU FFT Backend: None.
... done

Basic input checks...... done

Reading geometry and species blocks from file "U_0_0.2.dat" ...... done


--------------------------------------------------------------------------------
---------------------------------- INPUT FILE ----------------------------------
--------------------------------------------------------------------------------

charge : 0                                                                      
cutoff_energy : 1000 eV                                                         
do_properties : T                                                               
edft : F                                                                        
edft_init_maxit : 5                                                             
elec_energy_tol : 2e-07 Ha                                                      
fine_grid_scale : 4                                                             
forces_output_detail : VERBOSE                                                  
hubbard_calculating_u : T                                                       
maxit_ngwf_cg : 100                                                             
ngwf_threshold_orig : 1e-06                                                     
output_detail : BRIEF                                                           
paw : T                                                                         
spin_polarized : T                                                              
ngwfs_spin_polarized : T                                                        
read_denskern : F                                                               
read_hamiltonian : F                                                            
read_tightbox_ngwfs : F                                                         
spin : 216                                                                      
task : SinglePoint                                                              
write_denskern : T                                                              
write_forces : T                                                                
write_hamiltonian : T                                                           
write_tightbox_ngwfs : T                                                        
xc_functional : PBE                                                             
%BLOCK LATTICE_CART                                                             
ang                                                                             
41.261892132    0.000000000     0.000000000                                     
-20.630946066   35.733846792     0.000000000                                    
0.0000000000    0.000000000    17.192455055                                     
%ENDBLOCK LATTICE_CART                                                          
%BLOCK POSITIONS_ABS                                                            
ang                                                                             
Cr       3.43849101       1.98521371       9.03176873                           
Cr       0.00000000       3.97042742       9.03176919                           
I        4.42260340      -0.00001318       7.48054615                           
I        1.22717790       2.12556082       7.48054615                           
I       -2.21129029       3.83009349       7.48054615                           
I        2.45437873      -0.00001140      10.58299027                           
I        2.21129177       3.83009250      10.58299027                           
I       -1.22717949       2.12556004      10.58299027                           
Cr       0.00000000       7.94085485       9.03176873                           
Cr      -3.43849101       9.92606855       9.03176919                           
I        0.98411239       5.95562795       7.48054615                           
I       -2.21131311       8.08120195       7.48054615                           
I       -5.64978130       9.78573462       7.48054615                           
I       -0.98411228       5.95562973      10.58299027                           
I       -1.22719924       9.78573363      10.58299027                           
I       -4.66567050       8.08120117      10.58299027                           
Cr      -3.43849101      13.89649598       9.03176873                           
Cr      -6.87698202      15.88170968       9.03176919                           
I       -2.45437862      11.91126909       7.48054615                           
I       -5.64980412      14.03684309       7.48054615                           
I       -9.08827231      15.74137575       7.48054615                           
I       -4.42260329      11.91127086      10.58299027                           
I       -4.66569025      15.74137476      10.58299027                           
I       -8.10416151      14.03684230      10.58299027                           
Cr      10.31547303       1.98521371       9.03176873                           
Cr       6.87698202       3.97042742       9.03176919                           
I       11.29958542      -0.00001318       7.48054615                           
I        8.10415992       2.12556082       7.48054615                           
I        4.66569173       3.83009349       7.48054615                           
I        9.33136075      -0.00001140      10.58299027                           
I        9.08827380       3.83009250      10.58299027                           
I        5.64980253       2.12556004      10.58299027                           
Cr       6.87698202       7.94085485       9.03176873                           
Cr       3.43849101       9.92606855       9.03176919                           
I        7.86109441       5.95562795       7.48054615                           
I        4.66566891       8.08120195       7.48054615                           
I        1.22720072       9.78573462       7.48054615                           
I        5.89286974       5.95562973      10.58299027                           
I        5.64978278       9.78573363      10.58299027                           
I        2.21131152       8.08120117      10.58299027                           
Cr       3.43849101      13.89649598       9.03176873                           
Cr       0.00000000      15.88170968       9.03176919                           
I        4.42260340      11.91126909       7.48054615                           
I        1.22717790      14.03684309       7.48054615                           
I       -2.21129029      15.74137575       7.48054615                           
I        2.45437873      11.91127086      10.58299027                           
I        2.21129177      15.74137476      10.58299027                           
I       -1.22717949      14.03684230      10.58299027                           
Cr      17.19245505       1.98521371       9.03176873                           
Cr      13.75396404       3.97042742       9.03176919                           
I       18.17656744      -0.00001318       7.48054615                           
I       14.98114195       2.12556082       7.48054615                           
I       11.54267375       3.83009349       7.48054615                           
I       16.20834277      -0.00001140      10.58299027                           
I       15.96525582       3.83009250      10.58299027                           
I       12.52678455       2.12556004      10.58299027                           
Cr      13.75396404       7.94085485       9.03176873                           
Cr      10.31547303       9.92606855       9.03176919                           
I       14.73807643       5.95562795       7.48054615                           
I       11.54265094       8.08120195       7.48054615                           
I        8.10418274       9.78573462       7.48054615                           
I       12.76985176       5.95562973      10.58299027                           
I       12.52676481       9.78573363      10.58299027                           
I        9.08829354       8.08120117      10.58299027                           
Cr      10.31547303      13.89649598       9.03176873                           
Cr       6.87698202      15.88170968       9.03176919                           
I       11.29958542      11.91126909       7.48054615                           
I        8.10415992      14.03684309       7.48054615                           
I        4.66569173      15.74137575       7.48054615                           
I        9.33136075      11.91127086      10.58299027                           
I        9.08827380      15.74137476      10.58299027                           
I        5.64980253      14.03684230      10.58299027                           
Cr      -6.87698202      19.85213711       9.03176873                           
Cr     -10.31547303      21.83735082       9.03176919                           
I       -5.89286963      17.86691022       7.48054615                           
I       -9.08829513      19.99248422       7.48054615                           
I      -12.52676332      21.69701689       7.48054615                           
I       -7.86109430      17.86691200      10.58299027                           
I       -8.10418126      21.69701590      10.58299027                           
I      -11.54265252      19.99248344      10.58299027                           
Cr     -10.31547303      25.80777825       9.03176873                           
Cr     -13.75396404      27.79299195       9.03176919                           
I       -9.33136064      23.82255135       7.48054615                           
I      -12.52678614      25.94812535       7.48054615                           
I      -15.96525433      27.65265802       7.48054615                           
I      -11.29958531      23.82255313      10.58299027                           
I      -11.54267227      27.65265703      10.58299027                           
I      -14.98114353      25.94812457      10.58299027                           
Cr     -13.75396404      31.76341938       9.03176873                           
Cr     -17.19245505      33.74863308       9.03176919                           
I      -12.76985165      29.77819249       7.48054615                           
I      -15.96527715      31.90376649       7.48054615                           
I      -19.40374534      33.60829915       7.48054615                           
I      -14.73807632      29.77819426      10.58299027                           
I      -14.98116328      33.60829816      10.58299027                           
I      -18.41963454      31.90376570      10.58299027                           
Cr      -0.00000000      19.85213711       9.03176873                           
Cr      -3.43849101      21.83735082       9.03176919                           
I        0.98411239      17.86691022       7.48054615                           
I       -2.21131311      19.99248422       7.48054615                           
I       -5.64978130      21.69701689       7.48054615                           
I       -0.98411228      17.86691200      10.58299027                           
I       -1.22719923      21.69701590      10.58299027                           
I       -4.66567050      19.99248344      10.58299027                           
Cr      -3.43849101      25.80777825       9.03176873                           
Cr      -6.87698202      27.79299195       9.03176919                           
I       -2.45437862      23.82255135       7.48054615                           
I       -5.64980412      25.94812535       7.48054615                           
I       -9.08827231      27.65265802       7.48054615                           
I       -4.42260329      23.82255313      10.58299027                           
I       -4.66569025      27.65265703      10.58299027                           
I       -8.10416151      25.94812457      10.58299027                           
Cr      -6.87698202      31.76341938       9.03176873                           
Cr     -10.31547303      33.74863308       9.03176919                           
I       -5.89286963      29.77819249       7.48054615                           
I       -9.08829513      31.90376649       7.48054615                           
I      -12.52676332      33.60829915       7.48054615                           
I       -7.86109430      29.77819426      10.58299027                           
I       -8.10418126      33.60829816      10.58299027                           
I      -11.54265252      31.90376570      10.58299027                           
CrU       6.87698202      19.85213711       9.03176873                          
Cr       3.43849101      21.83735082       9.03176919                           
I        7.86109441      17.86691022       7.48054615                           
I        4.66566892      19.99248422       7.48054615                           
I        1.22720072      21.69701689       7.48054615                           
I        5.89286974      17.86691200      10.58299027                           
I        5.64978279      21.69701590      10.58299027                           
I        2.21131152      19.99248344      10.58299027                           
Cr       3.43849101      25.80777825       9.03176873                           
Cr      -0.00000000      27.79299195       9.03176919                           
I        4.42260340      23.82255135       7.48054615                           
I        1.22717791      25.94812535       7.48054615                           
I       -2.21129029      27.65265802       7.48054615                           
I        2.45437873      23.82255313      10.58299027                           
I        2.21129178      27.65265703      10.58299027                           
I       -1.22717949      25.94812457      10.58299027                           
Cr      -0.00000000      31.76341938       9.03176873                           
Cr      -3.43849101      33.74863308       9.03176919                           
I        0.98411239      29.77819249       7.48054615                           
I       -2.21131311      31.90376649       7.48054615                           
I       -5.64978130      33.60829915       7.48054615                           
I       -0.98411228      29.77819426      10.58299027                           
I       -1.22719923      33.60829816      10.58299027                           
I       -4.66567050      31.90376570      10.58299027                           
Cr      24.06943708       1.98521371       9.03176873                           
Cr      20.63094607       3.97042742       9.03176919                           
I       25.05354947      -0.00001318       7.48054615                           
I       21.85812397       2.12556082       7.48054615                           
I       18.41965578       3.83009349       7.48054615                           
I       23.08532480      -0.00001140      10.58299027                           
I       22.84223784       3.83009250      10.58299027                           
I       19.40376658       2.12556004      10.58299027                           
Cr      20.63094607       7.94085485       9.03176873                           
Cr      17.19245506       9.92606855       9.03176919                           
I       21.61505846       5.95562795       7.48054615                           
I       18.41963296       8.08120195       7.48054615                           
I       14.98116477       9.78573462       7.48054615                           
I       19.64683379       5.95562973      10.58299027                           
I       19.40374683       9.78573363      10.58299027                           
I       15.96527557       8.08120117      10.58299027                           
Cr      17.19245506      13.89649598       9.03176873                           
Cr      13.75396405      15.88170968       9.03176919                           
I       18.17656745      11.91126909       7.48054615                           
I       14.98114195      14.03684309       7.48054615                           
I       11.54267376      15.74137575       7.48054615                           
I       16.20834278      11.91127086      10.58299027                           
I       15.96525582      15.74137476      10.58299027                           
I       12.52678456      14.03684230      10.58299027                           
Cr      30.94641910       1.98521371       9.03176873                           
Cr      27.50792809       3.97042742       9.03176919                           
I       31.93053149      -0.00001318       7.48054615                           
I       28.73510599       2.12556082       7.48054615                           
I       25.29663780       3.83009349       7.48054615                           
I       29.96230682      -0.00001140      10.58299027                           
I       29.71921987       3.83009250      10.58299027                           
I       26.28074860       2.12556004      10.58299027                           
Cr      27.50792809       7.94085485       9.03176873                           
Cr      24.06943708       9.92606855       9.03176919                           
I       28.49204048       5.95562795       7.48054615                           
I       25.29661498       8.08120195       7.48054615                           
I       21.85814679       9.78573462       7.48054615                           
I       26.52381581       5.95562973      10.58299027                           
I       26.28072885       9.78573363      10.58299027                           
I       22.84225759       8.08120117      10.58299027                           
Cr      24.06943708      13.89649598       9.03176873                           
Cr      20.63094607      15.88170968       9.03176919                           
I       25.05354947      11.91126909       7.48054615                           
I       21.85812397      14.03684309       7.48054615                           
I       18.41965578      15.74137575       7.48054615                           
I       23.08532480      11.91127086      10.58299027                           
I       22.84223784      15.74137476      10.58299027                           
I       19.40376658      14.03684230      10.58299027                           
Cr      37.82340112       1.98521371       9.03176873                           
Cr      34.38491011       3.97042742       9.03176919                           
I       38.80751351      -0.00001318       7.48054615                           
I       35.61208802       2.12556082       7.48054615                           
I       32.17361982       3.83009349       7.48054615                           
I       36.83928884      -0.00001140      10.58299027                           
I       36.59620189       3.83009250      10.58299027                           
I       33.15773062       2.12556004      10.58299027                           
Cr      34.38491011       7.94085485       9.03176873                           
Cr      30.94641910       9.92606855       9.03176919                           
I       35.36902250       5.95562795       7.48054615                           
I       32.17359701       8.08120195       7.48054615                           
I       28.73512881       9.78573462       7.48054615                           
I       33.40079783       5.95562973      10.58299027                           
I       33.15771088       9.78573363      10.58299027                           
I       29.71923961       8.08120117      10.58299027                           
Cr      30.94641910      13.89649598       9.03176873                           
Cr      27.50792809      15.88170968       9.03176919                           
I       31.93053149      11.91126909       7.48054615                           
I       28.73510599      14.03684309       7.48054615                           
I       25.29663780      15.74137575       7.48054615                           
I       29.96230682      11.91127086      10.58299027                           
I       29.71921987      15.74137476      10.58299027                           
I       26.28074860      14.03684230      10.58299027                           
Cr      13.75396404      19.85213711       9.03176873                           
Cr      10.31547303      21.83735082       9.03176919                           
I       14.73807643      17.86691022       7.48054615                           
I       11.54265093      19.99248422       7.48054615                           
I        8.10418274      21.69701689       7.48054615                           
I       12.76985176      17.86691200      10.58299027                           
I       12.52676480      21.69701590      10.58299027                           
I        9.08829354      19.99248344      10.58299027                           
Cr      10.31547303      25.80777825       9.03176873                           
Cr       6.87698202      27.79299195       9.03176919                           
I       11.29958542      23.82255135       7.48054615                           
I        8.10415992      25.94812535       7.48054615                           
I        4.66569173      27.65265802       7.48054615                           
I        9.33136075      23.82255313      10.58299027                           
I        9.08827379      27.65265703      10.58299027                           
I        5.64980253      25.94812457      10.58299027                           
Cr       6.87698202      31.76341938       9.03176873                           
Cr       3.43849101      33.74863308       9.03176919                           
I        7.86109441      29.77819249       7.48054615                           
I        4.66566891      31.90376649       7.48054615                           
I        1.22720072      33.60829915       7.48054615                           
I        5.89286974      29.77819426      10.58299027                           
I        5.64978278      33.60829816      10.58299027                           
I        2.21131152      31.90376570      10.58299027                           
Cr      20.63094606      19.85213711       9.03176873                           
Cr      17.19245505      21.83735082       9.03176919                           
I       21.61505845      17.86691022       7.48054615                           
I       18.41963295      19.99248422       7.48054615                           
I       14.98116476      21.69701689       7.48054615                           
I       19.64683378      17.86691200      10.58299027                           
I       19.40374683      21.69701590      10.58299027                           
I       15.96527556      19.99248344      10.58299027                           
Cr      17.19245505      25.80777825       9.03176873                           
Cr      13.75396404      27.79299195       9.03176919                           
I       18.17656744      23.82255135       7.48054615                           
I       14.98114194      25.94812535       7.48054615                           
I       11.54267375      27.65265802       7.48054615                           
I       16.20834277      23.82255313      10.58299027                           
I       15.96525581      27.65265703      10.58299027                           
I       12.52678455      25.94812457      10.58299027                           
Cr      13.75396404      31.76341938       9.03176873                           
Cr      10.31547303      33.74863308       9.03176919                           
I       14.73807643      29.77819249       7.48054615                           
I       11.54265093      31.90376649       7.48054615                           
I        8.10418274      33.60829915       7.48054615                           
I       12.76985176      29.77819426      10.58299027                           
I       12.52676480      33.60829816      10.58299027                           
I        9.08829354      31.90376570      10.58299027                           
Cr      27.50792808      19.85213711       9.03176873                           
Cr      24.06943707      21.83735082       9.03176919                           
I       28.49204047      17.86691022       7.48054615                           
I       25.29661498      19.99248422       7.48054615                           
I       21.85814678      21.69701689       7.48054615                           
I       26.52381580      17.86691200      10.58299027                           
I       26.28072885      21.69701590      10.58299027                           
I       22.84225758      19.99248344      10.58299027                           
Cr      24.06943707      25.80777825       9.03176873                           
Cr      20.63094606      27.79299195       9.03176919                           
I       25.05354946      23.82255135       7.48054615                           
I       21.85812397      25.94812535       7.48054615                           
I       18.41965577      27.65265802       7.48054615                           
I       23.08532479      23.82255313      10.58299027                           
I       22.84223784      27.65265703      10.58299027                           
I       19.40376657      25.94812457      10.58299027                           
Cr      20.63094606      31.76341938       9.03176873                           
Cr      17.19245505      33.74863308       9.03176919                           
I       21.61505845      29.77819249       7.48054615                           
I       18.41963295      31.90376649       7.48054615                           
I       14.98116476      33.60829915       7.48054615                           
I       19.64683378      29.77819426      10.58299027                           
I       19.40374683      33.60829816      10.58299027                           
I       15.96527556      31.90376570      10.58299027                           
%ENDBLOCK POSITIONS_ABS                                                         
%BLOCK SPECIES                                                                  
Cr Cr 24 -1 15                                                                  
I   I  53 -1 15                                                                 
CrU Cr 24 -1 15                                                                 
%ENDBLOCK SPECIES                                                               
%BLOCK SPECIES_ATOMIC_SET                                                       
Cr  "SOLVE INIT SPIN=3"                                                         
I   "SOLVE"                                                                     
CrU "SOLVE INIT SPIN=3"                                                         
%ENDBLOCK SPECIES_ATOMIC_SET                                                    
%BLOCK HUBBARD                                                                  
CrU 2 0.0 0.0 -10.0 0.0 0.20                                                    
%ENDBLOCK HUBBARD                                                               
%BLOCK SPECIES_LDOS_GROUPS                                                      
Cr                                                                              
I                                                                               
CrU                                                                             
%ENDBLOCK SPECIES_LDOS_GROUPS                                                   
%BLOCK SPECIES_POT                                                              
Cr  "/work/e89/e89/phsmea/U_det/Cr.PBE-paw.abinit"                              
I   "/work/e89/e89/phsmea/U_det/I.PBE-paw.abinit"                               
CrU "/work/e89/e89/phsmea/U_det/Cr.PBE-paw.abinit"                              
%ENDBLOCK SPECIES_POT                                                           

--------------------------------------------------------------------------------
-------------------------------- END INPUT FILE --------------------------------
--------------------------------------------------------------------------------


 
 ESDF WARNING(1): "charge" (esdf_physical) has no units. Assume "e".
<<<<<<<<<<<<<<<<<<<<<<<<<<<<<<<<< Full system >>>>>>>>>>>>>>>>>>>>>>>>>>>>>>>>>>
<<<<<<<<<<<<<<<<<<<<<<<<<<< PAW Dataset information >>>>>>>>>>>>>>>>>>>>>>>>>>>
File: /work/e89/e89/phsmea/U_det/Cr.PBE-paw.abinit; rc = 2.11 bohr; shape type =  2; rshape = 1.80 bohr;
  Atomic number: 24;  ionic charge: 14.000000
    Partial Wave 1: l = 0
    Partial Wave 2: l = 0
    Partial Wave 3: l = 1
    Partial Wave 4: l = 1
    Partial Wave 5: l = 2
    Partial Wave 6: l = 2
  Core charge supplied for Nonlinear Core Corrections
File: /work/e89/e89/phsmea/U_det/I.PBE-paw.abinit; rc = 2.30 bohr; shape type =  2; rshape = 2.11 bohr;
  Atomic number: 53;  ionic charge:  7.000000
    Partial Wave 1: l = 0
    Partial Wave 2: l = 0
    Partial Wave 3: l = 1
    Partial Wave 4: l = 1
  Core charge supplied for Nonlinear Core Corrections
<<<<<<<<<<<<<<<<<<<<<<<<<<<<<<<<<<<<<<< >>>>>>>>>>>>>>>>>>>>>>>>>>>>>>>>>>>>>>>

-------------------------- Atom counting information ---------------------------
Symbol    Natoms    Nngwfs    Nprojs
  Cr        72       936      1296
  I        216       864      1728
.......   ......    ......    ......
Totals:    288      1800      3024
--------------------------------------------------------------------------------

=============================== PSINC grid sizes ===============================
                      Simulation cell:  175 x 175 x  75
                              FFT-box:  175 x 175 x  75
                                  PPD:    5 x   5 x   1
================================================================================

Atom SCF Calculation for Cr : Z (AE atom) =  24 : Z (PS atom) =  14
Config String: 3s2.0 3p6.0 3d5.0 4s1.0 4p0.0 INIT SPIN=3
Orbitals (num,occ):  5     2.00 6.00 5.00 1.00 0.00
Orbitals   (num,l):  5        0    1    2    0    1
Atom SCF converged after  64 iterations to a total energy of    -87.07044631
Adjusting orbital occupancies:
Orbitals (num,spin,occ):  5  1     1.00 3.00 3.50 1.00 0.00
Orbitals   (num,spin,l):  5  1        0    1    2    0    1
Orbitals (num,spin,occ):  5  2     1.00 3.00 1.00 0.50 0.00
Orbitals   (num,spin,l):  5  2        0    1    2    0    1

Atom SCF Calculation for I  : Z (AE atom) =  53 : Z (PS atom) =   7
Config String: 5s2.0 5p5.0
Orbitals (num,occ):  2     2.00 5.00
Orbitals   (num,l):  2        0    1
Atom SCF converged after  28 iterations to a total energy of    -11.61352964

Atom SCF Calculation for Cr : Z (AE atom) =  24 : Z (PS atom) =  14
Config String: 3s2.0 3p6.0 3d5.0 4s1.0 4p0.0 INIT SPIN=3
Orbitals (num,occ):  5     2.00 6.00 5.00 1.00 0.00
Orbitals   (num,l):  5        0    1    2    0    1
Atom SCF converged after  64 iterations to a total energy of    -87.07044631
Adjusting orbital occupancies:
Orbitals (num,spin,occ):  5  1     1.00 3.00 3.50 1.00 0.00
Orbitals   (num,spin,l):  5  1        0    1    2    0    1
Orbitals (num,spin,occ):  5  2     1.00 3.00 1.00 0.50 0.00
Orbitals   (num,spin,l):  5  2        0    1    2    0    1

Atom SCF Calculation for Cr : Z (AE atom) =  24 : Z (PS atom) =  14
Config String: 3s2.0 3p6.0 3d5.0 4s1.0 4p0.0 INIT SPIN=3
Orbitals (num,occ):  5     2.00 6.00 5.00 1.00 0.00
Orbitals   (num,l):  5        0    1    2    0    1
Atom SCF converged after  64 iterations to a total energy of    -87.07044631

Atom SCF Calculation for I  : Z (AE atom) =  53 : Z (PS atom) =   7
Config String: 5s2.0 5p5.0
Orbitals (num,occ):  2     2.00 5.00
Orbitals   (num,l):  2        0    1
Atom SCF converged after  28 iterations to a total energy of    -11.61352964

Atom SCF Calculation for Cr : Z (AE atom) =  24 : Z (PS atom) =  14
Config String: 3s2.0 3p6.0 3d5.0 4s1.0 4p0.0 INIT SPIN=3
Orbitals (num,occ):  5     2.00 6.00 5.00 1.00 0.00
Orbitals   (num,l):  5        0    1    2    0    1
Atom SCF converged after  64 iterations to a total energy of    -87.07044631
Calculating Ewald energy ...             6126.916246 Hartree

============================= Charge Augmentation ==============================
                           Aug box size:   49 x  49 x  45
================================================================================

================================= Core Density =================================
               Core den box size:  125 x 125 x 117
================================================================================
Density kernel initialisation

################################################################################
###################### NGWF self-consistent optimisation #######################
################################################################################
|ITER|    RMS GRADIENT   |     TOTAL ENERGY    |   step   |     Epredicted      
   0     0.00009869921372  -8812.33332148837690   2.349102  -8816.24270370684826        
   1     0.00006752526811  -8816.46253932653235   1.628995  -8817.80141518532400        
   2     0.00004160991257  -8817.83734371512764   1.808134  -8818.38639192048868        
   3     0.00002883111710  -8818.41067897510584   1.957302  -8818.70105555800728        
   4     0.00002026664308  -8818.70236869369000   1.138892  -8818.78228307563950        
   5     0.00001353460632  -8818.78244668736261   1.990704  -8818.84452290453009        
   6     0.00001150784268  -8818.84343026987881   1.752176  -8818.88222549865168        
   7     0.00000899229982  -8818.88078265480181   1.585874  -8818.90184448371110        
   8     0.00000729612445  -8818.90083379365933   0.928644  -8818.90927904492855        
   9     0.00000478885383  -8818.90917643409921   2.203331  -8818.91781030393577        
  10     0.00000447573991  -8818.91746612945281   1.613159  -8818.92280765733267        
  11     0.00000317492562  -8818.92244559103710   2.331061  -8818.92628319744472        
  12     0.00000402583806  -8818.92523964389511   0.960245  -8818.92789836952397        
  13     0.00000214806966  -8818.92786606131267   2.469301  -8818.92978474494339        
  14     0.00000235614608  -8818.92950851741261   2.419410  -8818.93148116645352        
  15     0.00000232107168  -8818.93032889529604   1.873915  -8818.93125679747027        
  16     0.00000283146580  -8818.93014508653141   0.949733  -8818.93144586454582        
  17     0.00000196195591  -8818.93143886114376   2.009110  -8818.93275673994322        
  18     0.00000144006458  -8818.93268046112826   1.476745  -8818.93319574261477        
  19     0.00000087306544  -8818.93310629093503   2.365433  -8818.93338479692466        
  20     0.00000121072653  -8818.93322233220533   0.819724  -8818.93342760831001        
  21     0.00000048794871  -8818.93341185579084   2.644260  -8818.93351183758568        
  22     0.00000072765040  -8818.93344698013607   1.198588  -8818.93355539637741        
  23     0.00000050819783  -8818.93353220741483   2.631287  -8818.93362389894173        
  24     0.00000084203756  -8818.93354468265534   0.761991  -8818.93363698053327        
  25     0.00000035035768  -8818.93362784882447   2.278669  -8818.93366855035856        
  26     0.00000076151752  -8818.93355208366302   1.632912  -8818.93371385494902        
  27     0.00000068727688  -8818.93368705374996   1.294830  -8818.93376747427101        
  28     0.00000041319362  -8818.93375326405658   2.255990  -8818.93381879675326        
  29     0.00000060021639  -8818.93374056236462   1.234589  -8818.93381654542281        

================================================================================
           ---------------- ENERGY COMPONENTS (Eh) ----------------
           | Kinetic                    :     1819.30407170879175 |
           | Core Hartree               :   -28372.40863019416070 |
           | CoreHart (non-coul chg cor):        0.00000000000000
           | Hartree                    :    13503.88076810535860 |
           | Exchange-correlation       :    -1248.28924918253097 |
           | Hubbard DFT+U correction   :       -0.01095760425570 |
           | Ewald                      :     6126.91624599049464 |
           | Dij0                       :     -555.70064507636982 |
           | Dijhartree                 :      248.93663635873409 |
           | Exc [AE core]              :   -42415.09036523776010 |
           | Exc DC [AE core]           :    -1638.56003668228186 |
           | Exc [PS core]              :    -1032.28839353936382 |
           | Exc DC [PS core]           :     -982.35339548432069 |
           | Exc [Core]                 :   -41041.23993575423080 |
           | Total [Sphere]             :     -648.32604466180783 |
           | Total                      :    -8818.93379583810929 |
           --------------------------------------------------------
           Integrated compensation chrg.:      189.13341365361316
           Integrated density           :     2519.99993595279466
           Integrated spin density      :      215.99995947255701
           Integrated |spin density|    :      164.32461482937913
================================================================================

  30     0.00000046716788  -8818.93379583811475  <-- CG                                 

################################################################################
DFT+U information on atom      1 of Hubbard species CrU 
################################################################################
Occupancy matrix of Hubbard site      1 and spin      1 is 
  m_l =   -2          -1           0           1           2
  0.89438348  0.14361846  0.00000117  0.00000083  0.00000294
  0.14365415  0.78185950 -0.00000192  0.00000297 -0.00000246
 -0.00000018  0.00000007  0.99146408  0.00000030  0.00000021
  0.00000198  0.00000291 -0.00000080  0.78185673 -0.14365174
  0.00000288 -0.00000126 -0.00000053 -0.14361739  0.89438633
WARNING: DFT+U ENERGY of Hubbard site      1 and spin      1 is negative.
################################################################################
Occupancy matrix of Hubbard site      1 and spin      2 is 
  m_l =   -2          -1           0           1           2
  0.25116141 -0.13025326 -0.00000225  0.00000200  0.00000197
 -0.13028485  0.35375301  0.00000189  0.00000160 -0.00000069
 -0.00000088  0.00000008  0.15240442  0.00000001  0.00000054
  0.00000097  0.00000165  0.00000100  0.35375107  0.13028603
  0.00000202 -0.00000176  0.00000130  0.13025564  0.25116436
################################################################################
Total occupancy of Hubbard site      1 is         5.70618440 e
Local magnetic moment of Hubbard site      1 is   2.98171584 mu_B
DFT+U energy of Hubbard site      1 is           -0.01095760 Ha
################################################################################

##### For calculating the Hubbard U and Hund J #################################
DFT+U information on Hubbard site      1 of species CrU  and spin      1
The average Hxc+local potential is            -19.03237241 eV.
The average Hubbard potential is               -0.10000000 eV.
The average non-local PAW contribution is     -10.96285126 eV.
################################################################################
DFT+U information on Hubbard site      1 of species CrU  and spin      2
The average Hxc+local potential is            -17.93607742 eV.
The average Hubbard potential is                0.10000000 eV.
The average non-local PAW contribution is      -9.48231423 eV.
################################################################################

======================== Writing density and potential =========================
Writing "U_0_0.2_ps_density.cube" ... done
Writing "U_0_0.2_ps_spindensity.cube" ... done
Writing "U_0_0.2_ae_density.cube" ... done
Writing "U_0_0.2_ae_spindensity.cube" ... done
Writing "U_0_0.2_potential.cube" ... done
Writing "U_0_0.2_electrostatic_potential.cube" ... done
================================================================================

    Mulliken Atomic Populations
    ---------------------------
Species  Ion    Total   Charge (e)    Spin (hbar)
=================================================
  Cr     1      13.836      0.164      1.68
  Cr     2      13.835      0.165      1.68
  I      3       7.055     -0.055     -0.06
  I      4       7.055     -0.055     -0.06
  I      5       7.055     -0.055     -0.06
  I      6       7.055     -0.055     -0.06
  I      7       7.055     -0.055     -0.06
  I      8       7.055     -0.055     -0.06
  Cr     9      13.836      0.164      1.68
  Cr    10      13.836      0.164      1.68
  I     11       7.055     -0.055     -0.06
  I     12       7.055     -0.055     -0.06
  I     13       7.055     -0.055     -0.06
  I     14       7.055     -0.055     -0.06
  I     15       7.055     -0.055     -0.06
  I     16       7.055     -0.055     -0.06
  Cr    17      13.836      0.164      1.68
  Cr    18      13.836      0.164      1.68
  I     19       7.055     -0.055     -0.06
  I     20       7.055     -0.055     -0.06
  I     21       7.055     -0.055     -0.06
  I     22       7.055     -0.055     -0.06
  I     23       7.055     -0.055     -0.06
  I     24       7.055     -0.055     -0.06
  Cr    25      13.836      0.164      1.68
  Cr    26      13.836      0.164      1.68
  I     27       7.055     -0.055     -0.06
  I     28       7.055     -0.055     -0.06
  I     29       7.055     -0.055     -0.06
  I     30       7.055     -0.055     -0.06
  I     31       7.055     -0.055     -0.06
  I     32       7.055     -0.055     -0.06
  Cr    33      13.836      0.164      1.68
  Cr    34      13.836      0.164      1.68
  I     35       7.055     -0.055     -0.06
  I     36       7.055     -0.055     -0.06
  I     37       7.055     -0.055     -0.06
  I     38       7.055     -0.055     -0.06
  I     39       7.055     -0.055     -0.06
  I     40       7.055     -0.055     -0.06
  Cr    41      13.835      0.165      1.68
  Cr    42      13.835      0.165      1.68
  I     43       7.055     -0.055     -0.06
  I     44       7.055     -0.055     -0.06
  I     45       7.055     -0.055     -0.06
  I     46       7.055     -0.055     -0.06
  I     47       7.055     -0.055     -0.06
  I     48       7.055     -0.055     -0.06
  Cr    49      13.836      0.164      1.68
  Cr    50      13.836      0.164      1.68
  I     51       7.055     -0.055     -0.06
  I     52       7.055     -0.055     -0.06
  I     53       7.055     -0.055     -0.06
  I     54       7.055     -0.055     -0.06
  I     55       7.055     -0.055     -0.06
  I     56       7.055     -0.055     -0.06
  Cr    57      13.836      0.164      1.68
  Cr    58      13.836      0.164      1.68
  I     59       7.055     -0.055     -0.06
  I     60       7.055     -0.055     -0.06
  I     61       7.055     -0.055     -0.06
  I     62       7.055     -0.055     -0.06
  I     63       7.055     -0.055     -0.06
  I     64       7.055     -0.055     -0.06
  Cr    65      13.835      0.165      1.68
  Cr    66      13.832      0.168      1.68
  I     67       7.055     -0.055     -0.06
  I     68       7.055     -0.055     -0.06
  I     69       7.055     -0.055     -0.06
  I     70       7.055     -0.055     -0.06
  I     71       7.055     -0.055     -0.06
  I     72       7.055     -0.055     -0.06
  Cr    73      13.836      0.164      1.68
  Cr    74      13.836      0.164      1.68
  I     75       7.055     -0.055     -0.06
  I     76       7.055     -0.055     -0.06
  I     77       7.055     -0.055     -0.06
  I     78       7.055     -0.055     -0.06
  I     79       7.055     -0.055     -0.06
  I     80       7.055     -0.055     -0.06
  Cr    81      13.836      0.164      1.68
  Cr    82      13.836      0.164      1.68
  I     83       7.055     -0.055     -0.06
  I     84       7.055     -0.055     -0.06
  I     85       7.055     -0.055     -0.06
  I     86       7.055     -0.055     -0.06
  I     87       7.055     -0.055     -0.06
  I     88       7.055     -0.055     -0.06
  Cr    89      13.836      0.164      1.68
  Cr    90      13.835      0.165      1.68
  I     91       7.055     -0.055     -0.06
  I     92       7.055     -0.055     -0.06
  I     93       7.055     -0.055     -0.06
  I     94       7.055     -0.055     -0.06
  I     95       7.055     -0.055     -0.06
  I     96       7.055     -0.055     -0.06
  Cr    97      13.835      0.165      1.68
  Cr    98      13.836      0.164      1.68
  I     99       7.055     -0.055     -0.06
  I    100       7.055     -0.055     -0.06
  I    101       7.055     -0.055     -0.06
  I    102       7.055     -0.055     -0.06
  I    103       7.055     -0.055     -0.06
  I    104       7.055     -0.055     -0.06
  Cr   105      13.836      0.164      1.68
  Cr   106      13.836      0.164      1.68
  I    107       7.055     -0.055     -0.06
  I    108       7.055     -0.055     -0.06
  I    109       7.055     -0.055     -0.06
  I    110       7.055     -0.055     -0.06
  I    111       7.055     -0.055     -0.06
  I    112       7.055     -0.055     -0.06
  Cr   113      13.836      0.164      1.68
  Cr   114      13.836      0.164      1.68
  I    115       7.055     -0.055     -0.06
  I    116       7.055     -0.055     -0.06
  I    117       7.055     -0.055     -0.06
  I    118       7.055     -0.055     -0.06
  I    119       7.055     -0.055     -0.06
  I    120       7.055     -0.055     -0.06
  Cr   121      13.833      0.167      1.72
  Cr   122      13.832      0.168      1.68
  I    123       7.056     -0.056     -0.07
  I    124       7.056     -0.056     -0.07
  I    125       7.055     -0.055     -0.06
  I    126       7.056     -0.056     -0.07
  I    127       7.056     -0.056     -0.07
  I    128       7.055     -0.055     -0.06
  Cr   129      13.835      0.165      1.68
  Cr   130      13.836      0.164      1.68
  I    131       7.055     -0.055     -0.06
  I    132       7.055     -0.055     -0.06
  I    133       7.055     -0.055     -0.06
  I    134       7.055     -0.055     -0.06
  I    135       7.055     -0.055     -0.06
  I    136       7.055     -0.055     -0.06
  Cr   137      13.836      0.164      1.68
  Cr   138      13.836      0.164      1.68
  I    139       7.055     -0.055     -0.06
  I    140       7.055     -0.055     -0.06
  I    141       7.055     -0.055     -0.06
  I    142       7.055     -0.055     -0.06
  I    143       7.055     -0.055     -0.06
  I    144       7.055     -0.055     -0.06
  Cr   145      13.836      0.164      1.68
  Cr   146      13.836      0.164      1.68
  I    147       7.055     -0.055     -0.06
  I    148       7.055     -0.055     -0.06
  I    149       7.055     -0.055     -0.06
  I    150       7.055     -0.055     -0.06
  I    151       7.055     -0.055     -0.06
  I    152       7.055     -0.055     -0.06
  Cr   153      13.836      0.164      1.68
  Cr   154      13.837      0.163      1.68
  I    155       7.055     -0.055     -0.06
  I    156       7.055     -0.055     -0.06
  I    157       7.055     -0.055     -0.06
  I    158       7.055     -0.055     -0.06
  I    159       7.055     -0.055     -0.06
  I    160       7.055     -0.055     -0.06
  Cr   161      13.836      0.164      1.68
  Cr   162      13.837      0.163      1.68
  I    163       7.055     -0.055     -0.06
  I    164       7.055     -0.055     -0.06
  I    165       7.055     -0.055     -0.06
  I    166       7.055     -0.055     -0.06
  I    167       7.055     -0.055     -0.06
  I    168       7.055     -0.055     -0.06
  Cr   169      13.836      0.164      1.68
  Cr   170      13.836      0.164      1.68
  I    171       7.055     -0.055     -0.06
  I    172       7.055     -0.055     -0.06
  I    173       7.055     -0.055     -0.06
  I    174       7.055     -0.055     -0.06
  I    175       7.055     -0.055     -0.06
  I    176       7.055     -0.055     -0.06
  Cr   177      13.835      0.165      1.68
  Cr   178      13.837      0.163      1.68
  I    179       7.055     -0.055     -0.06
  I    180       7.055     -0.055     -0.06
  I    181       7.055     -0.055     -0.06
  I    182       7.055     -0.055     -0.06
  I    183       7.055     -0.055     -0.06
  I    184       7.055     -0.055     -0.06
  Cr   185      13.836      0.164      1.68
  Cr   186      13.837      0.163      1.68
  I    187       7.055     -0.055     -0.06
  I    188       7.055     -0.055     -0.06
  I    189       7.055     -0.055     -0.06
  I    190       7.055     -0.055     -0.06
  I    191       7.055     -0.055     -0.06
  I    192       7.055     -0.055     -0.06
  Cr   193      13.836      0.164      1.68
  Cr   194      13.835      0.165      1.68
  I    195       7.055     -0.055     -0.06
  I    196       7.055     -0.055     -0.06
  I    197       7.055     -0.055     -0.06
  I    198       7.055     -0.055     -0.06
  I    199       7.055     -0.055     -0.06
  I    200       7.055     -0.055     -0.06
  Cr   201      13.836      0.164      1.68
  Cr   202      13.836      0.164      1.68
  I    203       7.055     -0.055     -0.06
  I    204       7.055     -0.055     -0.06
  I    205       7.055     -0.055     -0.06
  I    206       7.055     -0.055     -0.06
  I    207       7.055     -0.055     -0.06
  I    208       7.055     -0.055     -0.06
  Cr   209      13.836      0.164      1.68
  Cr   210      13.836      0.164      1.68
  I    211       7.055     -0.055     -0.06
  I    212       7.055     -0.055     -0.06
  I    213       7.055     -0.055     -0.06
  I    214       7.055     -0.055     -0.06
  I    215       7.055     -0.055     -0.06
  I    216       7.055     -0.055     -0.06
  Cr   217      13.835      0.165      1.68
  Cr   218      13.832      0.168      1.68
  I    219       7.055     -0.055     -0.06
  I    220       7.055     -0.055     -0.06
  I    221       7.056     -0.056     -0.07
  I    222       7.055     -0.055     -0.06
  I    223       7.055     -0.055     -0.06
  I    224       7.056     -0.056     -0.07
  Cr   225      13.835      0.165      1.68
  Cr   226      13.835      0.165      1.68
  I    227       7.055     -0.055     -0.06
  I    228       7.055     -0.055     -0.06
  I    229       7.055     -0.055     -0.06
  I    230       7.055     -0.055     -0.06
  I    231       7.055     -0.055     -0.06
  I    232       7.055     -0.055     -0.06
  Cr   233      13.836      0.164      1.68
  Cr   234      13.836      0.164      1.68
  I    235       7.055     -0.055     -0.06
  I    236       7.055     -0.055     -0.06
  I    237       7.055     -0.055     -0.06
  I    238       7.055     -0.055     -0.06
  I    239       7.055     -0.055     -0.06
  I    240       7.055     -0.055     -0.06
  Cr   241      13.836      0.164      1.68
  Cr   242      13.836      0.164      1.68
  I    243       7.055     -0.055     -0.06
  I    244       7.055     -0.055     -0.06
  I    245       7.055     -0.055     -0.06
  I    246       7.055     -0.055     -0.06
  I    247       7.055     -0.055     -0.06
  I    248       7.055     -0.055     -0.06
  Cr   249      13.836      0.164      1.68
  Cr   250      13.836      0.164      1.68
  I    251       7.055     -0.055     -0.06
  I    252       7.055     -0.055     -0.06
  I    253       7.055     -0.055     -0.06
  I    254       7.055     -0.055     -0.06
  I    255       7.055     -0.055     -0.06
  I    256       7.055     -0.055     -0.06
  Cr   257      13.836      0.164      1.68
  Cr   258      13.836      0.164      1.68
  I    259       7.055     -0.055     -0.06
  I    260       7.055     -0.055     -0.06
  I    261       7.055     -0.055     -0.06
  I    262       7.055     -0.055     -0.06
  I    263       7.055     -0.055     -0.06
  I    264       7.055     -0.055     -0.06
  Cr   265      13.836      0.164      1.68
  Cr   266      13.836      0.164      1.68
  I    267       7.055     -0.055     -0.06
  I    268       7.055     -0.055     -0.06
  I    269       7.055     -0.055     -0.06
  I    270       7.055     -0.055     -0.06
  I    271       7.055     -0.055     -0.06
  I    272       7.055     -0.055     -0.06
  Cr   273      13.836      0.164      1.68
  Cr   274      13.836      0.164      1.68
  I    275       7.055     -0.055     -0.06
  I    276       7.055     -0.055     -0.06
  I    277       7.055     -0.055     -0.06
  I    278       7.055     -0.055     -0.06
  I    279       7.055     -0.055     -0.06
  I    280       7.055     -0.055     -0.06
  Cr   281      13.836      0.164      1.68
  Cr   282      13.835      0.165      1.68
  I    283       7.055     -0.055     -0.06
  I    284       7.055     -0.055     -0.06
  I    285       7.055     -0.055     -0.06
  I    286       7.055     -0.055     -0.06
  I    287       7.055     -0.055     -0.06
  I    288       7.055     -0.055     -0.06
=================================================

        Bond         Population      Spin       Length (bohr)
=============================================================
 Cr  186 -- I   191        0.31     -0.03      4.86412
 Cr  178 -- I   183        0.31     -0.03      4.86412
 Cr  154 -- I   159        0.31     -0.03      4.86412
 Cr  162 -- I   167        0.31     -0.03      4.86412
 Cr  146 -- I   151        0.31     -0.03      4.86412
 Cr   82 -- I    87        0.31     -0.03      4.86412
 Cr  250 -- I   255        0.31     -0.03      4.86412
 Cr  226 -- I   231        0.31     -0.03      4.86412
 Cr   74 -- I    79        0.31     -0.03      4.86412
 Cr   10 -- I    15        0.31     -0.03      4.86412
 Cr  106 -- I   111        0.31     -0.03      4.86412
 Cr   34 -- I    39        0.31     -0.03      4.86412
 Cr   42 -- I    47        0.31     -0.03      4.86412
 Cr   18 -- I    23        0.31     -0.03      4.86412
 Cr  114 -- I   119        0.31     -0.03      4.86412
 Cr    2 -- I     7        0.31     -0.03      4.86412
 Cr   90 -- I    95        0.31     -0.03      4.86412
 Cr  218 -- I   223        0.31     -0.03      4.86412
 Cr  258 -- I   263        0.31     -0.03      4.86412
 Cr  234 -- I   239        0.31     -0.03      4.86412
 Cr  274 -- I   279        0.31     -0.03      4.86412
 Cr  130 -- I   135        0.31     -0.03      4.86412
 Cr   98 -- I   103        0.31     -0.03      4.86412
 Cr   66 -- I    71        0.31     -0.03      4.86412
 Cr  242 -- I   247        0.31     -0.03      4.86412
 Cr   50 -- I    55        0.31     -0.03      4.86412
 Cr   26 -- I    31        0.31     -0.03      4.86412
 Cr   58 -- I    63        0.31     -0.03      4.86412
 Cr  210 -- I   215        0.31     -0.03      4.86412
 Cr  170 -- I   175        0.31     -0.03      4.86412
 Cr  122 -- I   127        0.31     -0.03      4.86412
 Cr  266 -- I   271        0.31     -0.03      4.86412
 Cr  282 -- I   287        0.31     -0.03      4.86412
 Cr  138 -- I   143        0.31     -0.03      4.86412
 Cr  202 -- I   207        0.31     -0.03      4.86412
 Cr  194 -- I   199        0.31     -0.03      4.86412
 Cr  210 -- I   212        0.31     -0.03      4.86413
 Cr  138 -- I   140        0.31     -0.03      4.86413
 Cr   90 -- I    92        0.31     -0.03      4.86413
 Cr  258 -- I   260        0.31     -0.03      4.86413
 Cr  234 -- I   236        0.31     -0.03      4.86413
 Cr   42 -- I    44        0.31     -0.03      4.86413
 Cr   66 -- I    68        0.31     -0.03      4.86413
 Cr  114 -- I   116        0.31     -0.03      4.86413
 Cr   18 -- I    20        0.31     -0.03      4.86413
 Cr  162 -- I   164        0.31     -0.03      4.86413
 Cr  282 -- I   284        0.31     -0.03      4.86413
 Cr  186 -- I   188        0.31     -0.03      4.86413
 Cr  194 -- I   196        0.31     -0.03      4.86413
 Cr  202 -- I   204        0.31     -0.03      4.86413
 Cr   50 -- I    52        0.31     -0.03      4.86413
 Cr   58 -- I    60        0.31     -0.03      4.86413
 Cr  122 -- I   124        0.31     -0.03      4.86413
 Cr  266 -- I   268        0.31     -0.03      4.86413
 Cr  274 -- I   276        0.31     -0.03      4.86413
 Cr  130 -- I   132        0.31     -0.03      4.86413
 Cr  154 -- I   156        0.31     -0.03      4.86413
 Cr  170 -- I   172        0.31     -0.03      4.86413
 Cr   34 -- I    36        0.31     -0.03      4.86413
 Cr   10 -- I    12        0.31     -0.03      4.86413
 Cr  146 -- I   148        0.31     -0.03      4.86413
 Cr    2 -- I     4        0.31     -0.03      4.86413
 Cr   26 -- I    28        0.31     -0.03      4.86413
 Cr  242 -- I   244        0.31     -0.03      4.86413
 Cr  218 -- I   220        0.31     -0.03      4.86413
 Cr  178 -- I   180        0.31     -0.03      4.86413
 Cr   74 -- I    76        0.31     -0.03      4.86413
 Cr   98 -- I   100        0.31     -0.03      4.86413
 Cr  250 -- I   252        0.31     -0.03      4.86413
 Cr  226 -- I   228        0.31     -0.03      4.86413
 Cr  106 -- I   108        0.31     -0.03      4.86413
 Cr   82 -- I    84        0.31     -0.03      4.86413
 Cr  153 -- I   159        0.31     -0.03      4.86414
 Cr  177 -- I   183        0.31     -0.03      4.86414
 Cr   41 -- I    47        0.31     -0.03      4.86414
 Cr  161 -- I   167        0.31     -0.03      4.86414
 Cr    9 -- I    15        0.31     -0.03      4.86414
 Cr  185 -- I   191        0.31     -0.03      4.86414
 Cr   33 -- I    39        0.31     -0.03      4.86414
 Cr   17 -- I    23        0.31     -0.03      4.86414
 Cr  113 -- I   119        0.31     -0.03      4.86414
 Cr   89 -- I    95        0.31     -0.03      4.86414
 Cr  233 -- I   239        0.31     -0.03      4.86414
 Cr  257 -- I   263        0.31     -0.03      4.86414
 Cr  249 -- I   255        0.31     -0.03      4.86414
 Cr  225 -- I   231        0.31     -0.03      4.86414
 Cr   81 -- I    87        0.31     -0.03      4.86414
 Cr  105 -- I   111        0.31     -0.03      4.86414
 Cr  209 -- I   215        0.31     -0.03      4.86414
 Cr   65 -- I    71        0.31     -0.03      4.86414
 Cr   57 -- I    63        0.31     -0.03      4.86414
 Cr  137 -- I   143        0.31     -0.03      4.86414
 Cr  201 -- I   207        0.31     -0.03      4.86414
 Cr  281 -- I   287        0.31     -0.03      4.86414
 Cr  129 -- I   135        0.31     -0.03      4.86414
 Cr  273 -- I   279        0.31     -0.03      4.86414
 Cr   73 -- I    79        0.31     -0.03      4.86414
 Cr  217 -- I   223        0.31     -0.03      4.86414
 Cr  145 -- I   151        0.31     -0.03      4.86414
 Cr    1 -- I     7        0.31     -0.03      4.86414
 Cr  121 -- I   127        0.31     -0.03      4.86414
 Cr  241 -- I   247        0.31     -0.03      4.86414
 Cr   97 -- I   103        0.31     -0.03      4.86414
 Cr  265 -- I   271        0.31     -0.03      4.86414
 Cr   49 -- I    55        0.31     -0.03      4.86414
 Cr   25 -- I    31        0.31     -0.03      4.86414
 Cr  169 -- I   175        0.31     -0.03      4.86414
 Cr  193 -- I   199        0.31     -0.03      4.86414
 Cr  193 -- I   196        0.31     -0.03      4.86414
 Cr   49 -- I    52        0.31     -0.03      4.86414
 Cr  265 -- I   268        0.31     -0.03      4.86414
 Cr  121 -- I   124        0.31     -0.03      4.86414
 Cr  257 -- I   260        0.31     -0.03      4.86414
 Cr  169 -- I   172        0.31     -0.03      4.86414
 Cr  145 -- I   148        0.31     -0.03      4.86414
 Cr   65 -- I    68        0.31     -0.03      4.86414
 Cr  137 -- I   140        0.31     -0.03      4.86414
 Cr  185 -- I   188        0.31     -0.03      4.86414
 Cr  281 -- I   284        0.31     -0.03      4.86414
 Cr  209 -- I   212        0.31     -0.03      4.86414
 Cr  161 -- I   164        0.31     -0.03      4.86414
 Cr    1 -- I     4        0.31     -0.03      4.86414
 Cr   41 -- I    44        0.31     -0.03      4.86414
 Cr  113 -- I   116        0.31     -0.03      4.86414
 Cr  241 -- I   244        0.31     -0.03      4.86414
 Cr   25 -- I    28        0.31     -0.03      4.86414
 Cr   17 -- I    20        0.31     -0.03      4.86414
 Cr   89 -- I    92        0.31     -0.03      4.86414
 Cr  217 -- I   220        0.31     -0.03      4.86414
 Cr  233 -- I   236        0.31     -0.03      4.86414
 Cr   97 -- I   100        0.31     -0.03      4.86414
 Cr   73 -- I    76        0.31     -0.03      4.86414
 Cr  273 -- I   276        0.31     -0.03      4.86414
 Cr  201 -- I   204        0.31     -0.03      4.86414
 Cr  129 -- I   132        0.31     -0.03      4.86414
 Cr   57 -- I    60        0.31     -0.03      4.86414
 Cr   81 -- I    84        0.31     -0.03      4.86414
 Cr  105 -- I   108        0.31     -0.03      4.86414
 Cr  249 -- I   252        0.31     -0.03      4.86414
 Cr  225 -- I   228        0.31     -0.03      4.86414
 Cr  153 -- I   156        0.31     -0.03      4.86414
 Cr   33 -- I    36        0.31     -0.03      4.86414
 Cr  177 -- I   180        0.31     -0.03      4.86414
 Cr    9 -- I    12        0.31     -0.03      4.86414
 I    27 -- Cr  114        0.31     -0.03      5.11128
 I     3 -- Cr   90        0.31     -0.03      5.11128
 I    51 -- Cr  138        0.31     -0.03      5.11128
 Cr  266 -- I   275        0.31     -0.03      5.11128
 Cr  122 -- I   131        0.31     -0.03      5.11128
 Cr   74 -- I    83        0.31     -0.03      5.11128
 Cr   98 -- I   107        0.31     -0.03      5.11128
 Cr  242 -- I   251        0.31     -0.03      5.11128
 Cr  218 -- I   227        0.31     -0.03      5.11128
 Cr  146 -- I   155        0.31     -0.03      5.11128
 Cr  170 -- I   179        0.31     -0.03      5.11128
 Cr   50 -- I    59        0.31     -0.03      5.11128
 Cr    2 -- I    11        0.31     -0.03      5.11128
 Cr   26 -- I    35        0.31     -0.03      5.11128
 Cr  194 -- I   203        0.31     -0.03      5.11128
 I   171 -- Cr  258        0.31     -0.03      5.11128
 I   195 -- Cr  282        0.31     -0.03      5.11128
 I   147 -- Cr  234        0.31     -0.03      5.11128
 Cr  194 -- I   197        0.31     -0.03      5.11128
 Cr  210 -- I   213        0.31     -0.03      5.11128
 Cr  250 -- I   253        0.31     -0.03      5.11128
 Cr  242 -- I   245        0.31     -0.03      5.11128
 Cr   50 -- I    53        0.31     -0.03      5.11128
 Cr  234 -- I   237        0.31     -0.03      5.11128
 Cr  226 -- I   229        0.31     -0.03      5.11128
 Cr  218 -- I   221        0.31     -0.03      5.11128
 Cr   26 -- I    29        0.31     -0.03      5.11128
 Cr  154 -- I   157        0.31     -0.03      5.11128
 Cr  146 -- I   149        0.31     -0.03      5.11128
 Cr  106 -- I   109        0.31     -0.03      5.11128
 Cr  282 -- I   285        0.31     -0.03      5.11128
 Cr    2 -- I     5        0.31     -0.03      5.11128
 Cr  122 -- I   125        0.31     -0.03      5.11128
 Cr  130 -- I   133        0.31     -0.03      5.11128
 Cr   10 -- I    13        0.31     -0.03      5.11128
 Cr   58 -- I    61        0.31     -0.03      5.11128
 Cr   42 -- I    45        0.31     -0.03      5.11128
 Cr   82 -- I    85        0.31     -0.03      5.11128
 Cr   34 -- I    37        0.31     -0.03      5.11128
 Cr   18 -- I    21        0.31     -0.03      5.11128
 Cr  138 -- I   141        0.31     -0.03      5.11128
 Cr   98 -- I   101        0.31     -0.03      5.11128
 Cr   90 -- I    93        0.31     -0.03      5.11128
 Cr  114 -- I   117        0.31     -0.03      5.11128
 Cr   66 -- I    69        0.31     -0.03      5.11128
 Cr  202 -- I   205        0.31     -0.03      5.11128
 Cr  170 -- I   173        0.31     -0.03      5.11128
 Cr   74 -- I    77        0.31     -0.03      5.11128
 Cr  274 -- I   277        0.31     -0.03      5.11128
 Cr  162 -- I   165        0.31     -0.03      5.11128
 Cr  266 -- I   269        0.31     -0.03      5.11128
 Cr  178 -- I   181        0.31     -0.03      5.11128
 Cr  258 -- I   261        0.31     -0.03      5.11128
 Cr  186 -- I   189        0.31     -0.03      5.11128
 Cr  186 -- I   243        0.31     -0.03      5.11128
 Cr  210 -- I   267        0.31     -0.03      5.11128
 Cr  162 -- I   219        0.31     -0.03      5.11128
 Cr  274 -- I   283        0.31     -0.03      5.11128
 Cr  130 -- I   139        0.31     -0.03      5.11128
 Cr   82 -- I    91        0.31     -0.03      5.11128
 Cr  106 -- I   115        0.31     -0.03      5.11128
 Cr   34 -- I    43        0.31     -0.03      5.11128
 Cr   58 -- I    67        0.31     -0.03      5.11128
 Cr  226 -- I   235        0.31     -0.03      5.11128
 Cr  202 -- I   211        0.31     -0.03      5.11128
 Cr  178 -- I   187        0.31     -0.03      5.11128
 Cr   10 -- I    19        0.31     -0.03      5.11128
 Cr  154 -- I   163        0.31     -0.03      5.11128
 Cr  250 -- I   259        0.31     -0.03      5.11128
 Cr   18 -- I    75        0.31     -0.03      5.11128
 Cr   66 -- I   123        0.31     -0.03      5.11128
 Cr   42 -- I    99        0.31     -0.03      5.11128
 Cr  234 -- I   240        0.31     -0.03      5.11128
 Cr  138 -- I   144        0.31     -0.03      5.11128
 Cr  282 -- I   288        0.31     -0.03      5.11128
 Cr  258 -- I   264        0.31     -0.03      5.11128
 Cr  114 -- I   120        0.31     -0.03      5.11128
 Cr   90 -- I    96        0.31     -0.03      5.11128
 Cr  242 -- I   248        0.31     -0.03      5.11128
 Cr  122 -- I   128        0.31     -0.03      5.11128
 Cr  218 -- I   224        0.31     -0.03      5.11128
 Cr  194 -- I   200        0.31     -0.03      5.11128
 Cr   98 -- I   104        0.31     -0.03      5.11128
 Cr   74 -- I    80        0.31     -0.03      5.11128
 Cr  210 -- I   216        0.31     -0.03      5.11128
 Cr   42 -- I    48        0.31     -0.03      5.11128
 Cr   66 -- I    72        0.31     -0.03      5.11128
 Cr   50 -- I    56        0.31     -0.03      5.11128
 Cr   18 -- I    24        0.31     -0.03      5.11128
 Cr   26 -- I    32        0.31     -0.03      5.11128
 Cr   10 -- I    16        0.31     -0.03      5.11128
 Cr  250 -- I   256        0.31     -0.03      5.11128
 Cr    2 -- I     8        0.31     -0.03      5.11128
 Cr   34 -- I    40        0.31     -0.03      5.11128
 Cr  146 -- I   152        0.31     -0.03      5.11128
 Cr  266 -- I   272        0.31     -0.03      5.11128
 Cr  154 -- I   160        0.31     -0.03      5.11128
 Cr   58 -- I    64        0.31     -0.03      5.11128
 Cr  202 -- I   208        0.31     -0.03      5.11128
 Cr  162 -- I   168        0.31     -0.03      5.11128
 Cr  170 -- I   176        0.31     -0.03      5.11128
 Cr  178 -- I   184        0.31     -0.03      5.11128
 Cr  130 -- I   136        0.31     -0.03      5.11128
 Cr  226 -- I   232        0.31     -0.03      5.11128
 Cr  106 -- I   112        0.31     -0.03      5.11128
 Cr   82 -- I    88        0.31     -0.03      5.11128
 Cr  186 -- I   192        0.31     -0.03      5.11128
 Cr  274 -- I   280        0.31     -0.03      5.11128
 Cr  130 -- I   142        0.31     -0.03      5.11128
 Cr  274 -- I   286        0.31     -0.03      5.11128
 Cr  250 -- I   262        0.31     -0.03      5.11128
 Cr  226 -- I   238        0.31     -0.03      5.11128
 Cr  106 -- I   118        0.31     -0.03      5.11128
 Cr   82 -- I    94        0.31     -0.03      5.11128
 Cr  266 -- I   278        0.31     -0.03      5.11128
 Cr  242 -- I   254        0.31     -0.03      5.11128
 Cr  218 -- I   230        0.31     -0.03      5.11128
 Cr  194 -- I   206        0.31     -0.03      5.11128
 Cr  122 -- I   134        0.31     -0.03      5.11128
 Cr   34 -- I    46        0.31     -0.03      5.11128
 Cr  154 -- I   166        0.31     -0.03      5.11128
 Cr   26 -- I    38        0.31     -0.03      5.11128
 Cr   10 -- I    22        0.31     -0.03      5.11128
 Cr   58 -- I    70        0.31     -0.03      5.11128
 Cr   50 -- I    62        0.31     -0.03      5.11128
 Cr    2 -- I    14        0.31     -0.03      5.11128
 Cr  170 -- I   182        0.31     -0.03      5.11128
 Cr   74 -- I    86        0.31     -0.03      5.11128
 Cr   98 -- I   110        0.31     -0.03      5.11128
 Cr  146 -- I   158        0.31     -0.03      5.11128
 Cr  202 -- I   214        0.31     -0.03      5.11128
 Cr  178 -- I   190        0.31     -0.03      5.11128
 I   198 -- Cr  282        0.31     -0.03      5.11128
 I   150 -- Cr  234        0.31     -0.03      5.11128
 I   174 -- Cr  258        0.31     -0.03      5.11128
 I    54 -- Cr  138        0.31     -0.03      5.11128
 I     6 -- Cr   90        0.31     -0.03      5.11128
 I    30 -- Cr  114        0.31     -0.03      5.11128
 Cr   18 -- I    78        0.31     -0.03      5.11128
 Cr   42 -- I   102        0.31     -0.03      5.11128
 Cr   66 -- I   126        0.31     -0.03      5.11128
 Cr  210 -- I   270        0.31     -0.03      5.11128
 Cr  162 -- I   222        0.31     -0.03      5.11128
 Cr  186 -- I   246        0.31     -0.03      5.11128
 Cr  265 -- I   270        0.31     -0.03      5.11131
 Cr  241 -- I   246        0.31     -0.03      5.11131
 Cr  217 -- I   222        0.31     -0.03      5.11131
 Cr   97 -- I   102        0.31     -0.03      5.11131
 Cr   73 -- I    78        0.31     -0.03      5.11131
 Cr  121 -- I   126        0.31     -0.03      5.11131
 Cr  249 -- I   280        0.31     -0.03      5.11131
 Cr  185 -- I   216        0.31     -0.03      5.11131
 Cr  161 -- I   192        0.31     -0.03      5.11131
 Cr  153 -- I   184        0.31     -0.03      5.11131
 Cr  177 -- I   208        0.31     -0.03      5.11131
 Cr   89 -- I   120        0.31     -0.03      5.11131
 Cr   33 -- I    64        0.31     -0.03      5.11131
 Cr  129 -- I   232        0.31     -0.03      5.11131
 Cr  113 -- I   144        0.31     -0.03      5.11131
 Cr  233 -- I   264        0.31     -0.03      5.11131
 Cr   41 -- I    72        0.31     -0.03      5.11131
 Cr   17 -- I    48        0.31     -0.03      5.11131
 Cr  105 -- I   136        0.31     -0.03      5.11131
 Cr   81 -- I   112        0.31     -0.03      5.11131
 Cr  137 -- I   240        0.31     -0.03      5.11131
 Cr    9 -- I    40        0.31     -0.03      5.11131
 Cr  225 -- I   256        0.31     -0.03      5.11131
 Cr  257 -- I   288        0.31     -0.03      5.11131
 Cr  145 -- I   176        0.31     -0.03      5.11131
 Cr  121 -- I   224        0.31     -0.03      5.11131
 Cr  241 -- I   272        0.31     -0.03      5.11131
 Cr   73 -- I   104        0.31     -0.03      5.11131
 Cr    1 -- I    32        0.31     -0.03      5.11131
 Cr   97 -- I   128        0.31     -0.03      5.11131
 Cr   25 -- I    56        0.31     -0.03      5.11131
 Cr  169 -- I   200        0.31     -0.03      5.11131
 Cr  217 -- I   248        0.31     -0.03      5.11131
 Cr  273 -- I   278        0.31     -0.03      5.11131
 Cr   81 -- I    86        0.31     -0.03      5.11131
 Cr  105 -- I   110        0.31     -0.03      5.11131
 Cr  281 -- I   286        0.31     -0.03      5.11131
 Cr  129 -- I   134        0.31     -0.03      5.11131
 Cr  249 -- I   254        0.31     -0.03      5.11131
 Cr  225 -- I   230        0.31     -0.03      5.11131
 Cr  137 -- I   142        0.31     -0.03      5.11131
 Cr  257 -- I   262        0.31     -0.03      5.11131
 Cr   65 -- I    70        0.31     -0.03      5.11131
 Cr   57 -- I    62        0.31     -0.03      5.11131
 Cr  113 -- I   118        0.31     -0.03      5.11131
 Cr   41 -- I    46        0.31     -0.03      5.11131
 Cr   17 -- I    22        0.31     -0.03      5.11131
 Cr  233 -- I   238        0.31     -0.03      5.11131
 Cr    9 -- I    14        0.31     -0.03      5.11131
[...]
*    I     148     -0.00132031  -0.00228394  -0.00476897 *
*    I     149     -0.00132368   0.00232475  -0.00476536 *
*    I     150     -0.00267711  -0.00001101   0.00476794 *
*    I     151      0.00131908   0.00228611   0.00476888 *
*    I     152      0.00132797  -0.00232260   0.00476571 *
*    Cr    153      0.00001112  -0.00000101   0.00000039 *
*    Cr    154     -0.00001952  -0.00000446  -0.00000083 *
*    I     155      0.00267692   0.00001712  -0.00476600 *
*    I     156     -0.00131710  -0.00228898  -0.00477216 *
*    I     157     -0.00132784   0.00232490  -0.00477229 *
*    I     158     -0.00267496  -0.00001222   0.00476466 *
*    I     159      0.00132416   0.00228419   0.00477299 *
*    I     160      0.00132315  -0.00232535   0.00477051 *
*    Cr    161      0.00001259  -0.00000824   0.00000008 *
*    Cr    162     -0.00002759   0.00001446   0.00000076 *
*    I     163      0.00267689   0.00002099  -0.00477038 *
*    I     164     -0.00131541  -0.00229168  -0.00477253 *
*    I     165     -0.00133173   0.00232179  -0.00476908 *
*    I     166     -0.00267909  -0.00001202   0.00477108 *
*    I     167      0.00132683   0.00228601   0.00477237 *
*    I     168      0.00132053  -0.00232962   0.00477138 *
*    Cr    169     -0.00000885  -0.00000088  -0.00000155 *
*    Cr    170     -0.00002035   0.00000399  -0.00000169 *
*    I     171      0.00267847   0.00001998  -0.00477066 *
*    I     172     -0.00131744  -0.00228596  -0.00477064 *
*    I     173     -0.00132733   0.00232601  -0.00476960 *
*    I     174     -0.00267239  -0.00001105   0.00476763 *
*    I     175      0.00132135   0.00228407   0.00477100 *
*    I     176      0.00132501  -0.00232405   0.00476818 *
*    Cr    177     -0.00001982   0.00001116  -0.00000242 *
*    Cr    178      0.00000645  -0.00000374  -0.00000207 *
*    I     179      0.00267734   0.00001689  -0.00476881 *
*    I     180     -0.00131674  -0.00228825  -0.00477382 *
*    I     181     -0.00132974   0.00232270  -0.00477065 *
*    I     182     -0.00267670  -0.00001301   0.00476916 *
*    I     183      0.00132297   0.00228454   0.00477386 *
*    I     184      0.00132168  -0.00233164   0.00477102 *
*    Cr    185      0.00000622  -0.00000990   0.00000025 *
*    Cr    186     -0.00000590   0.00001789  -0.00000080 *
*    I     187      0.00267655   0.00001640  -0.00476845 *
*    I     188     -0.00131435  -0.00228842  -0.00477286 *
*    I     189     -0.00132982   0.00232389  -0.00476949 *
*    I     190     -0.00267995  -0.00001257   0.00477185 *
*    I     191      0.00132466   0.00228584   0.00477317 *
*    I     192      0.00132157  -0.00233158   0.00477171 *
*    Cr    193      0.00000513  -0.00000464   0.00000046 *
*    Cr    194     -0.00001901   0.00000876  -0.00000061 *
*    I     195      0.00267530   0.00001394  -0.00476846 *
*    I     196     -0.00131762  -0.00228720  -0.00477140 *
*    I     197     -0.00132631   0.00232143  -0.00476865 *
*    I     198     -0.00267578  -0.00001461   0.00477124 *
*    I     199      0.00132150   0.00228506   0.00477085 *
*    I     200      0.00132292  -0.00232637   0.00476910 *
*    Cr    201     -0.00000329   0.00000904  -0.00000244 *
*    Cr    202     -0.00001373   0.00001643  -0.00000161 *
*    I     203      0.00267441   0.00001447  -0.00476678 *
*    I     204     -0.00131752  -0.00228557  -0.00477066 *
*    I     205     -0.00132985   0.00232136  -0.00476717 *
*    I     206     -0.00267552  -0.00001664   0.00477029 *
*    I     207      0.00132149   0.00228476   0.00477035 *
*    I     208      0.00132324  -0.00232785   0.00476936 *
*    Cr    209     -0.00001222   0.00001114   0.00000096 *
*    Cr    210      0.00000837   0.00001346   0.00000076 *
*    I     211      0.00267420   0.00001435  -0.00476639 *
*    I     212     -0.00132071  -0.00228465  -0.00476761 *
*    I     213     -0.00132665   0.00232386  -0.00476454 *
*    I     214     -0.00267606  -0.00001197   0.00476746 *
*    I     215      0.00131819   0.00228777   0.00476865 *
*    I     216      0.00132577  -0.00232417   0.00476536 *
*    Cr    217     -0.00000071  -0.00002659  -0.00000005 *
*    Cr    218     -0.00009219  -0.00004530   0.00000086 *
*    I     219      0.00267623   0.00001690  -0.00476956 *
*    I     220     -0.00130295  -0.00228437  -0.00476614 *
*    I     221     -0.00100268   0.00277293  -0.00509138 *
*    I     222     -0.00267868  -0.00000917   0.00476997 *
*    I     223      0.00131796   0.00228378   0.00476646 *
*    I     224      0.00187705  -0.00227052   0.00509347 *
*    Cr    225      0.00000288  -0.00002214  -0.00000097 *
*    Cr    226     -0.00003354  -0.00001253  -0.00000160 *
*    I     227      0.00266653   0.00001259  -0.00476153 *
*    I     228     -0.00131798  -0.00228725  -0.00476768 *
*    I     229     -0.00132745   0.00232090  -0.00476664 *
*    I     230     -0.00266104  -0.00000091   0.00476325 *
*    I     231      0.00132084   0.00228644   0.00476953 *
*    I     232      0.00132048  -0.00232606   0.00476641 *
*    Cr    233     -0.00000351  -0.00000311  -0.00000093 *
*    Cr    234     -0.00003006  -0.00000285  -0.00000079 *
*    I     235      0.00267570   0.00001510  -0.00476645 *
*    I     236     -0.00131852  -0.00228600  -0.00477116 *
*    I     237     -0.00132999   0.00231981  -0.00476523 *
*    I     238     -0.00267393  -0.00001173   0.00476681 *
*    I     239      0.00132168   0.00228490   0.00477066 *
*    I     240      0.00132318  -0.00232250   0.00476521 *
*    Cr    241      0.00000872  -0.00003241  -0.00000178 *
*    Cr    242     -0.00001680  -0.00000204  -0.00000195 *
*    I     243      0.00267580   0.00001710  -0.00476988 *
*    I     244     -0.00131609  -0.00228856  -0.00477040 *
*    I     245     -0.00132601   0.00232026  -0.00476608 *
*    I     246     -0.00267629  -0.00001148   0.00477153 *
*    I     247      0.00132351   0.00228582   0.00477060 *
*    I     248      0.00132381  -0.00232473   0.00476790 *
*    Cr    249      0.00000574  -0.00001898  -0.00000169 *
*    Cr    250     -0.00001964  -0.00000449  -0.00000104 *
*    I     251      0.00267332   0.00001657  -0.00476745 *
*    I     252     -0.00131733  -0.00228540  -0.00477006 *
*    I     253     -0.00132570   0.00232179  -0.00476757 *
*    I     254     -0.00267201  -0.00000944   0.00476658 *
*    I     255      0.00132285   0.00228712   0.00477265 *
*    I     256      0.00132469  -0.00231891   0.00476624 *
*    Cr    257      0.00000034  -0.00001261   0.00000028 *
*    Cr    258     -0.00002498   0.00000117  -0.00000046 *
*    I     259      0.00267580   0.00001632  -0.00476815 *
*    I     260     -0.00131817  -0.00228518  -0.00477174 *
*    I     261     -0.00132579   0.00232444  -0.00476891 *
*    I     262     -0.00267320  -0.00001093   0.00476838 *
*    I     263      0.00132150   0.00228708   0.00477173 *
*    I     264      0.00132450  -0.00232251   0.00476767 *
*    Cr    265      0.00001247  -0.00002758  -0.00000096 *
*    Cr    266     -0.00000064  -0.00000438  -0.00000074 *
*    I     267      0.00267408   0.00001194  -0.00476538 *
*    I     268     -0.00131706  -0.00228700  -0.00477147 *
*    I     269     -0.00132893   0.00232386  -0.00476748 *
*    I     270     -0.00267306  -0.00001192   0.00476534 *
*    I     271      0.00132104   0.00228547   0.00477094 *
*    I     272      0.00132410  -0.00232455   0.00476785 *
*    Cr    273      0.00001354  -0.00002112  -0.00000067 *
*    Cr    274     -0.00001091  -0.00000608   0.00000047 *
*    I     275      0.00267592   0.00001821  -0.00476895 *
*    I     276     -0.00131640  -0.00228631  -0.00477169 *
*    I     277     -0.00132760   0.00232302  -0.00476801 *
*    I     278     -0.00267359  -0.00001030   0.00476773 *
*    I     279      0.00132314   0.00228609   0.00477175 *
*    I     280      0.00132389  -0.00232251   0.00476829 *
*    Cr    281      0.00000991  -0.00000881   0.00000006 *
*    Cr    282     -0.00001312   0.00000395   0.00000029 *
*    I     283      0.00267577   0.00001960  -0.00477018 *
*    I     284     -0.00131818  -0.00228660  -0.00477075 *
*    I     285     -0.00132397   0.00232489  -0.00476944 *
*    I     286     -0.00267464  -0.00001077   0.00476870 *
*    I     287      0.00132029   0.00228372   0.00477187 *
*    I     288      0.00132492  -0.00232291   0.00476788 *
*                                                        *
**********************************************************
* TOTAL:           -0.00000000   0.00000000   0.00000000 *
**********************************************************
 
 
***********************************************************
********** Summary of Forces (values in Eh/a) *************
*                                                         *
* ---------------------- Minimum ------------------------ *
* Atom:        50, |F|min =    0.00000444                 *
* Components:     Fx|min       Fy|min       Fz|min        *
*               0.00000422   0.00000089  -0.00000104      *
*                                                         *
* ---------------------- Maximum ------------------------ *
* Atom:       126, |F|max =    0.00588655                 *
* Components:     Fx|max       Fy|max       Fz|max        *
*              -0.00290438  -0.00052260   0.00509342      *
*                                                         *
* ---------------- Root Mean Square Force --------------- *
*                  |F|rms =    0.00474063                 *
* Components:     Fx|rms       Fy|rms       Fz|rms        *
*               0.00163679   0.00163462   0.00413794      *
***********************************************************
 

------------------------------ TIMING INFORMATION ------------------------------
AVERAGE TIME:   30348.342s on     56 proc(s)                                    
TOTAL TIME:     30348.342s on     56 proc(s)                                    
==================== AVERAGE TIMINGS FROM ALL PROCS (CUMULATIVE) =====================
|| TAG                                         #calls     cpu time   %total  Gflops ||
|| hubbard_species_proj                       :     1        0.00s   0.000%  ------ ||
|| hubbard_ngwf_on_grid                       :     1        0.00s   0.000%  ------ ||
|| linalg_invert_sym_matrix                   :     4        0.01s   0.000%  ------ || (1 procs only)
|| hash_table_free                            :    62        0.00s   0.000%  ------ ||
|| sw_bessel_init_cpu                         :     1        0.01s   0.000%  ------ || (1 procs only)
|| hubbard_tensorial_correction               :     2        0.00s   0.000%  ------ ||
|| hubbard_projector_character                :     1        0.00s   0.000%  ------ ||
|| hubbard_ngwf_select                        :     1        0.00s   0.000%  ------ ||
|| density_fftbox_interp_mult_imbal           : 22374        0.00s   0.000%  ------ ||
|| ewald_calculate_forces_realspace           :     1        0.00s   0.000%  ------ ||
|| onetep.F90 final imbalance                 :     1        0.02s   0.000%  ------ ||
|| linalg_dgemv                               :    44        0.02s   0.000%  ------ ||
|| sparse_blacstospam3_real_fast_imbal        :    96        0.03s   0.000%  ------ ||
|| ewald_calculate_energy                     :     1        0.04s   0.000%  ------ ||
|| sparse_set_to_garbage                      :  1356        0.05s   0.000%  ------ ||
|| ewald_calculate_forces_recipspace          :     1        0.09s   0.000%  ------ ||
|| paw_tcore_hartree_on_grid                  :     1        0.09s   0.000%  ------ ||
|| sw_init                                    :   677        0.12s   0.000%  ------ ||
|| pseudo_make_structure_factor               :     1        0.15s   0.000%  ------ ||
|| paw_dij_hartree                            :   375        0.16s   0.001%  ------ ||
|| sparse_spam3toblacs_real_fast_B2           :  4592        0.18s   0.001%  ------ ||
|| hubbard_projection_mtx                     :    64        0.19s   0.001%  ------ ||
|| restart_hamiltonian_write                  :     2        0.21s   0.001%  ------ ||
|| onetep.F90 main loop imbalance             :     1        0.21s   0.001%  ------ ||
|| ewald_calculate_forces                     :     1        0.22s   0.001%  ------ ||
|| sparse_spam3toblacs_real_fast_imbal        :    82        0.33s   0.001%  ------ ||
|| augmentation_density_forces                :     1        0.37s   0.001%  ------ ||
|| sparse_init                                :     1        0.39s   0.001%  ------ ||
|| paw_tcore_hartree_calc_forces              :     1        0.74s   0.002%  ------ ||
|| basis_extract_function_from_box            :  3985        0.79s   0.003%  ------ ||
|| hubbard_projector_ham                      :   162        1.17s   0.004%  ------ ||
|| paw_tcore_density                          :     1        1.75s   0.006%  ------ ||
|| hubbard_ham_matrix                         :   163        1.78s   0.006%  ------ ||
|| sparse_spam3toblacs_real_fast_B1           :  4592        1.98s   0.007%  ------ ||
|| paw_dataset_init                           :     2        2.15s   0.007%  ------ ||
|| paw_nlcc_calculate_forces                  :     1        2.35s   0.008%  ------ ||
|| paw_sphere_density_on_grid                 :     1        2.78s   0.009%  ------ ||
|| sparse_spam3toblacs_real_fast              :    82        2.86s   0.009%  ------ ||
|| restart_kernel_write                       :    33        2.97s   0.010%  ------ ||
|| nonsc_forces_ngwfs_calc                    :     1        3.00s   0.010%  ------ ||
|| hubbard_energy_total                       :   341        3.79s   0.012%  ------ ||
|| sparse_blacstospam3_real_fast              :    96        5.42s   0.018%  ------ ||
|| paw_species_calc_proj_prec_mat             :     1        5.80s   0.019%  ------ ||
|| ngwfs_initialise_from_radial               :     4        5.81s   0.019%  ------ ||
|| sparse_embed_array_hotelling_invert        :    62        8.51s   0.028%  ------ ||
|| dense_eigensolve                           :    38       10.39s   0.034%  ------ ||
|| hubbard_calculate_forces                   :     1       10.77s   0.036%  ------ ||
|| edft_diag_ngwf_ham                         :    36       12.31s   0.041%  ------ ||
|| integrals_grad_spam3                       :     4       13.69s   0.045%  ------ ||
|| edft_apply_smearing_operator               :    18       18.71s   0.062%  ------ ||
|| sparse_trace                               : 11600       18.87s   0.062%  ------ ||
|| energy_and_force_init_cell                 :     1       20.65s   0.068%  ------ ||
|| kernel_purify                              :   501       22.06s   0.073%  ------ ||
|| ngwf_gradient_coeffs                       :    31       27.51s   0.091%  ------ ||
|| kernel_fix                                 :   155       28.61s   0.094%  ------ ||
|| lnv_gradient_norm                          :   155       29.00s   0.096%  ------ ||
|| hubbard_projector_update                   :     1       30.48s   0.100%  ------ ||
|| fourier_filter_cell                        :   390       30.62s   0.101% 141.402 ||
|| eigenstates_calculate                      :     1       32.04s   0.106%  ------ ||
|| hamiltonian_energy_components              :     1       37.06s   0.122%  ------ ||
|| basis_copy_function_to_box                 : 39021       38.64s   0.127%  ------ ||
|| projectors_func_grad_ovlp_box_spam3        :     6       40.72s   0.134%  ------ ||
|| aug_nl_calculate_forces                    :     1       41.80s   0.138%  ------ ||
|| hartree_on_grid_single                     :   338       44.30s   0.146%  ------ ||
|| fourier_apply_box_pair                     :  6055       46.27s   0.152%  1.779k ||
|| fourier_interpolate_cell                   :   678       53.80s   0.177% 139.921 ||
|| density_init_guess_real                    :     2       58.26s   0.192%  ------ ||
|| augmentation_screen_dij_spam3              :   337      110.51s   0.364%  ------ ||
|| forces_calculate                           :     1      127.66s   0.421%  ------ ||
|| cell_grid_deposit_box_real                 : 27276      137.24s   0.452%  ------ ||
|| sparse_product                             : 22434      161.14s   0.531%  ------ ||
|| aug_nonlocal_mat_spam3_embed_array         :   343      174.89s   0.576%  ------ ||
|| paw_dij_xc                                 :   375      182.78s   0.602%  ------ ||
|| fourier_apply_cell_backward                :  3043      199.76s   0.658% 152.169 ||
|| fourier_apply_cell_forward                 :  3043      225.27s   0.742% 134.935 ||
|| fourier_filter                             :  7348      225.91s   0.744%  ------ ||
|| restart_ngwfs_tightbox_output              :    30      244.80s   0.807%  ------ ||
|| aug_density_on_grid_spam3                  :   339      244.87s   0.807%  ------ ||
|| projectors_init_fftbox_recip               :   819      292.33s   0.963%  ------ ||
|| cell_grid_extract_box_real                 : 17240      297.91s   0.982%  ------ ||
|| fourier_interpolate                        :  7348      349.36s   1.151%  ------ ||
|| function_ops_brappd_ketppd_spam3           :   252      390.51s   1.287%  ------ ||
|| properties_calculate                       :     1      457.02s   1.506%  ------ ||
|| xc_energy_potential                        :   338      469.13s   1.546%  ------ ||
|| edft_calculate                             :     1      897.72s   2.958%  ------ ||
|| density_fftbox_deposit_to_cell             : 22374      918.98s   3.028%  ------ ||
|| projectors_func_ovlp_box_spam3             :   254      972.69s   3.205%  ------ ||
|| integrals_kinetic_spam3                    :   124     1060.22s   3.494%  ------ ||
|| basis_dot_function_with_box                : 13.63M    1494.83s   4.926%  ------ ||
|| potential_apply_to_ngwf_batch              :   980     1725.67s   5.686%  ------ ||
|| projectors_gradient_batch                  :   372     2017.55s   6.648%  ------ ||
|| fourier_apply_box                          : 120.5k    2899.49s   9.554%  1.878k ||
|| integrals_locpot_mat_els_batch             :   980     2949.02s   9.717%  ------ ||
|| fourier_interpolate_product                : 21792     3140.67s  10.349%  ------ ||
|| density_fftbox_interpolate_multiply        : 22374     3308.26s  10.901%  ------ ||
|| basis_add_function_to_box                  : 27.28M    3348.50s  11.034%  ------ ||
|| projectors_grad_precond_batch              :   186     3983.80s  13.127%  ------ ||
|| integrals_locpot_dbl_grid                  :   328     4678.73s  15.417%  ------ ||
|| density_batch_interp_deposit               :  2034     5285.92s  17.417%  ------ ||
|| density_batch_row_sums                     :  2034     5961.75s  19.644%  ------ ||
|| ngwf_gradient_build_batch                  :   186     6643.26s  21.890%  ------ ||
|| ngwf_gradient_batch                        :   186     9531.47s  31.407%  ------ ||
|| ngwf_gradient_lnv                          :    31     9679.35s  31.894%  ------ ||
|| density_on_dbl_grid                        :   678    11338.42s  37.361%  ------ ||
|| hamiltonian_lhxc_calculate                 :   335    12205.63s  40.218%  ------ ||
|| lnv_denskernel_optimise_cg                 :    31    15067.40s  49.648%  ------ ||
|| ngwf_cg_optimise                           :     1    28660.16s  94.437%  ------ ||
|| energy_and_forces                          :     1    30326.11s  99.927%  ------ ||
|| total_time                                 :     1    30348.34s 100.000%  ------ ||
======================================================================================
Overhead of generating timer report: 
- 0 ms averaging over threads,
- 5 ms ensuring consistency across MPI ranks,
- 27 ms printing in order.

Job completed: 22-10-2024 18:11 (+0100)

onetep_launcher: ONETEP seems to have finished correctly (zero exit code).
                 Brought to you by PID 58244 on nid003075.
