==================================================================================
It's Tue 22 Oct 2024 09:47:55 AM BST.
*** Starting onetep_launcher (node nid004672, PIDs 258173 258174 258175 258176 258177 258178 258179 258180)...
    - ONETEP arguments: U_0_-0.1.dat
    - Current directory: /mnt/lustre/a2fs-work3/work/e89/e89/phsmea/J_det/U_0_-0.1
    - Launcher executable directory: /mnt/lustre/a2fs-work3/work/e89/e89/phsmea/J_det/U_0_-0.1
    - (-e) ONETEP executable specified through command-line: /work/e89/e89/phsmea/onetep.archer2_2024_cray
      ... trying /work/e89/e89/phsmea/onetep.archer2_2024_cray
          -> looks OK
*** Setting up environment...
    - (-s) Process stack size: unlimited
    - (-t) OMP_NUM_THREADS: 16
    - (-o) OMP_STACKSIZE: 64M
    - (-c) Maximum core file size: 2048000
    - (-d) decfort_dump_flag: n
    - (-m) I_MPI_OFA_TRANSLATION_CACHE: 0
    - (-m) I_MPI_DAPL_TRANSLATION_CACHE: 0
    - (-m) I_MPI_DAPL_UD_TRANSLATION_CACHE: 0
*** Starting ONETEP...
    - /work/e89/e89/phsmea/onetep.archer2_2024_cray U_0_-0.1.dat
=================================================================================
_________________________________________________________________________________
 +---------------------------------------------------------------+
 |                                                               |
 |        ####### #     # ####### ####### ####### ######         |
 |        #     # ##    # #          #    #       #     #        |
 |        #     # # #   # #          #    #       #     #        |
 |        #     # #  #  # #####      #    #####   ######         |
 |        #     # #   # # #          #    #       #              |
 |        #     # #    ## #          #    #       #              |
 |        ####### #     # #######    #    ####### #              |
 |                                                               |
 |        Linear-Scaling Ab Initio Total Energy Program          |
 |                                                               |
 |          Release for academic collaborators of ODG            |
 |                                             Version 7.3.0     |
 | Remote: git@github.com:Miesaz/onetep_mea.git                  |
 | Local branch: master                                          |
 | Commit ID: 4af45e89288c8df5499704252eec3e032ee3d0c8           |
 | Date: Tue Aug 6 11:28:44 2024 +0100                           |
 | Working tree clean                                            |
 |                                                               |
 +---------------------------------------------------------------+
 |                                                               |
 |  Authors:                                                     |
 |  Jacek Dziedzic, Peter D. Haynes, Nicholas D. M. Hine,        |
 |  Arash A. Mostofi, Mike C. Payne and Chris-Kriton Skylaris    |
 |                                                               |
 |  Contributors:                                                |
 |  J. Aarons, L. Andrinopoulos, P. W. Avraam, R. A. Bell,       |
 |  A. Bhandari, G. A. Bramley, R. J. Charlton, S. J. Clark,     |
 |  R. J. Clements, G. C. Constantinescu, F. Corsetti,           |
 |  N. Corsini, O. Dieguez, S. M. M. Dubois, K. K. B. Duff,      |
 |  J. M. Escartin, M. Escobar Azor, A. Greco,                   |
 |  H. Helal, Q. O. Hill, L. P. Lee, J.-H. Li,                   |
 |  T. Li, E. B. Linscott, G. Moynihan, D. D. O`Regan,           |
 |  O. K. Okan, E. Parkinson, M. J. S. Phipps,                   |
 |  C. J. Pickard, J. C. A. Prentice, M. I. J. Probert,          |
 |  L. E. Ratcliff, M. Robinson, A. Ruiz Serrano,                |
 |  M. dos Santos Dias, J. S. Spencer, E. W. Tait,               |
 |  G. Teobaldi, D. Turban, V. Vitale, K. A. Wilkinson,          |
 |  C. Weber, J. C. Womack, Chengcheng Xiao, N. Yeung,           |
 |  and T. J. Zuehlsdorff.                                       |
 |                                                               |
 |                                   Copyright (c) 2004-2024     |
 |                                                               |
 |  Please cite:                                                 |
 |  "The ONETEP linear-scaling density functional theory program"|
 |   J. Chem. Phys. 152(17) 174111 (2020)                        |
 |                                                               |
 |          in all publications arising from your use of ONETEP. |
 |                                                               |
 +---------------------------------------------------------------+
 |                                                               |
 |   ONETEP is based on developments described in the following  |
 |   publications:                                               |
 |                                                               |
 |  "Nonorthogonal generalized Wannier function pseudopotential  |
 |   plane-wave method".                                         |
 |   C.-K. Skylaris, A. A. Mostofi, P. D. Haynes, O. Dieguez,    |
 |   M. C. Payne.                                                |
 |   Phys. Rev. B 66 035119 (2002).                              |
 |                                                               |
 |  "Preconditioned iterative minimization for linear-scaling    |
 |   electronic structure calculations".                         |
 |   A. A. Mostofi, P. D. Haynes, C.-K. Skylaris, M. C. Payne.   |
 |   J. Chem. Phys. 119(17), pp.8842-8848 (2003).                |
 |                                                               |
 |  "Total-energy calculations on a real space grid with         |
 |   localized functions and a plane-wave basis".                |
 |   A. A. Mostofi, C.-K. Skylaris, P. D. Haynes, M. C. Payne.   |
 |   Comput. Phys. Commun. 147, pp.788-802 (2002).               |
 |                                                               |
 |  "Accurate kinetic energy evaluation in electronic structure  |
 |   calculations with localized functions on real space grids"  |
 |   C.-K. Skylaris, A. A. Mostofi, P. D. Haynes, C. J. Pickard, |
 |   M. C. Payne.                                                |
 |   Comput. Phys. Commun. 140, pp.315-322 (2001).               |
 |                                                               |
 |  "Accurate ionic forces and geometry optimization in linear-  |
 |   scaling density-functional theory with local orbitals"      |
 |   N. D. M. Hine, M. Robinson, P. D. Haynes, C.-K. Skylaris,   |
 |   M. C. Payne, and A. A. Mostofi.                             |
 |   Phys. Rev. B 83 195102 (2011).                              |
 |                                                               |
 +---------------------------------------------------------------+

Job started: 22-10-2024 09:47 (+0100)
 
Reading parameters from file "U_0_-0.1.dat" ...
WARNING in get_rundat: hubbard_calculating_u is TRUE, so do_properties will be
overridden to TRUE.
... done

If your calculation crashes here, before "Checking processes and threads..."
is displayed, then your stack size is insufficient.
If so, use "ulimit -s unlimited" at runtime.
You can disable this check with "check_stack_size F".

Checking processes and threads...
   Running with 56 MPI processes.
   There are 8 MPI processes running on the same node as the root process.
   Each MPI process is using: 
               1 threads for simulation cell FFTs.
               1 threads for threaded FFT box operations.
              16 threads for loops over batched FFT box operations.
              16 threads in other parallel regions.
   MPI Interface: S1 (use mpi_f08) (-DMPI -DUSE_MPI_F08).
   MPI_ASYNC_PROTECTS_NONBLOCKING: Yes. MPI_SUBARRAYS_SUPPORTED: Yes.
   FFTW Interface: OMP-capable and MODERN. (-DUSE_MODERN_FFTW specified).
   GPU Interface: None.
   GPU FFT Backend: None.
... done

Basic input checks...... done

Reading geometry and species blocks from file "U_0_-0.1.dat" ...... done


--------------------------------------------------------------------------------
---------------------------------- INPUT FILE ----------------------------------
--------------------------------------------------------------------------------

charge : 0                                                                      
cutoff_energy : 1000 eV                                                         
do_properties : T                                                               
edft : F                                                                        
edft_init_maxit : 5                                                             
elec_energy_tol : 2e-07 Ha                                                      
fine_grid_scale : 4                                                             
forces_output_detail : VERBOSE                                                  
hubbard_calculating_u : T                                                       
maxit_ngwf_cg : 100                                                             
ngwf_threshold_orig : 1e-06                                                     
output_detail : BRIEF                                                           
paw : T                                                                         
spin_polarized : T                                                              
ngwfs_spin_polarized : T                                                        
read_denskern : F                                                               
read_hamiltonian : F                                                            
read_tightbox_ngwfs : F                                                         
spin : 216                                                                      
task : SinglePoint                                                              
write_denskern : T                                                              
write_forces : T                                                                
write_hamiltonian : T                                                           
write_tightbox_ngwfs : T                                                        
xc_functional : PBE                                                             
%BLOCK LATTICE_CART                                                             
ang                                                                             
41.261892132    0.000000000     0.000000000                                     
-20.630946066   35.733846792     0.000000000                                    
0.0000000000    0.000000000    17.192455055                                     
%ENDBLOCK LATTICE_CART                                                          
%BLOCK POSITIONS_ABS                                                            
ang                                                                             
Cr       3.43849101       1.98521371       9.03176873                           
Cr       0.00000000       3.97042742       9.03176919                           
I        4.42260340      -0.00001318       7.48054615                           
I        1.22717790       2.12556082       7.48054615                           
I       -2.21129029       3.83009349       7.48054615                           
I        2.45437873      -0.00001140      10.58299027                           
I        2.21129177       3.83009250      10.58299027                           
I       -1.22717949       2.12556004      10.58299027                           
Cr       0.00000000       7.94085485       9.03176873                           
Cr      -3.43849101       9.92606855       9.03176919                           
I        0.98411239       5.95562795       7.48054615                           
I       -2.21131311       8.08120195       7.48054615                           
I       -5.64978130       9.78573462       7.48054615                           
I       -0.98411228       5.95562973      10.58299027                           
I       -1.22719924       9.78573363      10.58299027                           
I       -4.66567050       8.08120117      10.58299027                           
Cr      -3.43849101      13.89649598       9.03176873                           
Cr      -6.87698202      15.88170968       9.03176919                           
I       -2.45437862      11.91126909       7.48054615                           
I       -5.64980412      14.03684309       7.48054615                           
I       -9.08827231      15.74137575       7.48054615                           
I       -4.42260329      11.91127086      10.58299027                           
I       -4.66569025      15.74137476      10.58299027                           
I       -8.10416151      14.03684230      10.58299027                           
Cr      10.31547303       1.98521371       9.03176873                           
Cr       6.87698202       3.97042742       9.03176919                           
I       11.29958542      -0.00001318       7.48054615                           
I        8.10415992       2.12556082       7.48054615                           
I        4.66569173       3.83009349       7.48054615                           
I        9.33136075      -0.00001140      10.58299027                           
I        9.08827380       3.83009250      10.58299027                           
I        5.64980253       2.12556004      10.58299027                           
Cr       6.87698202       7.94085485       9.03176873                           
Cr       3.43849101       9.92606855       9.03176919                           
I        7.86109441       5.95562795       7.48054615                           
I        4.66566891       8.08120195       7.48054615                           
I        1.22720072       9.78573462       7.48054615                           
I        5.89286974       5.95562973      10.58299027                           
I        5.64978278       9.78573363      10.58299027                           
I        2.21131152       8.08120117      10.58299027                           
Cr       3.43849101      13.89649598       9.03176873                           
Cr       0.00000000      15.88170968       9.03176919                           
I        4.42260340      11.91126909       7.48054615                           
I        1.22717790      14.03684309       7.48054615                           
I       -2.21129029      15.74137575       7.48054615                           
I        2.45437873      11.91127086      10.58299027                           
I        2.21129177      15.74137476      10.58299027                           
I       -1.22717949      14.03684230      10.58299027                           
Cr      17.19245505       1.98521371       9.03176873                           
Cr      13.75396404       3.97042742       9.03176919                           
I       18.17656744      -0.00001318       7.48054615                           
I       14.98114195       2.12556082       7.48054615                           
I       11.54267375       3.83009349       7.48054615                           
I       16.20834277      -0.00001140      10.58299027                           
I       15.96525582       3.83009250      10.58299027                           
I       12.52678455       2.12556004      10.58299027                           
Cr      13.75396404       7.94085485       9.03176873                           
Cr      10.31547303       9.92606855       9.03176919                           
I       14.73807643       5.95562795       7.48054615                           
I       11.54265094       8.08120195       7.48054615                           
I        8.10418274       9.78573462       7.48054615                           
I       12.76985176       5.95562973      10.58299027                           
I       12.52676481       9.78573363      10.58299027                           
I        9.08829354       8.08120117      10.58299027                           
Cr      10.31547303      13.89649598       9.03176873                           
Cr       6.87698202      15.88170968       9.03176919                           
I       11.29958542      11.91126909       7.48054615                           
I        8.10415992      14.03684309       7.48054615                           
I        4.66569173      15.74137575       7.48054615                           
I        9.33136075      11.91127086      10.58299027                           
I        9.08827380      15.74137476      10.58299027                           
I        5.64980253      14.03684230      10.58299027                           
Cr      -6.87698202      19.85213711       9.03176873                           
Cr     -10.31547303      21.83735082       9.03176919                           
I       -5.89286963      17.86691022       7.48054615                           
I       -9.08829513      19.99248422       7.48054615                           
I      -12.52676332      21.69701689       7.48054615                           
I       -7.86109430      17.86691200      10.58299027                           
I       -8.10418126      21.69701590      10.58299027                           
I      -11.54265252      19.99248344      10.58299027                           
Cr     -10.31547303      25.80777825       9.03176873                           
Cr     -13.75396404      27.79299195       9.03176919                           
I       -9.33136064      23.82255135       7.48054615                           
I      -12.52678614      25.94812535       7.48054615                           
I      -15.96525433      27.65265802       7.48054615                           
I      -11.29958531      23.82255313      10.58299027                           
I      -11.54267227      27.65265703      10.58299027                           
I      -14.98114353      25.94812457      10.58299027                           
Cr     -13.75396404      31.76341938       9.03176873                           
Cr     -17.19245505      33.74863308       9.03176919                           
I      -12.76985165      29.77819249       7.48054615                           
I      -15.96527715      31.90376649       7.48054615                           
I      -19.40374534      33.60829915       7.48054615                           
I      -14.73807632      29.77819426      10.58299027                           
I      -14.98116328      33.60829816      10.58299027                           
I      -18.41963454      31.90376570      10.58299027                           
Cr      -0.00000000      19.85213711       9.03176873                           
Cr      -3.43849101      21.83735082       9.03176919                           
I        0.98411239      17.86691022       7.48054615                           
I       -2.21131311      19.99248422       7.48054615                           
I       -5.64978130      21.69701689       7.48054615                           
I       -0.98411228      17.86691200      10.58299027                           
I       -1.22719923      21.69701590      10.58299027                           
I       -4.66567050      19.99248344      10.58299027                           
Cr      -3.43849101      25.80777825       9.03176873                           
Cr      -6.87698202      27.79299195       9.03176919                           
I       -2.45437862      23.82255135       7.48054615                           
I       -5.64980412      25.94812535       7.48054615                           
I       -9.08827231      27.65265802       7.48054615                           
I       -4.42260329      23.82255313      10.58299027                           
I       -4.66569025      27.65265703      10.58299027                           
I       -8.10416151      25.94812457      10.58299027                           
Cr      -6.87698202      31.76341938       9.03176873                           
Cr     -10.31547303      33.74863308       9.03176919                           
I       -5.89286963      29.77819249       7.48054615                           
I       -9.08829513      31.90376649       7.48054615                           
I      -12.52676332      33.60829915       7.48054615                           
I       -7.86109430      29.77819426      10.58299027                           
I       -8.10418126      33.60829816      10.58299027                           
I      -11.54265252      31.90376570      10.58299027                           
CrU       6.87698202      19.85213711       9.03176873                          
Cr       3.43849101      21.83735082       9.03176919                           
I        7.86109441      17.86691022       7.48054615                           
I        4.66566892      19.99248422       7.48054615                           
I        1.22720072      21.69701689       7.48054615                           
I        5.89286974      17.86691200      10.58299027                           
I        5.64978279      21.69701590      10.58299027                           
I        2.21131152      19.99248344      10.58299027                           
Cr       3.43849101      25.80777825       9.03176873                           
Cr      -0.00000000      27.79299195       9.03176919                           
I        4.42260340      23.82255135       7.48054615                           
I        1.22717791      25.94812535       7.48054615                           
I       -2.21129029      27.65265802       7.48054615                           
I        2.45437873      23.82255313      10.58299027                           
I        2.21129178      27.65265703      10.58299027                           
I       -1.22717949      25.94812457      10.58299027                           
Cr      -0.00000000      31.76341938       9.03176873                           
Cr      -3.43849101      33.74863308       9.03176919                           
I        0.98411239      29.77819249       7.48054615                           
I       -2.21131311      31.90376649       7.48054615                           
I       -5.64978130      33.60829915       7.48054615                           
I       -0.98411228      29.77819426      10.58299027                           
I       -1.22719923      33.60829816      10.58299027                           
I       -4.66567050      31.90376570      10.58299027                           
Cr      24.06943708       1.98521371       9.03176873                           
Cr      20.63094607       3.97042742       9.03176919                           
I       25.05354947      -0.00001318       7.48054615                           
I       21.85812397       2.12556082       7.48054615                           
I       18.41965578       3.83009349       7.48054615                           
I       23.08532480      -0.00001140      10.58299027                           
I       22.84223784       3.83009250      10.58299027                           
I       19.40376658       2.12556004      10.58299027                           
Cr      20.63094607       7.94085485       9.03176873                           
Cr      17.19245506       9.92606855       9.03176919                           
I       21.61505846       5.95562795       7.48054615                           
I       18.41963296       8.08120195       7.48054615                           
I       14.98116477       9.78573462       7.48054615                           
I       19.64683379       5.95562973      10.58299027                           
I       19.40374683       9.78573363      10.58299027                           
I       15.96527557       8.08120117      10.58299027                           
Cr      17.19245506      13.89649598       9.03176873                           
Cr      13.75396405      15.88170968       9.03176919                           
I       18.17656745      11.91126909       7.48054615                           
I       14.98114195      14.03684309       7.48054615                           
I       11.54267376      15.74137575       7.48054615                           
I       16.20834278      11.91127086      10.58299027                           
I       15.96525582      15.74137476      10.58299027                           
I       12.52678456      14.03684230      10.58299027                           
Cr      30.94641910       1.98521371       9.03176873                           
Cr      27.50792809       3.97042742       9.03176919                           
I       31.93053149      -0.00001318       7.48054615                           
I       28.73510599       2.12556082       7.48054615                           
I       25.29663780       3.83009349       7.48054615                           
I       29.96230682      -0.00001140      10.58299027                           
I       29.71921987       3.83009250      10.58299027                           
I       26.28074860       2.12556004      10.58299027                           
Cr      27.50792809       7.94085485       9.03176873                           
Cr      24.06943708       9.92606855       9.03176919                           
I       28.49204048       5.95562795       7.48054615                           
I       25.29661498       8.08120195       7.48054615                           
I       21.85814679       9.78573462       7.48054615                           
I       26.52381581       5.95562973      10.58299027                           
I       26.28072885       9.78573363      10.58299027                           
I       22.84225759       8.08120117      10.58299027                           
Cr      24.06943708      13.89649598       9.03176873                           
Cr      20.63094607      15.88170968       9.03176919                           
I       25.05354947      11.91126909       7.48054615                           
I       21.85812397      14.03684309       7.48054615                           
I       18.41965578      15.74137575       7.48054615                           
I       23.08532480      11.91127086      10.58299027                           
I       22.84223784      15.74137476      10.58299027                           
I       19.40376658      14.03684230      10.58299027                           
Cr      37.82340112       1.98521371       9.03176873                           
Cr      34.38491011       3.97042742       9.03176919                           
I       38.80751351      -0.00001318       7.48054615                           
I       35.61208802       2.12556082       7.48054615                           
I       32.17361982       3.83009349       7.48054615                           
I       36.83928884      -0.00001140      10.58299027                           
I       36.59620189       3.83009250      10.58299027                           
I       33.15773062       2.12556004      10.58299027                           
Cr      34.38491011       7.94085485       9.03176873                           
Cr      30.94641910       9.92606855       9.03176919                           
I       35.36902250       5.95562795       7.48054615                           
I       32.17359701       8.08120195       7.48054615                           
I       28.73512881       9.78573462       7.48054615                           
I       33.40079783       5.95562973      10.58299027                           
I       33.15771088       9.78573363      10.58299027                           
I       29.71923961       8.08120117      10.58299027                           
Cr      30.94641910      13.89649598       9.03176873                           
Cr      27.50792809      15.88170968       9.03176919                           
I       31.93053149      11.91126909       7.48054615                           
I       28.73510599      14.03684309       7.48054615                           
I       25.29663780      15.74137575       7.48054615                           
I       29.96230682      11.91127086      10.58299027                           
I       29.71921987      15.74137476      10.58299027                           
I       26.28074860      14.03684230      10.58299027                           
Cr      13.75396404      19.85213711       9.03176873                           
Cr      10.31547303      21.83735082       9.03176919                           
I       14.73807643      17.86691022       7.48054615                           
I       11.54265093      19.99248422       7.48054615                           
I        8.10418274      21.69701689       7.48054615                           
I       12.76985176      17.86691200      10.58299027                           
I       12.52676480      21.69701590      10.58299027                           
I        9.08829354      19.99248344      10.58299027                           
Cr      10.31547303      25.80777825       9.03176873                           
Cr       6.87698202      27.79299195       9.03176919                           
I       11.29958542      23.82255135       7.48054615                           
I        8.10415992      25.94812535       7.48054615                           
I        4.66569173      27.65265802       7.48054615                           
I        9.33136075      23.82255313      10.58299027                           
I        9.08827379      27.65265703      10.58299027                           
I        5.64980253      25.94812457      10.58299027                           
Cr       6.87698202      31.76341938       9.03176873                           
Cr       3.43849101      33.74863308       9.03176919                           
I        7.86109441      29.77819249       7.48054615                           
I        4.66566891      31.90376649       7.48054615                           
I        1.22720072      33.60829915       7.48054615                           
I        5.89286974      29.77819426      10.58299027                           
I        5.64978278      33.60829816      10.58299027                           
I        2.21131152      31.90376570      10.58299027                           
Cr      20.63094606      19.85213711       9.03176873                           
Cr      17.19245505      21.83735082       9.03176919                           
I       21.61505845      17.86691022       7.48054615                           
I       18.41963295      19.99248422       7.48054615                           
I       14.98116476      21.69701689       7.48054615                           
I       19.64683378      17.86691200      10.58299027                           
I       19.40374683      21.69701590      10.58299027                           
I       15.96527556      19.99248344      10.58299027                           
Cr      17.19245505      25.80777825       9.03176873                           
Cr      13.75396404      27.79299195       9.03176919                           
I       18.17656744      23.82255135       7.48054615                           
I       14.98114194      25.94812535       7.48054615                           
I       11.54267375      27.65265802       7.48054615                           
I       16.20834277      23.82255313      10.58299027                           
I       15.96525581      27.65265703      10.58299027                           
I       12.52678455      25.94812457      10.58299027                           
Cr      13.75396404      31.76341938       9.03176873                           
Cr      10.31547303      33.74863308       9.03176919                           
I       14.73807643      29.77819249       7.48054615                           
I       11.54265093      31.90376649       7.48054615                           
I        8.10418274      33.60829915       7.48054615                           
I       12.76985176      29.77819426      10.58299027                           
I       12.52676480      33.60829816      10.58299027                           
I        9.08829354      31.90376570      10.58299027                           
Cr      27.50792808      19.85213711       9.03176873                           
Cr      24.06943707      21.83735082       9.03176919                           
I       28.49204047      17.86691022       7.48054615                           
I       25.29661498      19.99248422       7.48054615                           
I       21.85814678      21.69701689       7.48054615                           
I       26.52381580      17.86691200      10.58299027                           
I       26.28072885      21.69701590      10.58299027                           
I       22.84225758      19.99248344      10.58299027                           
Cr      24.06943707      25.80777825       9.03176873                           
Cr      20.63094606      27.79299195       9.03176919                           
I       25.05354946      23.82255135       7.48054615                           
I       21.85812397      25.94812535       7.48054615                           
I       18.41965577      27.65265802       7.48054615                           
I       23.08532479      23.82255313      10.58299027                           
I       22.84223784      27.65265703      10.58299027                           
I       19.40376657      25.94812457      10.58299027                           
Cr      20.63094606      31.76341938       9.03176873                           
Cr      17.19245505      33.74863308       9.03176919                           
I       21.61505845      29.77819249       7.48054615                           
I       18.41963295      31.90376649       7.48054615                           
I       14.98116476      33.60829915       7.48054615                           
I       19.64683378      29.77819426      10.58299027                           
I       19.40374683      33.60829816      10.58299027                           
I       15.96527556      31.90376570      10.58299027                           
%ENDBLOCK POSITIONS_ABS                                                         
%BLOCK SPECIES                                                                  
Cr Cr 24 -1 15                                                                  
I   I  53 -1 15                                                                 
CrU Cr 24 -1 15                                                                 
%ENDBLOCK SPECIES                                                               
%BLOCK SPECIES_ATOMIC_SET                                                       
Cr  "SOLVE INIT SPIN=3"                                                         
I   "SOLVE"                                                                     
CrU "SOLVE INIT SPIN=3"                                                         
%ENDBLOCK SPECIES_ATOMIC_SET                                                    
%BLOCK HUBBARD                                                                  
CrU 2 0.0 0.0 -10.0 0.00 -0.10                                                  
%ENDBLOCK HUBBARD                                                               
%BLOCK SPECIES_LDOS_GROUPS                                                      
Cr                                                                              
I                                                                               
CrU                                                                             
%ENDBLOCK SPECIES_LDOS_GROUPS                                                   
%BLOCK SPECIES_POT                                                              
Cr  "/work/e89/e89/phsmea/U_det/Cr.PBE-paw.abinit"                              
I   "/work/e89/e89/phsmea/U_det/I.PBE-paw.abinit"                               
CrU "/work/e89/e89/phsmea/U_det/Cr.PBE-paw.abinit"                              
%ENDBLOCK SPECIES_POT                                                           

--------------------------------------------------------------------------------
-------------------------------- END INPUT FILE --------------------------------
--------------------------------------------------------------------------------


 
 ESDF WARNING(1): "charge" (esdf_physical) has no units. Assume "e".
<<<<<<<<<<<<<<<<<<<<<<<<<<<<<<<<< Full system >>>>>>>>>>>>>>>>>>>>>>>>>>>>>>>>>>
<<<<<<<<<<<<<<<<<<<<<<<<<<< PAW Dataset information >>>>>>>>>>>>>>>>>>>>>>>>>>>
File: /work/e89/e89/phsmea/U_det/Cr.PBE-paw.abinit; rc = 2.11 bohr; shape type =  2; rshape = 1.80 bohr;
  Atomic number: 24;  ionic charge: 14.000000
    Partial Wave 1: l = 0
    Partial Wave 2: l = 0
    Partial Wave 3: l = 1
    Partial Wave 4: l = 1
    Partial Wave 5: l = 2
    Partial Wave 6: l = 2
  Core charge supplied for Nonlinear Core Corrections
File: /work/e89/e89/phsmea/U_det/I.PBE-paw.abinit; rc = 2.30 bohr; shape type =  2; rshape = 2.11 bohr;
  Atomic number: 53;  ionic charge:  7.000000
    Partial Wave 1: l = 0
    Partial Wave 2: l = 0
    Partial Wave 3: l = 1
    Partial Wave 4: l = 1
  Core charge supplied for Nonlinear Core Corrections
<<<<<<<<<<<<<<<<<<<<<<<<<<<<<<<<<<<<<<< >>>>>>>>>>>>>>>>>>>>>>>>>>>>>>>>>>>>>>>

-------------------------- Atom counting information ---------------------------
Symbol    Natoms    Nngwfs    Nprojs
  Cr        72       936      1296
  I        216       864      1728
.......   ......    ......    ......
Totals:    288      1800      3024
--------------------------------------------------------------------------------

=============================== PSINC grid sizes ===============================
                      Simulation cell:  175 x 175 x  75
                              FFT-box:  175 x 175 x  75
                                  PPD:    5 x   5 x   1
================================================================================

Atom SCF Calculation for Cr : Z (AE atom) =  24 : Z (PS atom) =  14
Config String: 3s2.0 3p6.0 3d5.0 4s1.0 4p0.0 INIT SPIN=3
Orbitals (num,occ):  5     2.00 6.00 5.00 1.00 0.00
Orbitals   (num,l):  5        0    1    2    0    1
Atom SCF converged after  64 iterations to a total energy of    -87.07044631
Adjusting orbital occupancies:
Orbitals (num,spin,occ):  5  1     1.00 3.00 3.50 1.00 0.00
Orbitals   (num,spin,l):  5  1        0    1    2    0    1
Orbitals (num,spin,occ):  5  2     1.00 3.00 1.00 0.50 0.00
Orbitals   (num,spin,l):  5  2        0    1    2    0    1

Atom SCF Calculation for I  : Z (AE atom) =  53 : Z (PS atom) =   7
Config String: 5s2.0 5p5.0
Orbitals (num,occ):  2     2.00 5.00
Orbitals   (num,l):  2        0    1
Atom SCF converged after  28 iterations to a total energy of    -11.61352964

Atom SCF Calculation for Cr : Z (AE atom) =  24 : Z (PS atom) =  14
Config String: 3s2.0 3p6.0 3d5.0 4s1.0 4p0.0 INIT SPIN=3
Orbitals (num,occ):  5     2.00 6.00 5.00 1.00 0.00
Orbitals   (num,l):  5        0    1    2    0    1
Atom SCF converged after  64 iterations to a total energy of    -87.07044631
Adjusting orbital occupancies:
Orbitals (num,spin,occ):  5  1     1.00 3.00 3.50 1.00 0.00
Orbitals   (num,spin,l):  5  1        0    1    2    0    1
Orbitals (num,spin,occ):  5  2     1.00 3.00 1.00 0.50 0.00
Orbitals   (num,spin,l):  5  2        0    1    2    0    1

Atom SCF Calculation for Cr : Z (AE atom) =  24 : Z (PS atom) =  14
Config String: 3s2.0 3p6.0 3d5.0 4s1.0 4p0.0 INIT SPIN=3
Orbitals (num,occ):  5     2.00 6.00 5.00 1.00 0.00
Orbitals   (num,l):  5        0    1    2    0    1
Atom SCF converged after  64 iterations to a total energy of    -87.07044631

Atom SCF Calculation for I  : Z (AE atom) =  53 : Z (PS atom) =   7
Config String: 5s2.0 5p5.0
Orbitals (num,occ):  2     2.00 5.00
Orbitals   (num,l):  2        0    1
Atom SCF converged after  28 iterations to a total energy of    -11.61352964

Atom SCF Calculation for Cr : Z (AE atom) =  24 : Z (PS atom) =  14
Config String: 3s2.0 3p6.0 3d5.0 4s1.0 4p0.0 INIT SPIN=3
Orbitals (num,occ):  5     2.00 6.00 5.00 1.00 0.00
Orbitals   (num,l):  5        0    1    2    0    1
Atom SCF converged after  64 iterations to a total energy of    -87.07044631
Calculating Ewald energy ...             6126.916246 Hartree

============================= Charge Augmentation ==============================
                           Aug box size:   49 x  49 x  45
================================================================================

================================= Core Density =================================
               Core den box size:  125 x 125 x 117
================================================================================
Density kernel initialisation

################################################################################
###################### NGWF self-consistent optimisation #######################
################################################################################
|ITER|    RMS GRADIENT   |     TOTAL ENERGY    |   step   |     Epredicted      
   0     0.00009869389755  -8812.31755013832117   2.349249  -8816.22675576907204        
   1     0.00006752271477  -8816.44650878900757   1.629120  -8817.78533672421690        
   2     0.00004160740660  -8817.82124324712277   1.808364  -8818.37028690815350        
   3     0.00002882659516  -8818.39456770766446   1.957594  -8818.68492539203726        
   4     0.00002025824625  -8818.68624740091400   1.139709  -8818.76615289438996        
   5     0.00001353288756  -8818.76631816676490   1.989868  -8818.82835211786369        
   6     0.00001151168163  -8818.82725966761791   1.751432  -8818.86606180046147        
   7     0.00000899661186  -8818.86461829063774   1.585302  -8818.88568902484258        
   8     0.00000729546374  -8818.88467503454012   0.928930  -8818.89312135841647        
   9     0.00000479640196  -8818.89297586662542   2.206844  -8818.90165050566247        
  10     0.00000449509919  -8818.90129528754187   1.604861  -8818.90663945995766        
  11     0.00000317306099  -8818.90628684716467   2.319459  -8818.91010755885509        
  12     0.00000400611615  -8818.90908272236447   0.964683  -8818.91172762905262        
  13     0.00000214080940  -8818.91169451795759   2.489556  -8818.91361590338784        
  14     0.00000235800715  -8818.91333093146022   2.481949  -8818.91536026172435        
  15     0.00000230866823  -8818.91412827203203   2.046967  -8818.91509841806692        
  16     0.00000300683338  -8818.91381007369637   0.899880  -8818.91519996903480        
  17     0.00000196216458  -8818.91519276019244   2.062367  -8818.91654442904837        
  18     0.00000145296650  -8818.91648579215689   1.470361  -8818.91701763423589        
  19     0.00000089418472  -8818.91692278985101   2.141032  -8818.91718827763543        
  20     0.00000110754678  -8818.91705038816144   0.870434  -8818.91723279403413        
  21     0.00000051347853  -8818.91721684236654   2.497686  -8818.91731871717457        
  22     0.00000071891461  -8818.91725714551103   0.100000  -8818.91718564939583        

================================================================================
           ---------------- ENERGY COMPONENTS (Eh) ----------------
           | Kinetic                    :     1819.32074142566967 |
           | Core Hartree               :   -28372.50637824857770 |
           | CoreHart (non-coul chg cor):        0.00000000000000
           | Hartree                    :    13503.97172470445370 |
           | Exchange-correlation       :    -1248.29762498403511 |
           | Hubbard DFT+U correction   :        0.00526605931737 |
           | Ewald                      :     6126.91624599049464 |
           | Dij0                       :     -555.70081997234161 |
           | Dijhartree                 :      248.94577766137618 |
           | Exc [AE core]              :   -42415.10835365987440 |
           | Exc DC [AE core]           :    -1638.57917288040244 |
           | Exc [PS core]              :    -1032.29621938682112 |
           | Exc DC [PS core]           :     -982.36211442031038 |
           | Exc [Core]                 :   -41041.23993575423080 |
           | Total [Sphere]             :     -648.32724082978530 |
           | Total                      :    -8818.91726588246456 |
           --------------------------------------------------------
           Integrated compensation chrg.:      189.13476814754381
           Integrated density           :     2519.99993595258911
           Integrated spin density      :      215.99995949438221
           Integrated |spin density|    :      164.17981235375703
================================================================================

  23     0.00000067314080  -8818.91726588245729  <-- CG                                 

################################################################################
DFT+U information on atom      1 of Hubbard species CrU 
################################################################################
Occupancy matrix of Hubbard site      1 and spin      1 is 
  m_l =   -2          -1           0           1           2
  0.88705750  0.15358410  0.00000159  0.00000084  0.00000303
  0.15362222  0.76669481 -0.00000249  0.00000306 -0.00000263
  0.00000015 -0.00000036  0.99089989  0.00000002 -0.00000001
  0.00000207  0.00000300 -0.00000116  0.76669200 -0.15361960
  0.00000297 -0.00000135 -0.00000080 -0.15358291  0.88706046
################################################################################
Occupancy matrix of Hubbard site      1 and spin      2 is 
  m_l =   -2          -1           0           1           2
  0.26432484 -0.13426415 -0.00000231  0.00000237  0.00000216
 -0.13429567  0.37078819  0.00000217  0.00000177 -0.00000107
 -0.00000090  0.00000031  0.16224228  0.00000012  0.00000056
  0.00000131  0.00000182  0.00000114  0.37078600  0.13429727
  0.00000221 -0.00000217  0.00000134  0.13426697  0.26432804
WARNING: DFT+U ENERGY of Hubbard site      1 and spin      2 is negative.
################################################################################
Total occupancy of Hubbard site      1 is         5.73087401 e
Local magnetic moment of Hubbard site      1 is   2.86593531 mu_B
DFT+U energy of Hubbard site      1 is            0.00526606 Ha
################################################################################

##### For calculating the Hubbard U and Hund J #################################
DFT+U information on Hubbard site      1 of species CrU  and spin      1
The average Hxc+local potential is            -19.01161049 eV.
The average Hubbard potential is                0.05000000 eV.
The average non-local PAW contribution is     -10.94844625 eV.
################################################################################
DFT+U information on Hubbard site      1 of species CrU  and spin      2
The average Hxc+local potential is            -17.95285331 eV.
The average Hubbard potential is               -0.05000000 eV.
The average non-local PAW contribution is      -9.51509396 eV.
################################################################################

======================== Writing density and potential =========================
Writing "U_0_-0.1_ps_density.cube" ... done
Writing "U_0_-0.1_ps_spindensity.cube" ... done
Writing "U_0_-0.1_ae_density.cube" ... done
Writing "U_0_-0.1_ae_spindensity.cube" ... done
Writing "U_0_-0.1_potential.cube" ... done
Writing "U_0_-0.1_electrostatic_potential.cube" ... done
================================================================================

    Mulliken Atomic Populations
    ---------------------------
Species  Ion    Total   Charge (e)    Spin (hbar)
=================================================
  Cr     1      13.844      0.156      1.68
  Cr     2      13.844      0.156      1.68
  I      3       7.052     -0.052     -0.06
  I      4       7.052     -0.052     -0.06
  I      5       7.052     -0.052     -0.06
  I      6       7.052     -0.052     -0.06
  I      7       7.052     -0.052     -0.06
  I      8       7.052     -0.052     -0.06
  Cr     9      13.844      0.156      1.68
  Cr    10      13.844      0.156      1.68
  I     11       7.052     -0.052     -0.06
  I     12       7.052     -0.052     -0.06
  I     13       7.052     -0.052     -0.06
  I     14       7.052     -0.052     -0.06
  I     15       7.052     -0.052     -0.06
  I     16       7.052     -0.052     -0.06
  Cr    17      13.844      0.156      1.68
  Cr    18      13.844      0.156      1.68
  I     19       7.052     -0.052     -0.06
  I     20       7.052     -0.052     -0.06
  I     21       7.052     -0.052     -0.06
  I     22       7.052     -0.052     -0.06
  I     23       7.052     -0.052     -0.06
  I     24       7.052     -0.052     -0.06
  Cr    25      13.844      0.156      1.68
  Cr    26      13.844      0.156      1.68
  I     27       7.052     -0.052     -0.06
  I     28       7.052     -0.052     -0.06
  I     29       7.052     -0.052     -0.06
  I     30       7.052     -0.052     -0.06
  I     31       7.052     -0.052     -0.06
  I     32       7.052     -0.052     -0.06
  Cr    33      13.844      0.156      1.68
  Cr    34      13.844      0.156      1.68
  I     35       7.052     -0.052     -0.06
  I     36       7.052     -0.052     -0.06
  I     37       7.052     -0.052     -0.06
  I     38       7.052     -0.052     -0.06
  I     39       7.052     -0.052     -0.06
  I     40       7.052     -0.052     -0.06
  Cr    41      13.844      0.156      1.68
  Cr    42      13.844      0.156      1.68
  I     43       7.052     -0.052     -0.06
  I     44       7.052     -0.052     -0.06
  I     45       7.052     -0.052     -0.06
  I     46       7.052     -0.052     -0.06
  I     47       7.052     -0.052     -0.06
  I     48       7.052     -0.052     -0.06
  Cr    49      13.844      0.156      1.68
  Cr    50      13.844      0.156      1.68
  I     51       7.052     -0.052     -0.06
  I     52       7.052     -0.052     -0.06
  I     53       7.052     -0.052     -0.06
  I     54       7.052     -0.052     -0.06
  I     55       7.052     -0.052     -0.06
  I     56       7.052     -0.052     -0.06
  Cr    57      13.844      0.156      1.68
  Cr    58      13.844      0.156      1.68
  I     59       7.052     -0.052     -0.06
  I     60       7.052     -0.052     -0.06
  I     61       7.052     -0.052     -0.06
  I     62       7.052     -0.052     -0.06
  I     63       7.052     -0.052     -0.06
  I     64       7.052     -0.052     -0.06
  Cr    65      13.844      0.156      1.68
  Cr    66      13.844      0.156      1.68
  I     67       7.052     -0.052     -0.06
  I     68       7.052     -0.052     -0.06
  I     69       7.052     -0.052     -0.06
  I     70       7.052     -0.052     -0.06
  I     71       7.052     -0.052     -0.06
  I     72       7.052     -0.052     -0.06
  Cr    73      13.844      0.156      1.68
  Cr    74      13.844      0.156      1.68
  I     75       7.052     -0.052     -0.06
  I     76       7.052     -0.052     -0.06
  I     77       7.052     -0.052     -0.06
  I     78       7.052     -0.052     -0.06
  I     79       7.052     -0.052     -0.06
  I     80       7.052     -0.052     -0.06
  Cr    81      13.844      0.156      1.68
  Cr    82      13.844      0.156      1.68
  I     83       7.052     -0.052     -0.06
  I     84       7.052     -0.052     -0.06
  I     85       7.052     -0.052     -0.06
  I     86       7.052     -0.052     -0.06
  I     87       7.052     -0.052     -0.06
  I     88       7.052     -0.052     -0.06
  Cr    89      13.844      0.156      1.68
  Cr    90      13.844      0.156      1.68
  I     91       7.052     -0.052     -0.06
  I     92       7.052     -0.052     -0.06
  I     93       7.052     -0.052     -0.06
  I     94       7.052     -0.052     -0.06
  I     95       7.052     -0.052     -0.06
  I     96       7.052     -0.052     -0.06
  Cr    97      13.843      0.157      1.68
  Cr    98      13.845      0.155      1.68
  I     99       7.052     -0.052     -0.06
  I    100       7.052     -0.052     -0.06
  I    101       7.052     -0.052     -0.06
  I    102       7.052     -0.052     -0.06
  I    103       7.052     -0.052     -0.06
  I    104       7.052     -0.052     -0.06
  Cr   105      13.844      0.156      1.68
  Cr   106      13.844      0.156      1.68
  I    107       7.052     -0.052     -0.06
  I    108       7.052     -0.052     -0.06
  I    109       7.052     -0.052     -0.06
  I    110       7.052     -0.052     -0.06
  I    111       7.052     -0.052     -0.06
  I    112       7.052     -0.052     -0.06
  Cr   113      13.844      0.156      1.68
  Cr   114      13.844      0.156      1.68
  I    115       7.052     -0.052     -0.06
  I    116       7.052     -0.052     -0.06
  I    117       7.052     -0.052     -0.06
  I    118       7.052     -0.052     -0.06
  I    119       7.052     -0.052     -0.06
  I    120       7.052     -0.052     -0.06
  Cr   121      13.843      0.157      1.66
  Cr   122      13.845      0.155      1.68
  I    123       7.052     -0.052     -0.06
  I    124       7.052     -0.052     -0.06
  I    125       7.052     -0.052     -0.06
  I    126       7.052     -0.052     -0.06
  I    127       7.052     -0.052     -0.06
  I    128       7.052     -0.052     -0.06
  Cr   129      13.843      0.157      1.68
  Cr   130      13.845      0.155      1.68
  I    131       7.052     -0.052     -0.06
  I    132       7.052     -0.052     -0.06
  I    133       7.052     -0.052     -0.06
  I    134       7.052     -0.052     -0.06
  I    135       7.052     -0.052     -0.06
  I    136       7.052     -0.052     -0.06
  Cr   137      13.844      0.156      1.68
  Cr   138      13.844      0.156      1.68
  I    139       7.052     -0.052     -0.06
  I    140       7.052     -0.052     -0.06
  I    141       7.052     -0.052     -0.06
  I    142       7.052     -0.052     -0.06
  I    143       7.052     -0.052     -0.06
  I    144       7.052     -0.052     -0.06
  Cr   145      13.844      0.156      1.68
  Cr   146      13.843      0.157      1.68
  I    147       7.052     -0.052     -0.06
  I    148       7.052     -0.052     -0.06
  I    149       7.052     -0.052     -0.06
  I    150       7.052     -0.052     -0.06
  I    151       7.052     -0.052     -0.06
  I    152       7.052     -0.052     -0.06
  Cr   153      13.845      0.155      1.68
  Cr   154      13.844      0.156      1.68
  I    155       7.052     -0.052     -0.06
  I    156       7.052     -0.052     -0.06
  I    157       7.052     -0.052     -0.06
  I    158       7.052     -0.052     -0.06
  I    159       7.052     -0.052     -0.06
  I    160       7.052     -0.052     -0.06
  Cr   161      13.844      0.156      1.68
  Cr   162      13.844      0.156      1.68
  I    163       7.052     -0.052     -0.06
  I    164       7.052     -0.052     -0.06
  I    165       7.052     -0.052     -0.06
  I    166       7.052     -0.052     -0.06
  I    167       7.052     -0.052     -0.06
  I    168       7.052     -0.052     -0.06
  Cr   169      13.844      0.156      1.68
  Cr   170      13.844      0.156      1.68
  I    171       7.052     -0.052     -0.06
  I    172       7.052     -0.052     -0.06
  I    173       7.052     -0.052     -0.06
  I    174       7.052     -0.052     -0.06
  I    175       7.052     -0.052     -0.06
  I    176       7.052     -0.052     -0.06
  Cr   177      13.844      0.156      1.68
  Cr   178      13.843      0.157      1.68
  I    179       7.052     -0.052     -0.06
  I    180       7.052     -0.052     -0.06
  I    181       7.052     -0.052     -0.06
  I    182       7.052     -0.052     -0.06
  I    183       7.052     -0.052     -0.06
  I    184       7.052     -0.052     -0.06
  Cr   185      13.845      0.155      1.68
  Cr   186      13.844      0.156      1.68
  I    187       7.052     -0.052     -0.06
  I    188       7.052     -0.052     -0.06
  I    189       7.052     -0.052     -0.06
  I    190       7.052     -0.052     -0.06
  I    191       7.052     -0.052     -0.06
  I    192       7.052     -0.052     -0.06
  Cr   193      13.844      0.156      1.68
  Cr   194      13.844      0.156      1.68
  I    195       7.052     -0.052     -0.06
  I    196       7.052     -0.052     -0.06
  I    197       7.052     -0.052     -0.06
  I    198       7.052     -0.052     -0.06
  I    199       7.052     -0.052     -0.06
  I    200       7.052     -0.052     -0.06
  Cr   201      13.844      0.156      1.68
  Cr   202      13.844      0.156      1.68
  I    203       7.052     -0.052     -0.06
  I    204       7.052     -0.052     -0.06
  I    205       7.052     -0.052     -0.06
  I    206       7.052     -0.052     -0.06
  I    207       7.052     -0.052     -0.06
  I    208       7.052     -0.052     -0.06
  Cr   209      13.844      0.156      1.68
  Cr   210      13.843      0.157      1.68
  I    211       7.052     -0.052     -0.06
  I    212       7.052     -0.052     -0.06
  I    213       7.052     -0.052     -0.06
  I    214       7.052     -0.052     -0.06
  I    215       7.052     -0.052     -0.06
  I    216       7.052     -0.052     -0.06
  Cr   217      13.844      0.156      1.68
  Cr   218      13.844      0.156      1.68
  I    219       7.052     -0.052     -0.06
  I    220       7.052     -0.052     -0.06
  I    221       7.052     -0.052     -0.06
  I    222       7.052     -0.052     -0.06
  I    223       7.052     -0.052     -0.06
  I    224       7.052     -0.052     -0.06
  Cr   225      13.844      0.156      1.68
  Cr   226      13.844      0.156      1.68
  I    227       7.052     -0.052     -0.06
  I    228       7.052     -0.052     -0.06
  I    229       7.052     -0.052     -0.06
  I    230       7.052     -0.052     -0.06
  I    231       7.052     -0.052     -0.06
  I    232       7.052     -0.052     -0.06
  Cr   233      13.844      0.156      1.68
  Cr   234      13.844      0.156      1.68
  I    235       7.052     -0.052     -0.06
  I    236       7.052     -0.052     -0.06
  I    237       7.052     -0.052     -0.06
  I    238       7.052     -0.052     -0.06
  I    239       7.052     -0.052     -0.06
  I    240       7.052     -0.052     -0.06
  Cr   241      13.844      0.156      1.68
  Cr   242      13.844      0.156      1.68
  I    243       7.052     -0.052     -0.06
  I    244       7.052     -0.052     -0.06
  I    245       7.052     -0.052     -0.06
  I    246       7.052     -0.052     -0.06
  I    247       7.052     -0.052     -0.06
  I    248       7.052     -0.052     -0.06
  Cr   249      13.844      0.156      1.68
  Cr   250      13.844      0.156      1.68
  I    251       7.052     -0.052     -0.06
  I    252       7.052     -0.052     -0.06
  I    253       7.052     -0.052     -0.06
  I    254       7.052     -0.052     -0.06
  I    255       7.052     -0.052     -0.06
  I    256       7.052     -0.052     -0.06
  Cr   257      13.844      0.156      1.68
  Cr   258      13.844      0.156      1.68
  I    259       7.052     -0.052     -0.06
  I    260       7.052     -0.052     -0.06
  I    261       7.052     -0.052     -0.06
  I    262       7.052     -0.052     -0.06
  I    263       7.052     -0.052     -0.06
  I    264       7.052     -0.052     -0.06
  Cr   265      13.844      0.156      1.68
  Cr   266      13.844      0.156      1.68
  I    267       7.052     -0.052     -0.06
  I    268       7.052     -0.052     -0.06
  I    269       7.052     -0.052     -0.06
  I    270       7.052     -0.052     -0.06
  I    271       7.052     -0.052     -0.06
  I    272       7.052     -0.052     -0.06
  Cr   273      13.844      0.156      1.68
  Cr   274      13.844      0.156      1.68
  I    275       7.052     -0.052     -0.06
  I    276       7.052     -0.052     -0.06
  I    277       7.052     -0.052     -0.06
  I    278       7.052     -0.052     -0.06
  I    279       7.052     -0.052     -0.06
  I    280       7.052     -0.052     -0.06
  Cr   281      13.844      0.156      1.68
  Cr   282      13.844      0.156      1.68
  I    283       7.052     -0.052     -0.06
  I    284       7.052     -0.052     -0.06
  I    285       7.052     -0.052     -0.06
  I    286       7.052     -0.052     -0.06
  I    287       7.052     -0.052     -0.06
  I    288       7.052     -0.052     -0.06
=================================================

        Bond         Population      Spin       Length (bohr)
=============================================================
 Cr  186 -- I   191        0.31     -0.03      4.86412
 Cr  178 -- I   183        0.31     -0.03      4.86412
 Cr  154 -- I   159        0.31     -0.03      4.86412
 Cr  162 -- I   167        0.31     -0.03      4.86412
 Cr  146 -- I   151        0.31     -0.03      4.86412
 Cr   82 -- I    87        0.31     -0.03      4.86412
 Cr  250 -- I   255        0.31     -0.03      4.86412
 Cr  226 -- I   231        0.31     -0.03      4.86412
 Cr   74 -- I    79        0.31     -0.03      4.86412
 Cr   10 -- I    15        0.31     -0.03      4.86412
 Cr  106 -- I   111        0.31     -0.03      4.86412
 Cr   34 -- I    39        0.31     -0.03      4.86412
 Cr   42 -- I    47        0.31     -0.03      4.86412
 Cr   18 -- I    23        0.31     -0.03      4.86412
 Cr  114 -- I   119        0.31     -0.03      4.86412
 Cr    2 -- I     7        0.31     -0.03      4.86412
 Cr   90 -- I    95        0.31     -0.03      4.86412
 Cr  218 -- I   223        0.32     -0.03      4.86412
 Cr  258 -- I   263        0.31     -0.03      4.86412
 Cr  234 -- I   239        0.31     -0.03      4.86412
 Cr  274 -- I   279        0.31     -0.03      4.86412
 Cr  130 -- I   135        0.31     -0.03      4.86412
 Cr   98 -- I   103        0.31     -0.03      4.86412
 Cr   66 -- I    71        0.32     -0.03      4.86412
 Cr  242 -- I   247        0.31     -0.03      4.86412
 Cr   50 -- I    55        0.31     -0.03      4.86412
 Cr   26 -- I    31        0.31     -0.03      4.86412
 Cr   58 -- I    63        0.31     -0.03      4.86412
 Cr  210 -- I   215        0.31     -0.03      4.86412
 Cr  170 -- I   175        0.31     -0.03      4.86412
 Cr  122 -- I   127        0.31     -0.03      4.86412
 Cr  266 -- I   271        0.31     -0.03      4.86412
 Cr  282 -- I   287        0.31     -0.03      4.86412
 Cr  138 -- I   143        0.31     -0.03      4.86412
 Cr  202 -- I   207        0.31     -0.03      4.86412
 Cr  194 -- I   199        0.31     -0.03      4.86412
 Cr  210 -- I   212        0.31     -0.03      4.86413
 Cr  138 -- I   140        0.31     -0.03      4.86413
 Cr   90 -- I    92        0.31     -0.03      4.86413
 Cr  258 -- I   260        0.31     -0.03      4.86413
 Cr  234 -- I   236        0.31     -0.03      4.86413
 Cr   42 -- I    44        0.31     -0.03      4.86413
 Cr   66 -- I    68        0.32     -0.03      4.86413
 Cr  114 -- I   116        0.31     -0.03      4.86413
 Cr   18 -- I    20        0.31     -0.03      4.86413
 Cr  162 -- I   164        0.31     -0.03      4.86413
 Cr  282 -- I   284        0.31     -0.03      4.86413
 Cr  186 -- I   188        0.31     -0.03      4.86413
 Cr  194 -- I   196        0.31     -0.03      4.86413
 Cr  202 -- I   204        0.31     -0.03      4.86413
 Cr   50 -- I    52        0.31     -0.03      4.86413
 Cr   58 -- I    60        0.31     -0.03      4.86413
 Cr  122 -- I   124        0.31     -0.03      4.86413
 Cr  266 -- I   268        0.31     -0.03      4.86413
 Cr  274 -- I   276        0.31     -0.03      4.86413
 Cr  130 -- I   132        0.31     -0.03      4.86413
 Cr  154 -- I   156        0.31     -0.03      4.86413
 Cr  170 -- I   172        0.31     -0.03      4.86413
 Cr   34 -- I    36        0.31     -0.03      4.86413
 Cr   10 -- I    12        0.31     -0.03      4.86413
 Cr  146 -- I   148        0.31     -0.03      4.86413
 Cr    2 -- I     4        0.31     -0.03      4.86413
 Cr   26 -- I    28        0.31     -0.03      4.86413
 Cr  242 -- I   244        0.31     -0.03      4.86413
 Cr  218 -- I   220        0.32     -0.03      4.86413
 Cr  178 -- I   180        0.31     -0.03      4.86413
 Cr   74 -- I    76        0.31     -0.03      4.86413
 Cr   98 -- I   100        0.31     -0.03      4.86413
 Cr  250 -- I   252        0.31     -0.03      4.86413
 Cr  226 -- I   228        0.31     -0.03      4.86413
 Cr  106 -- I   108        0.31     -0.03      4.86413
 Cr   82 -- I    84        0.31     -0.03      4.86413
 Cr  153 -- I   159        0.31     -0.03      4.86414
 Cr  177 -- I   183        0.31     -0.03      4.86414
 Cr   41 -- I    47        0.31     -0.03      4.86414
 Cr  161 -- I   167        0.31     -0.03      4.86414
 Cr    9 -- I    15        0.31     -0.03      4.86414
 Cr  185 -- I   191        0.31     -0.03      4.86414
 Cr   33 -- I    39        0.31     -0.03      4.86414
 Cr   17 -- I    23        0.31     -0.03      4.86414
 Cr  113 -- I   119        0.31     -0.03      4.86414
 Cr   89 -- I    95        0.31     -0.03      4.86414
 Cr  233 -- I   239        0.31     -0.03      4.86414
 Cr  257 -- I   263        0.31     -0.03      4.86414
 Cr  249 -- I   255        0.31     -0.03      4.86414
 Cr  225 -- I   231        0.31     -0.03      4.86414
 Cr   81 -- I    87        0.31     -0.03      4.86414
 Cr  105 -- I   111        0.31     -0.03      4.86414
 Cr  209 -- I   215        0.31     -0.03      4.86414
 Cr   65 -- I    71        0.31     -0.03      4.86414
 Cr   57 -- I    63        0.31     -0.03      4.86414
 Cr  137 -- I   143        0.31     -0.03      4.86414
 Cr  201 -- I   207        0.31     -0.03      4.86414
 Cr  281 -- I   287        0.31     -0.03      4.86414
 Cr  129 -- I   135        0.31     -0.03      4.86414
 Cr  273 -- I   279        0.31     -0.03      4.86414
 Cr   73 -- I    79        0.31     -0.03      4.86414
 Cr  217 -- I   223        0.31     -0.03      4.86414
 Cr  145 -- I   151        0.31     -0.03      4.86414
 Cr    1 -- I     7        0.31     -0.03      4.86414
 Cr  121 -- I   127        0.32     -0.03      4.86414
 Cr  241 -- I   247        0.31     -0.03      4.86414
 Cr   97 -- I   103        0.31     -0.03      4.86414
 Cr  265 -- I   271        0.31     -0.03      4.86414
 Cr   49 -- I    55        0.31     -0.03      4.86414
 Cr   25 -- I    31        0.31     -0.03      4.86414
 Cr  169 -- I   175        0.31     -0.03      4.86414
 Cr  193 -- I   199        0.31     -0.03      4.86414
 Cr  193 -- I   196        0.31     -0.03      4.86414
 Cr   49 -- I    52        0.31     -0.03      4.86414
 Cr  265 -- I   268        0.31     -0.03      4.86414
 Cr  121 -- I   124        0.32     -0.03      4.86414
 Cr  257 -- I   260        0.31     -0.03      4.86414
 Cr  169 -- I   172        0.31     -0.03      4.86414
 Cr  145 -- I   148        0.31     -0.03      4.86414
 Cr   65 -- I    68        0.31     -0.03      4.86414
 Cr  137 -- I   140        0.31     -0.03      4.86414
 Cr  185 -- I   188        0.31     -0.03      4.86414
 Cr  281 -- I   284        0.31     -0.03      4.86414
 Cr  209 -- I   212        0.31     -0.03      4.86414
 Cr  161 -- I   164        0.31     -0.03      4.86414
 Cr    1 -- I     4        0.31     -0.03      4.86414
 Cr   41 -- I    44        0.31     -0.03      4.86414
 Cr  113 -- I   116        0.31     -0.03      4.86414
 Cr  241 -- I   244        0.31     -0.03      4.86414
 Cr   25 -- I    28        0.31     -0.03      4.86414
 Cr   17 -- I    20        0.31     -0.03      4.86414
 Cr   89 -- I    92        0.31     -0.03      4.86414
 Cr  217 -- I   220        0.31     -0.03      4.86414
 Cr  233 -- I   236        0.31     -0.03      4.86414
 Cr   97 -- I   100        0.31     -0.03      4.86414
 Cr   73 -- I    76        0.31     -0.03      4.86414
 Cr  273 -- I   276        0.31     -0.03      4.86414
 Cr  201 -- I   204        0.31     -0.03      4.86414
 Cr  129 -- I   132        0.31     -0.03      4.86414
 Cr   57 -- I    60        0.31     -0.03      4.86414
 Cr   81 -- I    84        0.31     -0.03      4.86414
 Cr  105 -- I   108        0.31     -0.03      4.86414
 Cr  249 -- I   252        0.31     -0.03      4.86414
 Cr  225 -- I   228        0.31     -0.03      4.86414
 Cr  153 -- I   156        0.31     -0.03      4.86414
 Cr   33 -- I    36        0.31     -0.03      4.86414
 Cr  177 -- I   180        0.31     -0.03      4.86414
 Cr    9 -- I    12        0.31     -0.03      4.86414
 I    27 -- Cr  114        0.31     -0.03      5.11128
 I     3 -- Cr   90        0.31     -0.03      5.11128
 I    51 -- Cr  138        0.31     -0.03      5.11128
 Cr  266 -- I   275        0.31     -0.03      5.11128
 Cr  122 -- I   131        0.31     -0.03      5.11128
 Cr   74 -- I    83        0.31     -0.03      5.11128
 Cr   98 -- I   107        0.31     -0.03      5.11128
 Cr  242 -- I   251        0.31     -0.03      5.11128
 Cr  218 -- I   227        0.32     -0.03      5.11128
 Cr  146 -- I   155        0.31     -0.03      5.11128
 Cr  170 -- I   179        0.31     -0.03      5.11128
 Cr   50 -- I    59        0.31     -0.03      5.11128
 Cr    2 -- I    11        0.31     -0.03      5.11128
 Cr   26 -- I    35        0.31     -0.03      5.11128
 Cr  194 -- I   203        0.31     -0.03      5.11128
 I   171 -- Cr  258        0.31     -0.03      5.11128
 I   195 -- Cr  282        0.31     -0.03      5.11128
 I   147 -- Cr  234        0.31     -0.03      5.11128
 Cr  194 -- I   197        0.31     -0.03      5.11128
 Cr  210 -- I   213        0.31     -0.03      5.11128
 Cr  250 -- I   253        0.31     -0.03      5.11128
 Cr  242 -- I   245        0.31     -0.03      5.11128
 Cr   50 -- I    53        0.31     -0.03      5.11128
 Cr  234 -- I   237        0.31     -0.03      5.11128
 Cr  226 -- I   229        0.31     -0.03      5.11128
 Cr  218 -- I   221        0.31     -0.03      5.11128
 Cr   26 -- I    29        0.31     -0.03      5.11128
 Cr  154 -- I   157        0.31     -0.03      5.11128
 Cr  146 -- I   149        0.31     -0.03      5.11128
 Cr  106 -- I   109        0.31     -0.03      5.11128
 Cr  282 -- I   285        0.31     -0.03      5.11128
 Cr    2 -- I     5        0.31     -0.03      5.11128
 Cr  122 -- I   125        0.31     -0.03      5.11128
 Cr  130 -- I   133        0.31     -0.03      5.11128
 Cr   10 -- I    13        0.31     -0.03      5.11128
 Cr   58 -- I    61        0.31     -0.03      5.11128
 Cr   42 -- I    45        0.31     -0.03      5.11128
 Cr   82 -- I    85        0.31     -0.03      5.11128
 Cr   34 -- I    37        0.31     -0.03      5.11128
 Cr   18 -- I    21        0.31     -0.03      5.11128
 Cr  138 -- I   141        0.31     -0.03      5.11128
 Cr   98 -- I   101        0.31     -0.03      5.11128
 Cr   90 -- I    93        0.31     -0.03      5.11128
 Cr  114 -- I   117        0.31     -0.03      5.11128
 Cr   66 -- I    69        0.32     -0.03      5.11128
 Cr  202 -- I   205        0.31     -0.03      5.11128
 Cr  170 -- I   173        0.31     -0.03      5.11128
 Cr   74 -- I    77        0.31     -0.03      5.11128
 Cr  274 -- I   277        0.31     -0.03      5.11128
 Cr  162 -- I   165        0.31     -0.03      5.11128
 Cr  266 -- I   269        0.31     -0.03      5.11128
 Cr  178 -- I   181        0.31     -0.03      5.11128
 Cr  258 -- I   261        0.31     -0.03      5.11128
 Cr  186 -- I   189        0.31     -0.03      5.11128
 Cr  186 -- I   243        0.31     -0.03      5.11128
 Cr  210 -- I   267        0.31     -0.03      5.11128
 Cr  162 -- I   219        0.31     -0.03      5.11128
 Cr  274 -- I   283        0.31     -0.03      5.11128
 Cr  130 -- I   139        0.31     -0.03      5.11128
 Cr   82 -- I    91        0.31     -0.03      5.11128
 Cr  106 -- I   115        0.31     -0.03      5.11128
 Cr   34 -- I    43        0.31     -0.03      5.11128
 Cr   58 -- I    67        0.31     -0.03      5.11128
 Cr  226 -- I   235        0.31     -0.03      5.11128
 Cr  202 -- I   211        0.31     -0.03      5.11128
 Cr  178 -- I   187        0.31     -0.03      5.11128
 Cr   10 -- I    19        0.31     -0.03      5.11128
 Cr  154 -- I   163        0.31     -0.03      5.11128
 Cr  250 -- I   259        0.31     -0.03      5.11128
 Cr   18 -- I    75        0.31     -0.03      5.11128
 Cr   66 -- I   123        0.31     -0.03      5.11128
 Cr   42 -- I    99        0.31     -0.03      5.11128
 Cr  234 -- I   240        0.31     -0.03      5.11128
 Cr  138 -- I   144        0.31     -0.03      5.11128
 Cr  282 -- I   288        0.31     -0.03      5.11128
 Cr  258 -- I   264        0.31     -0.03      5.11128
 Cr  114 -- I   120        0.31     -0.03      5.11128
 Cr   90 -- I    96        0.31     -0.03      5.11128
 Cr  242 -- I   248        0.31     -0.03      5.11128
 Cr  122 -- I   128        0.31     -0.03      5.11128
 Cr  218 -- I   224        0.31     -0.03      5.11128
 Cr  194 -- I   200        0.31     -0.03      5.11128
 Cr   98 -- I   104        0.31     -0.03      5.11128
 Cr   74 -- I    80        0.31     -0.03      5.11128
 Cr  210 -- I   216        0.31     -0.03      5.11128
 Cr   42 -- I    48        0.31     -0.03      5.11128
 Cr   66 -- I    72        0.32     -0.03      5.11128
 Cr   50 -- I    56        0.31     -0.03      5.11128
 Cr   18 -- I    24        0.31     -0.03      5.11128
 Cr   26 -- I    32        0.31     -0.03      5.11128
 Cr   10 -- I    16        0.31     -0.03      5.11128
 Cr  250 -- I   256        0.31     -0.03      5.11128
 Cr    2 -- I     8        0.31     -0.03      5.11128
 Cr   34 -- I    40        0.31     -0.03      5.11128
 Cr  146 -- I   152        0.31     -0.03      5.11128
 Cr  266 -- I   272        0.31     -0.03      5.11128
 Cr  154 -- I   160        0.31     -0.03      5.11128
 Cr   58 -- I    64        0.31     -0.03      5.11128
 Cr  202 -- I   208        0.31     -0.03      5.11128
 Cr  162 -- I   168        0.31     -0.03      5.11128
 Cr  170 -- I   176        0.31     -0.03      5.11128
 Cr  178 -- I   184        0.31     -0.03      5.11128
 Cr  130 -- I   136        0.31     -0.03      5.11128
 Cr  226 -- I   232        0.31     -0.03      5.11128
 Cr  106 -- I   112        0.31     -0.03      5.11128
 Cr   82 -- I    88        0.31     -0.03      5.11128
 Cr  186 -- I   192        0.31     -0.03      5.11128
 Cr  274 -- I   280        0.31     -0.03      5.11128
 Cr  130 -- I   142        0.31     -0.03      5.11128
 Cr  274 -- I   286        0.31     -0.03      5.11128
 Cr  250 -- I   262        0.31     -0.03      5.11128
 Cr  226 -- I   238        0.31     -0.03      5.11128
 Cr  106 -- I   118        0.31     -0.03      5.11128
 Cr   82 -- I    94        0.31     -0.03      5.11128
 Cr  266 -- I   278        0.31     -0.03      5.11128
 Cr  242 -- I   254        0.31     -0.03      5.11128
 Cr  218 -- I   230        0.32     -0.03      5.11128
 Cr  194 -- I   206        0.31     -0.03      5.11128
 Cr  122 -- I   134        0.31     -0.03      5.11128
 Cr   34 -- I    46        0.31     -0.03      5.11128
 Cr  154 -- I   166        0.31     -0.03      5.11128
 Cr   26 -- I    38        0.31     -0.03      5.11128
 Cr   10 -- I    22        0.31     -0.03      5.11128
 Cr   58 -- I    70        0.31     -0.03      5.11128
 Cr   50 -- I    62        0.31     -0.03      5.11128
 Cr    2 -- I    14        0.31     -0.03      5.11128
 Cr  170 -- I   182        0.31     -0.03      5.11128
 Cr   74 -- I    86        0.31     -0.03      5.11128
 Cr   98 -- I   110        0.31     -0.03      5.11128
 Cr  146 -- I   158        0.31     -0.03      5.11128
 Cr  202 -- I   214        0.31     -0.03      5.11128
 Cr  178 -- I   190        0.31     -0.03      5.11128
 I   198 -- Cr  282        0.31     -0.03      5.11128
 I   150 -- Cr  234        0.31     -0.03      5.11128
 I   174 -- Cr  258        0.31     -0.03      5.11128
 I    54 -- Cr  138        0.31     -0.03      5.11128
 I     6 -- Cr   90        0.31     -0.03      5.11128
 I    30 -- Cr  114        0.31     -0.03      5.11128
 Cr   18 -- I    78        0.31     -0.03      5.11128
 Cr   42 -- I   102        0.31     -0.03      5.11128
 Cr   66 -- I   126        0.31     -0.03      5.11128
 Cr  210 -- I   270        0.31     -0.03      5.11128
 Cr  162 -- I   222        0.31     -0.03      5.11128
 Cr  186 -- I   246        0.31     -0.03      5.11128
 Cr  265 -- I   270        0.31     -0.03      5.11131
 Cr  241 -- I   246        0.31     -0.03      5.11131
 Cr  217 -- I   222        0.31     -0.03      5.11131
 Cr   97 -- I   102        0.31     -0.03      5.11131
 Cr   73 -- I    78        0.31     -0.03      5.11131
 Cr  121 -- I   126        0.32     -0.03      5.11131
 Cr  249 -- I   280        0.31     -0.03      5.11131
 Cr  185 -- I   216        0.31     -0.03      5.11131
 Cr  161 -- I   192        0.31     -0.03      5.11131
 Cr  153 -- I   184        0.31     -0.03      5.11131
 Cr  177 -- I   208        0.31     -0.03      5.11131
 Cr   89 -- I   120        0.31     -0.03      5.11131
 Cr   33 -- I    64        0.31     -0.03      5.11131
 Cr  129 -- I   232        0.31     -0.03      5.11131
 Cr  113 -- I   144        0.31     -0.03      5.11131
 Cr  233 -- I   264        0.31     -0.03      5.11131
 Cr   41 -- I    72        0.31     -0.03      5.11131
 Cr   17 -- I    48        0.31     -0.03      5.11131
 Cr  105 -- I   136        0.31     -0.03      5.11131
 Cr   81 -- I   112        0.31     -0.03      5.11131
 Cr  137 -- I   240        0.31     -0.03      5.11131
 Cr    9 -- I    40        0.31     -0.03      5.11131
 Cr  225 -- I   256        0.31     -0.03      5.11131
 Cr  257 -- I   288        0.31     -0.03      5.11131
 Cr  145 -- I   176        0.31     -0.03      5.11131
 Cr  121 -- I   224        0.32     -0.03      5.11131
 Cr  241 -- I   272        0.31     -0.03      5.11131
 Cr   73 -- I   104        0.31     -0.03      5.11131
 Cr    1 -- I    32        0.31     -0.03      5.11131
 Cr   97 -- I   128        0.31     -0.03      5.11131
 Cr   25 -- I    56        0.31     -0.03      5.11131
 Cr  169 -- I   200        0.31     -0.03      5.11131
 Cr  217 -- I   248        0.31     -0.03      5.11131
 Cr  273 -- I   278        0.31     -0.03      5.11131
 Cr   81 -- I    86        0.31     -0.03      5.11131
 Cr  105 -- I   110        0.31     -0.03      5.11131
 Cr  281 -- I   286        0.31     -0.03      5.11131
 Cr  129 -- I   134        0.31     -0.03      5.11131
 Cr  249 -- I   254        0.31     -0.03      5.11131
 Cr  225 -- I   230        0.31     -0.03      5.11131
 Cr  137 -- I   142        0.31     -0.03      5.11131
 Cr  257 -- I   262        0.31     -0.03      5.11131
 Cr   65 -- I    70        0.31     -0.03      5.11131
 Cr   57 -- I    62        0.31     -0.03      5.11131
 Cr  113 -- I   118        0.31     -0.03      5.11131
 Cr   41 -- I    46        0.31     -0.03      5.11131
 Cr   17 -- I    22        0.31     -0.03      5.11131
 Cr  233 -- I   238        0.31     -0.03      5.11131
 Cr    9 -- I    14        0.31     -0.03      5.11131
 Cr  201 -- I   206        0.31     -0.03      5.11131
 Cr   89 -- I    94        0.31     -0.03      5.11131
 Cr  177 -- I   182        0.31     -0.03      5.11131
 Cr  161 -- I   166        0.31     -0.03      5.11131
 Cr   33 -- I    38        0.31     -0.03      5.11131
 Cr  153 -- I   158        0.31     -0.03      5.11131
 Cr  185 -- I   190        0.31     -0.03      5.11131
 Cr  209 -- I   214        0.31     -0.03      5.11131
 Cr   65 -- I   168        0.31     -0.03      5.11131
 Cr   57 -- I   160        0.31     -0.03      5.11131
 Cr   49 -- I   152        0.31     -0.03      5.11131
[...]
*    I     148     -0.00133238  -0.00231236  -0.00481454 *
*    I     149     -0.00134244   0.00234375  -0.00481004 *
*    I     150     -0.00270074  -0.00000724   0.00481075 *
*    I     151      0.00133738   0.00231054   0.00481439 *
*    I     152      0.00134010  -0.00234545   0.00481026 *
*    Cr    153      0.00001020  -0.00000189   0.00000018 *
*    Cr    154     -0.00002159  -0.00000639  -0.00000072 *
*    I     155      0.00270194   0.00001547  -0.00481108 *
*    I     156     -0.00133285  -0.00231214  -0.00481411 *
*    I     157     -0.00134166   0.00234367  -0.00481206 *
*    I     158     -0.00270044  -0.00000657   0.00481005 *
*    I     159      0.00133629   0.00231010   0.00481456 *
*    I     160      0.00133870  -0.00234336   0.00481069 *
*    Cr    161      0.00001053  -0.00000713  -0.00000015 *
*    Cr    162     -0.00002374   0.00001281   0.00000041 *
*    I     163      0.00270006   0.00001507  -0.00481114 *
*    I     164     -0.00133265  -0.00231457  -0.00481473 *
*    I     165     -0.00134215   0.00234176  -0.00481174 *
*    I     166     -0.00270213  -0.00001046   0.00481176 *
*    I     167      0.00133806   0.00231201   0.00481457 *
*    I     168      0.00133586  -0.00234685   0.00481126 *
*    Cr    169     -0.00000757  -0.00000160  -0.00000130 *
*    Cr    170     -0.00001898   0.00000491  -0.00000152 *
*    I     171      0.00270288   0.00001599  -0.00481318 *
*    I     172     -0.00133181  -0.00231175  -0.00481427 *
*    I     173     -0.00134250   0.00234481  -0.00481204 *
*    I     174     -0.00269721  -0.00000793   0.00480971 *
*    I     175      0.00133634   0.00230895   0.00481476 *
*    I     176      0.00133941  -0.00234394   0.00481073 *
*    Cr    177     -0.00002274   0.00001308  -0.00000181 *
*    Cr    178      0.00001027  -0.00000603  -0.00000195 *
*    I     179      0.00270110   0.00001364  -0.00481135 *
*    I     180     -0.00133153  -0.00231159  -0.00481425 *
*    I     181     -0.00134263   0.00234218  -0.00481083 *
*    I     182     -0.00270060  -0.00000941   0.00481158 *
*    I     183      0.00133576   0.00230934   0.00481445 *
*    I     184      0.00133830  -0.00234805   0.00481121 *
*    Cr    185      0.00000639  -0.00000859   0.00000001 *
*    Cr    186     -0.00000513   0.00002074  -0.00000071 *
*    I     187      0.00269948   0.00001101  -0.00480913 *
*    I     188     -0.00133065  -0.00231183  -0.00481439 *
*    I     189     -0.00134238   0.00234368  -0.00481058 *
*    I     190     -0.00270285  -0.00001081   0.00481181 *
*    I     191      0.00133681   0.00231120   0.00481487 *
*    I     192      0.00133836  -0.00234809   0.00481225 *
*    Cr    193      0.00000459  -0.00000425   0.00000012 *
*    Cr    194     -0.00001721   0.00000800  -0.00000046 *
*    I     195      0.00270073   0.00001117  -0.00481186 *
*    I     196     -0.00133179  -0.00231304  -0.00481547 *
*    I     197     -0.00134189   0.00234155  -0.00481158 *
*    I     198     -0.00270076  -0.00001087   0.00481396 *
*    I     199      0.00133700   0.00231002   0.00481490 *
*    I     200      0.00133848  -0.00234655   0.00481262 *
*    Cr    201     -0.00000189   0.00000853  -0.00000227 *
*    Cr    202     -0.00001390   0.00001489  -0.00000165 *
*    I     203      0.00269983   0.00001162  -0.00481046 *
*    I     204     -0.00133164  -0.00231109  -0.00481455 *
*    I     205     -0.00134480   0.00234077  -0.00480997 *
*    I     206     -0.00270034  -0.00001300   0.00481322 *
*    I     207      0.00133673   0.00231016   0.00481416 *
*    I     208      0.00133817  -0.00234666   0.00481167 *
*    Cr    209     -0.00001502   0.00001395   0.00000083 *
*    Cr    210      0.00001143   0.00001310   0.00000039 *
*    I     211      0.00269891   0.00001215  -0.00480921 *
*    I     212     -0.00133275  -0.00231274  -0.00481319 *
*    I     213     -0.00134412   0.00234314  -0.00480993 *
*    I     214     -0.00270045  -0.00000850   0.00481046 *
*    I     215      0.00133669   0.00231203   0.00481404 *
*    I     216      0.00133923  -0.00234565   0.00481065 *
*    Cr    217      0.00000945  -0.00002978   0.00000095 *
*    Cr    218      0.00000613   0.00000968   0.00000064 *
*    I     219      0.00269905   0.00001292  -0.00480953 *
*    I     220     -0.00134223  -0.00231666  -0.00481426 *
*    I     221     -0.00150055   0.00212073  -0.00465137 *
*    I     222     -0.00270104  -0.00000996   0.00481212 *
*    I     223      0.00133990   0.00231385   0.00481483 *
*    I     224      0.00106911  -0.00237210   0.00465316 *
*    Cr    225      0.00000612  -0.00001000  -0.00000210 *
*    Cr    226     -0.00003307  -0.00000813  -0.00000100 *
*    I     227      0.00270033   0.00001374  -0.00480905 *
*    I     228     -0.00133402  -0.00231123  -0.00481408 *
*    I     229     -0.00134325   0.00234051  -0.00480939 *
*    I     230     -0.00270508  -0.00001536   0.00481050 *
*    I     231      0.00133701   0.00231070   0.00481310 *
*    I     232      0.00133780  -0.00234450   0.00481180 *
*    Cr    233     -0.00000337  -0.00000354  -0.00000072 *
*    Cr    234     -0.00003190  -0.00000433  -0.00000050 *
*    I     235      0.00270192   0.00001185  -0.00481073 *
*    I     236     -0.00133292  -0.00231178  -0.00481542 *
*    I     237     -0.00134367   0.00234214  -0.00481071 *
*    I     238     -0.00270001  -0.00000912   0.00481118 *
*    I     239      0.00133675   0.00231064   0.00481484 *
*    I     240      0.00134075  -0.00234279   0.00481058 *
*    Cr    241      0.00000818  -0.00003372  -0.00000119 *
*    Cr    242     -0.00001382  -0.00000291  -0.00000114 *
*    I     243      0.00269923   0.00001322  -0.00480993 *
*    I     244     -0.00133163  -0.00231213  -0.00481255 *
*    I     245     -0.00134215   0.00234015  -0.00480689 *
*    I     246     -0.00269973  -0.00000938   0.00481166 *
*    I     247      0.00133577   0.00231091   0.00481238 *
*    I     248      0.00133728  -0.00234265   0.00480825 *
*    Cr    249      0.00000523  -0.00001598  -0.00000159 *
*    Cr    250     -0.00001629  -0.00000339  -0.00000169 *
*    I     251      0.00269696   0.00001297  -0.00480851 *
*    I     252     -0.00133144  -0.00231139  -0.00481268 *
*    I     253     -0.00134148   0.00233982  -0.00480905 *
*    I     254     -0.00269642  -0.00000719   0.00480758 *
*    I     255      0.00133736   0.00231176   0.00481593 *
*    I     256      0.00133845  -0.00234202   0.00480817 *
*    Cr    257     -0.00000021  -0.00001158   0.00000041 *
*    Cr    258     -0.00002198   0.00000180  -0.00000022 *
*    I     259      0.00270041   0.00001292  -0.00481090 *
*    I     260     -0.00133267  -0.00231114  -0.00481478 *
*    I     261     -0.00134057   0.00234456  -0.00481156 *
*    I     262     -0.00269834  -0.00000718   0.00481095 *
*    I     263      0.00133635   0.00231209   0.00481543 *
*    I     264      0.00134035  -0.00234211   0.00481060 *
*    Cr    265      0.00001216  -0.00002974  -0.00000068 *
*    Cr    266     -0.00000137  -0.00000469  -0.00000049 *
*    I     267      0.00269986   0.00001245  -0.00481018 *
*    I     268     -0.00133147  -0.00231221  -0.00481501 *
*    I     269     -0.00134409   0.00234306  -0.00481010 *
*    I     270     -0.00269903  -0.00000550   0.00481012 *
*    I     271      0.00133617   0.00231050   0.00481432 *
*    I     272      0.00133832  -0.00234423   0.00481056 *
*    Cr    273      0.00001254  -0.00001814  -0.00000042 *
*    Cr    274     -0.00001003  -0.00000607   0.00000061 *
*    I     275      0.00270077   0.00001531  -0.00481157 *
*    I     276     -0.00133169  -0.00231171  -0.00481475 *
*    I     277     -0.00134275   0.00234263  -0.00481043 *
*    I     278     -0.00269846  -0.00000673   0.00481063 *
*    I     279      0.00133727   0.00231160   0.00481548 *
*    I     280      0.00133922  -0.00234218   0.00481041 *
*    Cr    281      0.00000909  -0.00000827  -0.00000015 *
*    Cr    282     -0.00001165   0.00000372   0.00000003 *
*    I     283      0.00270030   0.00001625  -0.00481258 *
*    I     284     -0.00133276  -0.00231234  -0.00481471 *
*    I     285     -0.00133954   0.00234462  -0.00481259 *
*    I     286     -0.00269952  -0.00000744   0.00481104 *
*    I     287      0.00133548   0.00230958   0.00481601 *
*    I     288      0.00134021  -0.00234335   0.00481102 *
*                                                        *
**********************************************************
* TOTAL:           -0.00000000   0.00000000  -0.00000000 *
**********************************************************
 
 
***********************************************************
********** Summary of Forces (values in Eh/a) *************
*                                                         *
* ---------------------- Minimum ------------------------ *
* Atom:        50, |F|min =    0.00000475                 *
* Components:     Fx|min       Fy|min       Fz|min        *
*               0.00000424   0.00000180  -0.00000114      *
*                                                         *
* ---------------------- Maximum ------------------------ *
* Atom:        69, |F|max =    0.00552255                 *
* Components:     Fx|max       Fy|max       Fz|max        *
*              -0.00133789   0.00235483  -0.00481284      *
*                                                         *
* ---------------- Root Mean Square Force --------------- *
*                  |F|rms =    0.00476988                 *
* Components:     Fx|rms       Fy|rms       Fz|rms        *
*               0.00164682   0.00164441   0.00416361      *
***********************************************************
 

------------------------------ TIMING INFORMATION ------------------------------
AVERAGE TIME:   23841.885s on     56 proc(s)                                    
TOTAL TIME:     23841.885s on     56 proc(s)                                    
==================== AVERAGE TIMINGS FROM ALL PROCS (CUMULATIVE) =====================
|| TAG                                         #calls     cpu time   %total  Gflops ||
|| hubbard_species_proj                       :     1        0.00s   0.000%  ------ ||
|| hubbard_ngwf_on_grid                       :     1        0.00s   0.000%  ------ ||
|| sw_bessel_init_cpu                         :     1        0.01s   0.000%  ------ || (1 procs only)
|| hubbard_projector_character                :     1        0.00s   0.000%  ------ ||
|| hubbard_ngwf_select                        :     1        0.00s   0.000%  ------ ||
|| hash_table_free                            :    49        0.00s   0.000%  ------ ||
|| linalg_invert_sym_matrix                   :     4        0.05s   0.000%  ------ || (1 procs only)
|| hubbard_tensorial_correction               :     2        0.00s   0.000%  ------ ||
|| density_fftbox_interp_mult_imbal           : 17622        0.00s   0.000%  ------ ||
|| ewald_calculate_forces_realspace           :     1        0.00s   0.000%  ------ ||
|| onetep.F90 final imbalance                 :     1        0.01s   0.000%  ------ ||
|| linalg_dgemv                               :    44        0.02s   0.000%  ------ ||
|| sparse_blacstospam3_real_fast_imbal        :    96        0.03s   0.000%  ------ ||
|| ewald_calculate_energy                     :     1        0.04s   0.000%  ------ ||
|| sparse_set_to_garbage                      :  1070        0.05s   0.000%  ------ ||
|| ewald_calculate_forces_recipspace          :     1        0.10s   0.000%  ------ ||
|| paw_tcore_hartree_on_grid                  :     1        0.11s   0.000%  ------ ||
|| paw_dij_hartree                            :   296        0.12s   0.001%  ------ ||
|| sw_init                                    :   533        0.13s   0.001%  ------ ||
|| onetep.F90 main loop imbalance             :     1        0.14s   0.001%  ------ ||
|| pseudo_make_structure_factor               :     1        0.17s   0.001%  ------ ||
|| sparse_spam3toblacs_real_fast_B2           :  4592        0.18s   0.001%  ------ ||
|| restart_hamiltonian_write                  :     2        0.23s   0.001%  ------ ||
|| ewald_calculate_forces                     :     1        0.23s   0.001%  ------ ||
|| sparse_spam3toblacs_real_fast_imbal        :    82        0.33s   0.001%  ------ ||
|| augmentation_density_forces                :     1        0.37s   0.002%  ------ ||
|| hubbard_projection_mtx                     :    51        0.39s   0.002%  ------ ||
|| sparse_init                                :     1        0.39s   0.002%  ------ ||
|| basis_extract_function_from_box            :  3085        0.62s   0.003%  ------ ||
|| paw_tcore_hartree_calc_forces              :     1        0.71s   0.003%  ------ ||
|| hubbard_projector_ham                      :   127        1.01s   0.004%  ------ ||
|| hubbard_ham_matrix                         :   128        1.38s   0.006%  ------ ||
|| paw_tcore_density                          :     1        1.80s   0.008%  ------ ||
|| sparse_spam3toblacs_real_fast_B1           :  4592        1.97s   0.008%  ------ ||
|| paw_dataset_init                           :     2        2.15s   0.009%  ------ ||
|| paw_nlcc_calculate_forces                  :     1        2.36s   0.010%  ------ ||
|| paw_sphere_density_on_grid                 :     1        2.78s   0.012%  ------ ||
|| restart_kernel_write                       :    26        2.79s   0.012%  ------ ||
|| sparse_spam3toblacs_real_fast              :    82        2.86s   0.012%  ------ ||
|| nonsc_forces_ngwfs_calc                    :     1        3.00s   0.013%  ------ ||
|| hubbard_energy_total                       :   269        3.19s   0.013%  ------ ||
|| sparse_blacstospam3_real_fast              :    96        5.42s   0.023%  ------ ||
|| paw_species_calc_proj_prec_mat             :     1        5.80s   0.024%  ------ ||
|| ngwfs_initialise_from_radial               :     4        5.81s   0.024%  ------ ||
|| sparse_embed_array_hotelling_invert        :    49        6.78s   0.028%  ------ ||
|| dense_eigensolve                           :    38       10.44s   0.044%  ------ ||
|| hubbard_calculate_forces                   :     1       10.74s   0.045%  ------ ||
|| edft_diag_ngwf_ham                         :    36       12.35s   0.052%  ------ ||
|| integrals_grad_spam3                       :     4       13.64s   0.057%  ------ ||
|| sparse_trace                               :  9210       15.55s   0.065%  ------ ||
|| kernel_purify                              :   387       17.17s   0.072%  ------ ||
|| edft_apply_smearing_operator               :    18       18.83s   0.079%  ------ ||
|| energy_and_force_init_cell                 :     1       20.63s   0.087%  ------ ||
|| ngwf_gradient_coeffs                       :    24       21.37s   0.090%  ------ ||
|| lnv_gradient_norm                          :   120       22.64s   0.095%  ------ ||
|| kernel_fix                                 :   120       23.39s   0.098%  ------ ||
|| fourier_filter_cell                        :   306       25.26s   0.106% 134.515 ||
|| basis_copy_function_to_box                 : 30857       30.72s   0.129%  ------ ||
|| hubbard_projector_update                   :     1       30.83s   0.129%  ------ ||
|| eigenstates_calculate                      :     1       31.94s   0.134%  ------ ||
|| hartree_on_grid_single                     :   266       35.01s   0.147%  ------ ||
|| fourier_apply_box_pair                     :  4728       36.07s   0.151%  1.782k ||
|| hamiltonian_energy_components              :     1       37.18s   0.156%  ------ ||
|| projectors_func_grad_ovlp_box_spam3        :     6       40.64s   0.170%  ------ ||
|| aug_nl_calculate_forces                    :     1       41.73s   0.175%  ------ ||
|| fourier_interpolate_cell                   :   534       42.90s   0.180% 138.181 ||
|| density_init_guess_real                    :     2       58.39s   0.245%  ------ ||
|| augmentation_screen_dij_spam3              :   265       87.18s   0.366%  ------ ||
|| cell_grid_deposit_box_real                 : 21660      110.81s   0.465%  ------ ||
|| forces_calculate                           :     1      127.28s   0.534%  ------ ||
|| sparse_product                             : 17632      129.25s   0.542%  ------ ||
|| aug_nonlocal_mat_spam3_embed_array         :   271      138.46s   0.581%  ------ ||
|| paw_dij_xc                                 :   296      144.32s   0.605%  ------ ||
|| fourier_apply_cell_backward                :  2395      157.18s   0.659% 152.210 ||
|| restart_ngwfs_tightbox_output              :    23      169.93s   0.713%  ------ ||
|| fourier_filter                             :  5748      176.51s   0.740%  ------ ||
|| fourier_apply_cell_forward                 :  2395      177.40s   0.744% 134.865 ||
|| aug_density_on_grid_spam3                  :   267      193.68s   0.812%  ------ ||
|| projectors_init_fftbox_recip               :   641      228.92s   0.960%  ------ ||
|| fourier_interpolate                        :  5748      273.47s   1.147%  ------ ||
|| cell_grid_extract_box_real                 : 13534      284.59s   1.194%  ------ ||
|| function_ops_brappd_ketppd_spam3           :   200      312.20s   1.309%  ------ ||
|| xc_energy_potential                        :   266      369.09s   1.548%  ------ ||
|| properties_calculate                       :     1      456.80s   1.916%  ------ ||
|| density_fftbox_deposit_to_cell             : 17622      725.20s   3.042%  ------ ||
|| projectors_func_ovlp_box_spam3             :   202      773.95s   3.246%  ------ ||
|| integrals_kinetic_spam3                    :    98      836.76s   3.510%  ------ ||
|| edft_calculate                             :     1      898.09s   3.767%  ------ ||
|| basis_dot_function_with_box                : 10.75M    1180.13s   4.950%  ------ ||
|| potential_apply_to_ngwf_batch              :   770     1355.78s   5.687%  ------ ||
|| projectors_gradient_batch                  :   288     1561.56s   6.550%  ------ ||
|| fourier_apply_box                          : 94723     2279.57s   9.561%  1.876k ||
|| integrals_locpot_mat_els_batch             :   770     2304.04s   9.664%  ------ ||
|| fourier_interpolate_product                : 17164     2471.01s  10.364%  ------ ||
|| density_fftbox_interpolate_multiply        : 17622     2602.79s  10.917%  ------ ||
|| basis_add_function_to_box                  : 21.39M    2625.38s  11.012%  ------ ||
|| projectors_grad_precond_batch              :   144     3087.72s  12.951%  ------ ||
|| integrals_locpot_dbl_grid                  :   258     3663.82s  15.367%  ------ ||
|| density_batch_interp_deposit               :  1602     4162.40s  17.458%  ------ ||
|| density_batch_row_sums                     :  1602     4676.97s  19.617%  ------ ||
|| ngwf_gradient_build_batch                  :   144     5146.93s  21.588%  ------ ||
|| ngwf_gradient_batch                        :   144     7381.53s  30.960%  ------ ||
|| ngwf_gradient_lnv                          :    24     7498.92s  31.453%  ------ ||
|| density_on_dbl_grid                        :   534     8911.23s  37.376%  ------ ||
|| hamiltonian_lhxc_calculate                 :   263     9564.71s  40.117%  ------ ||
|| lnv_denskernel_optimise_cg                 :    24    11563.96s  48.503%  ------ ||
|| ngwf_cg_optimise                           :     1    22153.69s  92.919%  ------ ||
|| energy_and_forces                          :     1    23819.79s  99.907%  ------ ||
|| total_time                                 :     1    23841.88s 100.000%  ------ ||
======================================================================================
Overhead of generating timer report: 
- 0 ms averaging over threads,
- 5 ms ensuring consistency across MPI ranks,
- 27 ms printing in order.

Job completed: 22-10-2024 16:25 (+0100)

onetep_launcher: ONETEP seems to have finished correctly (zero exit code).
                 Brought to you by PID 242857 on nid004654.
