==================================================================================
It's Tue 22 Oct 2024 05:30:58 PM BST.
*** Starting onetep_launcher (node nid005399, PIDs 190344 190345 190346 190347 190348 190349 190350 190351)...
    - ONETEP arguments: U_0_-0.05.dat
    - Current directory: /mnt/lustre/a2fs-work3/work/e89/e89/phsmea/J_det/U_0_-0.05
    - Launcher executable directory: /mnt/lustre/a2fs-work3/work/e89/e89/phsmea/J_det/U_0_-0.05
    - (-e) ONETEP executable specified through command-line: /work/e89/e89/phsmea/onetep.archer2_2024_cray
      ... trying /work/e89/e89/phsmea/onetep.archer2_2024_cray
          -> looks OK
*** Setting up environment...
    - (-s) Process stack size: unlimited
    - (-t) OMP_NUM_THREADS: 16
    - (-o) OMP_STACKSIZE: 64M
    - (-c) Maximum core file size: 2048000
    - (-d) decfort_dump_flag: n
    - (-m) I_MPI_OFA_TRANSLATION_CACHE: 0
    - (-m) I_MPI_DAPL_TRANSLATION_CACHE: 0
    - (-m) I_MPI_DAPL_UD_TRANSLATION_CACHE: 0
*** Starting ONETEP...
    - /work/e89/e89/phsmea/onetep.archer2_2024_cray U_0_-0.05.dat
=================================================================================
_________________________________________________________________________________
 +---------------------------------------------------------------+
 |                                                               |
 |        ####### #     # ####### ####### ####### ######         |
 |        #     # ##    # #          #    #       #     #        |
 |        #     # # #   # #          #    #       #     #        |
 |        #     # #  #  # #####      #    #####   ######         |
 |        #     # #   # # #          #    #       #              |
 |        #     # #    ## #          #    #       #              |
 |        ####### #     # #######    #    ####### #              |
 |                                                               |
 |        Linear-Scaling Ab Initio Total Energy Program          |
 |                                                               |
 |          Release for academic collaborators of ODG            |
 |                                             Version 7.3.0     |
 | Remote: git@github.com:Miesaz/onetep_mea.git                  |
 | Local branch: master                                          |
 | Commit ID: 4af45e89288c8df5499704252eec3e032ee3d0c8           |
 | Date: Tue Aug 6 11:28:44 2024 +0100                           |
 | Working tree clean                                            |
 |                                                               |
 +---------------------------------------------------------------+
 |                                                               |
 |  Authors:                                                     |
 |  Jacek Dziedzic, Peter D. Haynes, Nicholas D. M. Hine,        |
 |  Arash A. Mostofi, Mike C. Payne and Chris-Kriton Skylaris    |
 |                                                               |
 |  Contributors:                                                |
 |  J. Aarons, L. Andrinopoulos, P. W. Avraam, R. A. Bell,       |
 |  A. Bhandari, G. A. Bramley, R. J. Charlton, S. J. Clark,     |
 |  R. J. Clements, G. C. Constantinescu, F. Corsetti,           |
 |  N. Corsini, O. Dieguez, S. M. M. Dubois, K. K. B. Duff,      |
 |  J. M. Escartin, M. Escobar Azor, A. Greco,                   |
 |  H. Helal, Q. O. Hill, L. P. Lee, J.-H. Li,                   |
 |  T. Li, E. B. Linscott, G. Moynihan, D. D. O`Regan,           |
 |  O. K. Okan, E. Parkinson, M. J. S. Phipps,                   |
 |  C. J. Pickard, J. C. A. Prentice, M. I. J. Probert,          |
 |  L. E. Ratcliff, M. Robinson, A. Ruiz Serrano,                |
 |  M. dos Santos Dias, J. S. Spencer, E. W. Tait,               |
 |  G. Teobaldi, D. Turban, V. Vitale, K. A. Wilkinson,          |
 |  C. Weber, J. C. Womack, Chengcheng Xiao, N. Yeung,           |
 |  and T. J. Zuehlsdorff.                                       |
 |                                                               |
 |                                   Copyright (c) 2004-2024     |
 |                                                               |
 |  Please cite:                                                 |
 |  "The ONETEP linear-scaling density functional theory program"|
 |   J. Chem. Phys. 152(17) 174111 (2020)                        |
 |                                                               |
 |          in all publications arising from your use of ONETEP. |
 |                                                               |
 +---------------------------------------------------------------+
 |                                                               |
 |   ONETEP is based on developments described in the following  |
 |   publications:                                               |
 |                                                               |
 |  "Nonorthogonal generalized Wannier function pseudopotential  |
 |   plane-wave method".                                         |
 |   C.-K. Skylaris, A. A. Mostofi, P. D. Haynes, O. Dieguez,    |
 |   M. C. Payne.                                                |
 |   Phys. Rev. B 66 035119 (2002).                              |
 |                                                               |
 |  "Preconditioned iterative minimization for linear-scaling    |
 |   electronic structure calculations".                         |
 |   A. A. Mostofi, P. D. Haynes, C.-K. Skylaris, M. C. Payne.   |
 |   J. Chem. Phys. 119(17), pp.8842-8848 (2003).                |
 |                                                               |
 |  "Total-energy calculations on a real space grid with         |
 |   localized functions and a plane-wave basis".                |
 |   A. A. Mostofi, C.-K. Skylaris, P. D. Haynes, M. C. Payne.   |
 |   Comput. Phys. Commun. 147, pp.788-802 (2002).               |
 |                                                               |
 |  "Accurate kinetic energy evaluation in electronic structure  |
 |   calculations with localized functions on real space grids"  |
 |   C.-K. Skylaris, A. A. Mostofi, P. D. Haynes, C. J. Pickard, |
 |   M. C. Payne.                                                |
 |   Comput. Phys. Commun. 140, pp.315-322 (2001).               |
 |                                                               |
 |  "Accurate ionic forces and geometry optimization in linear-  |
 |   scaling density-functional theory with local orbitals"      |
 |   N. D. M. Hine, M. Robinson, P. D. Haynes, C.-K. Skylaris,   |
 |   M. C. Payne, and A. A. Mostofi.                             |
 |   Phys. Rev. B 83 195102 (2011).                              |
 |                                                               |
 +---------------------------------------------------------------+

Job started: 22-10-2024 17:31 (+0100)
 
Reading parameters from file "U_0_-0.05.dat" ...
WARNING in get_rundat: hubbard_calculating_u is TRUE, so do_properties will be
overridden to TRUE.
... done

If your calculation crashes here, before "Checking processes and threads..."
is displayed, then your stack size is insufficient.
If so, use "ulimit -s unlimited" at runtime.
You can disable this check with "check_stack_size F".

Checking processes and threads...
   Running with 56 MPI processes.
   There are 8 MPI processes running on the same node as the root process.
   Each MPI process is using: 
               1 threads for simulation cell FFTs.
               1 threads for threaded FFT box operations.
              16 threads for loops over batched FFT box operations.
              16 threads in other parallel regions.
   MPI Interface: S1 (use mpi_f08) (-DMPI -DUSE_MPI_F08).
   MPI_ASYNC_PROTECTS_NONBLOCKING: Yes. MPI_SUBARRAYS_SUPPORTED: Yes.
   FFTW Interface: OMP-capable and MODERN. (-DUSE_MODERN_FFTW specified).
   GPU Interface: None.
   GPU FFT Backend: None.
... done

Basic input checks...... done

Reading geometry and species blocks from file "U_0_-0.05.dat" ...... done


--------------------------------------------------------------------------------
---------------------------------- INPUT FILE ----------------------------------
--------------------------------------------------------------------------------

charge : 0                                                                      
cutoff_energy : 1000 eV                                                         
do_properties : T                                                               
edft : F                                                                        
edft_init_maxit : 5                                                             
elec_energy_tol : 2e-07 Ha                                                      
fine_grid_scale : 4                                                             
forces_output_detail : VERBOSE                                                  
hubbard_calculating_u : T                                                       
maxit_ngwf_cg : 100                                                             
ngwf_threshold_orig : 1e-06                                                     
output_detail : BRIEF                                                           
paw : T                                                                         
spin_polarized : T                                                              
ngwfs_spin_polarized : T                                                        
read_denskern : F                                                               
read_hamiltonian : F                                                            
read_tightbox_ngwfs : F                                                         
spin : 216                                                                      
task : SinglePoint                                                              
write_denskern : T                                                              
write_forces : T                                                                
write_hamiltonian : T                                                           
write_tightbox_ngwfs : T                                                        
xc_functional : PBE                                                             
%BLOCK LATTICE_CART                                                             
ang                                                                             
41.261892132    0.000000000     0.000000000                                     
-20.630946066   35.733846792     0.000000000                                    
0.0000000000    0.000000000    17.192455055                                     
%ENDBLOCK LATTICE_CART                                                          
%BLOCK POSITIONS_ABS                                                            
ang                                                                             
Cr       3.43849101       1.98521371       9.03176873                           
Cr       0.00000000       3.97042742       9.03176919                           
I        4.42260340      -0.00001318       7.48054615                           
I        1.22717790       2.12556082       7.48054615                           
I       -2.21129029       3.83009349       7.48054615                           
I        2.45437873      -0.00001140      10.58299027                           
I        2.21129177       3.83009250      10.58299027                           
I       -1.22717949       2.12556004      10.58299027                           
Cr       0.00000000       7.94085485       9.03176873                           
Cr      -3.43849101       9.92606855       9.03176919                           
I        0.98411239       5.95562795       7.48054615                           
I       -2.21131311       8.08120195       7.48054615                           
I       -5.64978130       9.78573462       7.48054615                           
I       -0.98411228       5.95562973      10.58299027                           
I       -1.22719924       9.78573363      10.58299027                           
I       -4.66567050       8.08120117      10.58299027                           
Cr      -3.43849101      13.89649598       9.03176873                           
Cr      -6.87698202      15.88170968       9.03176919                           
I       -2.45437862      11.91126909       7.48054615                           
I       -5.64980412      14.03684309       7.48054615                           
I       -9.08827231      15.74137575       7.48054615                           
I       -4.42260329      11.91127086      10.58299027                           
I       -4.66569025      15.74137476      10.58299027                           
I       -8.10416151      14.03684230      10.58299027                           
Cr      10.31547303       1.98521371       9.03176873                           
Cr       6.87698202       3.97042742       9.03176919                           
I       11.29958542      -0.00001318       7.48054615                           
I        8.10415992       2.12556082       7.48054615                           
I        4.66569173       3.83009349       7.48054615                           
I        9.33136075      -0.00001140      10.58299027                           
I        9.08827380       3.83009250      10.58299027                           
I        5.64980253       2.12556004      10.58299027                           
Cr       6.87698202       7.94085485       9.03176873                           
Cr       3.43849101       9.92606855       9.03176919                           
I        7.86109441       5.95562795       7.48054615                           
I        4.66566891       8.08120195       7.48054615                           
I        1.22720072       9.78573462       7.48054615                           
I        5.89286974       5.95562973      10.58299027                           
I        5.64978278       9.78573363      10.58299027                           
I        2.21131152       8.08120117      10.58299027                           
Cr       3.43849101      13.89649598       9.03176873                           
Cr       0.00000000      15.88170968       9.03176919                           
I        4.42260340      11.91126909       7.48054615                           
I        1.22717790      14.03684309       7.48054615                           
I       -2.21129029      15.74137575       7.48054615                           
I        2.45437873      11.91127086      10.58299027                           
I        2.21129177      15.74137476      10.58299027                           
I       -1.22717949      14.03684230      10.58299027                           
Cr      17.19245505       1.98521371       9.03176873                           
Cr      13.75396404       3.97042742       9.03176919                           
I       18.17656744      -0.00001318       7.48054615                           
I       14.98114195       2.12556082       7.48054615                           
I       11.54267375       3.83009349       7.48054615                           
I       16.20834277      -0.00001140      10.58299027                           
I       15.96525582       3.83009250      10.58299027                           
I       12.52678455       2.12556004      10.58299027                           
Cr      13.75396404       7.94085485       9.03176873                           
Cr      10.31547303       9.92606855       9.03176919                           
I       14.73807643       5.95562795       7.48054615                           
I       11.54265094       8.08120195       7.48054615                           
I        8.10418274       9.78573462       7.48054615                           
I       12.76985176       5.95562973      10.58299027                           
I       12.52676481       9.78573363      10.58299027                           
I        9.08829354       8.08120117      10.58299027                           
Cr      10.31547303      13.89649598       9.03176873                           
Cr       6.87698202      15.88170968       9.03176919                           
I       11.29958542      11.91126909       7.48054615                           
I        8.10415992      14.03684309       7.48054615                           
I        4.66569173      15.74137575       7.48054615                           
I        9.33136075      11.91127086      10.58299027                           
I        9.08827380      15.74137476      10.58299027                           
I        5.64980253      14.03684230      10.58299027                           
Cr      -6.87698202      19.85213711       9.03176873                           
Cr     -10.31547303      21.83735082       9.03176919                           
I       -5.89286963      17.86691022       7.48054615                           
I       -9.08829513      19.99248422       7.48054615                           
I      -12.52676332      21.69701689       7.48054615                           
I       -7.86109430      17.86691200      10.58299027                           
I       -8.10418126      21.69701590      10.58299027                           
I      -11.54265252      19.99248344      10.58299027                           
Cr     -10.31547303      25.80777825       9.03176873                           
Cr     -13.75396404      27.79299195       9.03176919                           
I       -9.33136064      23.82255135       7.48054615                           
I      -12.52678614      25.94812535       7.48054615                           
I      -15.96525433      27.65265802       7.48054615                           
I      -11.29958531      23.82255313      10.58299027                           
I      -11.54267227      27.65265703      10.58299027                           
I      -14.98114353      25.94812457      10.58299027                           
Cr     -13.75396404      31.76341938       9.03176873                           
Cr     -17.19245505      33.74863308       9.03176919                           
I      -12.76985165      29.77819249       7.48054615                           
I      -15.96527715      31.90376649       7.48054615                           
I      -19.40374534      33.60829915       7.48054615                           
I      -14.73807632      29.77819426      10.58299027                           
I      -14.98116328      33.60829816      10.58299027                           
I      -18.41963454      31.90376570      10.58299027                           
Cr      -0.00000000      19.85213711       9.03176873                           
Cr      -3.43849101      21.83735082       9.03176919                           
I        0.98411239      17.86691022       7.48054615                           
I       -2.21131311      19.99248422       7.48054615                           
I       -5.64978130      21.69701689       7.48054615                           
I       -0.98411228      17.86691200      10.58299027                           
I       -1.22719923      21.69701590      10.58299027                           
I       -4.66567050      19.99248344      10.58299027                           
Cr      -3.43849101      25.80777825       9.03176873                           
Cr      -6.87698202      27.79299195       9.03176919                           
I       -2.45437862      23.82255135       7.48054615                           
I       -5.64980412      25.94812535       7.48054615                           
I       -9.08827231      27.65265802       7.48054615                           
I       -4.42260329      23.82255313      10.58299027                           
I       -4.66569025      27.65265703      10.58299027                           
I       -8.10416151      25.94812457      10.58299027                           
Cr      -6.87698202      31.76341938       9.03176873                           
Cr     -10.31547303      33.74863308       9.03176919                           
I       -5.89286963      29.77819249       7.48054615                           
I       -9.08829513      31.90376649       7.48054615                           
I      -12.52676332      33.60829915       7.48054615                           
I       -7.86109430      29.77819426      10.58299027                           
I       -8.10418126      33.60829816      10.58299027                           
I      -11.54265252      31.90376570      10.58299027                           
CrU       6.87698202      19.85213711       9.03176873                          
Cr       3.43849101      21.83735082       9.03176919                           
I        7.86109441      17.86691022       7.48054615                           
I        4.66566892      19.99248422       7.48054615                           
I        1.22720072      21.69701689       7.48054615                           
I        5.89286974      17.86691200      10.58299027                           
I        5.64978279      21.69701590      10.58299027                           
I        2.21131152      19.99248344      10.58299027                           
Cr       3.43849101      25.80777825       9.03176873                           
Cr      -0.00000000      27.79299195       9.03176919                           
I        4.42260340      23.82255135       7.48054615                           
I        1.22717791      25.94812535       7.48054615                           
I       -2.21129029      27.65265802       7.48054615                           
I        2.45437873      23.82255313      10.58299027                           
I        2.21129178      27.65265703      10.58299027                           
I       -1.22717949      25.94812457      10.58299027                           
Cr      -0.00000000      31.76341938       9.03176873                           
Cr      -3.43849101      33.74863308       9.03176919                           
I        0.98411239      29.77819249       7.48054615                           
I       -2.21131311      31.90376649       7.48054615                           
I       -5.64978130      33.60829915       7.48054615                           
I       -0.98411228      29.77819426      10.58299027                           
I       -1.22719923      33.60829816      10.58299027                           
I       -4.66567050      31.90376570      10.58299027                           
Cr      24.06943708       1.98521371       9.03176873                           
Cr      20.63094607       3.97042742       9.03176919                           
I       25.05354947      -0.00001318       7.48054615                           
I       21.85812397       2.12556082       7.48054615                           
I       18.41965578       3.83009349       7.48054615                           
I       23.08532480      -0.00001140      10.58299027                           
I       22.84223784       3.83009250      10.58299027                           
I       19.40376658       2.12556004      10.58299027                           
Cr      20.63094607       7.94085485       9.03176873                           
Cr      17.19245506       9.92606855       9.03176919                           
I       21.61505846       5.95562795       7.48054615                           
I       18.41963296       8.08120195       7.48054615                           
I       14.98116477       9.78573462       7.48054615                           
I       19.64683379       5.95562973      10.58299027                           
I       19.40374683       9.78573363      10.58299027                           
I       15.96527557       8.08120117      10.58299027                           
Cr      17.19245506      13.89649598       9.03176873                           
Cr      13.75396405      15.88170968       9.03176919                           
I       18.17656745      11.91126909       7.48054615                           
I       14.98114195      14.03684309       7.48054615                           
I       11.54267376      15.74137575       7.48054615                           
I       16.20834278      11.91127086      10.58299027                           
I       15.96525582      15.74137476      10.58299027                           
I       12.52678456      14.03684230      10.58299027                           
Cr      30.94641910       1.98521371       9.03176873                           
Cr      27.50792809       3.97042742       9.03176919                           
I       31.93053149      -0.00001318       7.48054615                           
I       28.73510599       2.12556082       7.48054615                           
I       25.29663780       3.83009349       7.48054615                           
I       29.96230682      -0.00001140      10.58299027                           
I       29.71921987       3.83009250      10.58299027                           
I       26.28074860       2.12556004      10.58299027                           
Cr      27.50792809       7.94085485       9.03176873                           
Cr      24.06943708       9.92606855       9.03176919                           
I       28.49204048       5.95562795       7.48054615                           
I       25.29661498       8.08120195       7.48054615                           
I       21.85814679       9.78573462       7.48054615                           
I       26.52381581       5.95562973      10.58299027                           
I       26.28072885       9.78573363      10.58299027                           
I       22.84225759       8.08120117      10.58299027                           
Cr      24.06943708      13.89649598       9.03176873                           
Cr      20.63094607      15.88170968       9.03176919                           
I       25.05354947      11.91126909       7.48054615                           
I       21.85812397      14.03684309       7.48054615                           
I       18.41965578      15.74137575       7.48054615                           
I       23.08532480      11.91127086      10.58299027                           
I       22.84223784      15.74137476      10.58299027                           
I       19.40376658      14.03684230      10.58299027                           
Cr      37.82340112       1.98521371       9.03176873                           
Cr      34.38491011       3.97042742       9.03176919                           
I       38.80751351      -0.00001318       7.48054615                           
I       35.61208802       2.12556082       7.48054615                           
I       32.17361982       3.83009349       7.48054615                           
I       36.83928884      -0.00001140      10.58299027                           
I       36.59620189       3.83009250      10.58299027                           
I       33.15773062       2.12556004      10.58299027                           
Cr      34.38491011       7.94085485       9.03176873                           
Cr      30.94641910       9.92606855       9.03176919                           
I       35.36902250       5.95562795       7.48054615                           
I       32.17359701       8.08120195       7.48054615                           
I       28.73512881       9.78573462       7.48054615                           
I       33.40079783       5.95562973      10.58299027                           
I       33.15771088       9.78573363      10.58299027                           
I       29.71923961       8.08120117      10.58299027                           
Cr      30.94641910      13.89649598       9.03176873                           
Cr      27.50792809      15.88170968       9.03176919                           
I       31.93053149      11.91126909       7.48054615                           
I       28.73510599      14.03684309       7.48054615                           
I       25.29663780      15.74137575       7.48054615                           
I       29.96230682      11.91127086      10.58299027                           
I       29.71921987      15.74137476      10.58299027                           
I       26.28074860      14.03684230      10.58299027                           
Cr      13.75396404      19.85213711       9.03176873                           
Cr      10.31547303      21.83735082       9.03176919                           
I       14.73807643      17.86691022       7.48054615                           
I       11.54265093      19.99248422       7.48054615                           
I        8.10418274      21.69701689       7.48054615                           
I       12.76985176      17.86691200      10.58299027                           
I       12.52676480      21.69701590      10.58299027                           
I        9.08829354      19.99248344      10.58299027                           
Cr      10.31547303      25.80777825       9.03176873                           
Cr       6.87698202      27.79299195       9.03176919                           
I       11.29958542      23.82255135       7.48054615                           
I        8.10415992      25.94812535       7.48054615                           
I        4.66569173      27.65265802       7.48054615                           
I        9.33136075      23.82255313      10.58299027                           
I        9.08827379      27.65265703      10.58299027                           
I        5.64980253      25.94812457      10.58299027                           
Cr       6.87698202      31.76341938       9.03176873                           
Cr       3.43849101      33.74863308       9.03176919                           
I        7.86109441      29.77819249       7.48054615                           
I        4.66566891      31.90376649       7.48054615                           
I        1.22720072      33.60829915       7.48054615                           
I        5.89286974      29.77819426      10.58299027                           
I        5.64978278      33.60829816      10.58299027                           
I        2.21131152      31.90376570      10.58299027                           
Cr      20.63094606      19.85213711       9.03176873                           
Cr      17.19245505      21.83735082       9.03176919                           
I       21.61505845      17.86691022       7.48054615                           
I       18.41963295      19.99248422       7.48054615                           
I       14.98116476      21.69701689       7.48054615                           
I       19.64683378      17.86691200      10.58299027                           
I       19.40374683      21.69701590      10.58299027                           
I       15.96527556      19.99248344      10.58299027                           
Cr      17.19245505      25.80777825       9.03176873                           
Cr      13.75396404      27.79299195       9.03176919                           
I       18.17656744      23.82255135       7.48054615                           
I       14.98114194      25.94812535       7.48054615                           
I       11.54267375      27.65265802       7.48054615                           
I       16.20834277      23.82255313      10.58299027                           
I       15.96525581      27.65265703      10.58299027                           
I       12.52678455      25.94812457      10.58299027                           
Cr      13.75396404      31.76341938       9.03176873                           
Cr      10.31547303      33.74863308       9.03176919                           
I       14.73807643      29.77819249       7.48054615                           
I       11.54265093      31.90376649       7.48054615                           
I        8.10418274      33.60829915       7.48054615                           
I       12.76985176      29.77819426      10.58299027                           
I       12.52676480      33.60829816      10.58299027                           
I        9.08829354      31.90376570      10.58299027                           
Cr      27.50792808      19.85213711       9.03176873                           
Cr      24.06943707      21.83735082       9.03176919                           
I       28.49204047      17.86691022       7.48054615                           
I       25.29661498      19.99248422       7.48054615                           
I       21.85814678      21.69701689       7.48054615                           
I       26.52381580      17.86691200      10.58299027                           
I       26.28072885      21.69701590      10.58299027                           
I       22.84225758      19.99248344      10.58299027                           
Cr      24.06943707      25.80777825       9.03176873                           
Cr      20.63094606      27.79299195       9.03176919                           
I       25.05354946      23.82255135       7.48054615                           
I       21.85812397      25.94812535       7.48054615                           
I       18.41965577      27.65265802       7.48054615                           
I       23.08532479      23.82255313      10.58299027                           
I       22.84223784      27.65265703      10.58299027                           
I       19.40376657      25.94812457      10.58299027                           
Cr      20.63094606      31.76341938       9.03176873                           
Cr      17.19245505      33.74863308       9.03176919                           
I       21.61505845      29.77819249       7.48054615                           
I       18.41963295      31.90376649       7.48054615                           
I       14.98116476      33.60829915       7.48054615                           
I       19.64683378      29.77819426      10.58299027                           
I       19.40374683      33.60829816      10.58299027                           
I       15.96527556      31.90376570      10.58299027                           
%ENDBLOCK POSITIONS_ABS                                                         
%BLOCK SPECIES                                                                  
Cr Cr 24 -1 15                                                                  
I   I  53 -1 15                                                                 
CrU Cr 24 -1 15                                                                 
%ENDBLOCK SPECIES                                                               
%BLOCK SPECIES_ATOMIC_SET                                                       
Cr  "SOLVE INIT SPIN=3"                                                         
I   "SOLVE"                                                                     
CrU "SOLVE INIT SPIN=3"                                                         
%ENDBLOCK SPECIES_ATOMIC_SET                                                    
%BLOCK HUBBARD                                                                  
CrU 2 0.0 0.0 -10.0 0.00 -0.05                                                  
%ENDBLOCK HUBBARD                                                               
%BLOCK SPECIES_LDOS_GROUPS                                                      
Cr                                                                              
I                                                                               
CrU                                                                             
%ENDBLOCK SPECIES_LDOS_GROUPS                                                   
%BLOCK SPECIES_POT                                                              
Cr  "/work/e89/e89/phsmea/U_det/Cr.PBE-paw.abinit"                              
I   "/work/e89/e89/phsmea/U_det/I.PBE-paw.abinit"                               
CrU "/work/e89/e89/phsmea/U_det/Cr.PBE-paw.abinit"                              
%ENDBLOCK SPECIES_POT                                                           

--------------------------------------------------------------------------------
-------------------------------- END INPUT FILE --------------------------------
--------------------------------------------------------------------------------


 
 ESDF WARNING(1): "charge" (esdf_physical) has no units. Assume "e".
<<<<<<<<<<<<<<<<<<<<<<<<<<<<<<<<< Full system >>>>>>>>>>>>>>>>>>>>>>>>>>>>>>>>>>
<<<<<<<<<<<<<<<<<<<<<<<<<<< PAW Dataset information >>>>>>>>>>>>>>>>>>>>>>>>>>>
File: /work/e89/e89/phsmea/U_det/Cr.PBE-paw.abinit; rc = 2.11 bohr; shape type =  2; rshape = 1.80 bohr;
  Atomic number: 24;  ionic charge: 14.000000
    Partial Wave 1: l = 0
    Partial Wave 2: l = 0
    Partial Wave 3: l = 1
    Partial Wave 4: l = 1
    Partial Wave 5: l = 2
    Partial Wave 6: l = 2
  Core charge supplied for Nonlinear Core Corrections
File: /work/e89/e89/phsmea/U_det/I.PBE-paw.abinit; rc = 2.30 bohr; shape type =  2; rshape = 2.11 bohr;
  Atomic number: 53;  ionic charge:  7.000000
    Partial Wave 1: l = 0
    Partial Wave 2: l = 0
    Partial Wave 3: l = 1
    Partial Wave 4: l = 1
  Core charge supplied for Nonlinear Core Corrections
<<<<<<<<<<<<<<<<<<<<<<<<<<<<<<<<<<<<<<< >>>>>>>>>>>>>>>>>>>>>>>>>>>>>>>>>>>>>>>

-------------------------- Atom counting information ---------------------------
Symbol    Natoms    Nngwfs    Nprojs
  Cr        72       936      1296
  I        216       864      1728
.......   ......    ......    ......
Totals:    288      1800      3024
--------------------------------------------------------------------------------

=============================== PSINC grid sizes ===============================
                      Simulation cell:  175 x 175 x  75
                              FFT-box:  175 x 175 x  75
                                  PPD:    5 x   5 x   1
================================================================================

Atom SCF Calculation for Cr : Z (AE atom) =  24 : Z (PS atom) =  14
Config String: 3s2.0 3p6.0 3d5.0 4s1.0 4p0.0 INIT SPIN=3
Orbitals (num,occ):  5     2.00 6.00 5.00 1.00 0.00
Orbitals   (num,l):  5        0    1    2    0    1
Atom SCF converged after  64 iterations to a total energy of    -87.07044631
Adjusting orbital occupancies:
Orbitals (num,spin,occ):  5  1     1.00 3.00 3.50 1.00 0.00
Orbitals   (num,spin,l):  5  1        0    1    2    0    1
Orbitals (num,spin,occ):  5  2     1.00 3.00 1.00 0.50 0.00
Orbitals   (num,spin,l):  5  2        0    1    2    0    1

Atom SCF Calculation for I  : Z (AE atom) =  53 : Z (PS atom) =   7
Config String: 5s2.0 5p5.0
Orbitals (num,occ):  2     2.00 5.00
Orbitals   (num,l):  2        0    1
Atom SCF converged after  28 iterations to a total energy of    -11.61352964

Atom SCF Calculation for Cr : Z (AE atom) =  24 : Z (PS atom) =  14
Config String: 3s2.0 3p6.0 3d5.0 4s1.0 4p0.0 INIT SPIN=3
Orbitals (num,occ):  5     2.00 6.00 5.00 1.00 0.00
Orbitals   (num,l):  5        0    1    2    0    1
Atom SCF converged after  64 iterations to a total energy of    -87.07044631
Adjusting orbital occupancies:
Orbitals (num,spin,occ):  5  1     1.00 3.00 3.50 1.00 0.00
Orbitals   (num,spin,l):  5  1        0    1    2    0    1
Orbitals (num,spin,occ):  5  2     1.00 3.00 1.00 0.50 0.00
Orbitals   (num,spin,l):  5  2        0    1    2    0    1

Atom SCF Calculation for Cr : Z (AE atom) =  24 : Z (PS atom) =  14
Config String: 3s2.0 3p6.0 3d5.0 4s1.0 4p0.0 INIT SPIN=3
Orbitals (num,occ):  5     2.00 6.00 5.00 1.00 0.00
Orbitals   (num,l):  5        0    1    2    0    1
Atom SCF converged after  64 iterations to a total energy of    -87.07044631

Atom SCF Calculation for I  : Z (AE atom) =  53 : Z (PS atom) =   7
Config String: 5s2.0 5p5.0
Orbitals (num,occ):  2     2.00 5.00
Orbitals   (num,l):  2        0    1
Atom SCF converged after  28 iterations to a total energy of    -11.61352964

Atom SCF Calculation for Cr : Z (AE atom) =  24 : Z (PS atom) =  14
Config String: 3s2.0 3p6.0 3d5.0 4s1.0 4p0.0 INIT SPIN=3
Orbitals (num,occ):  5     2.00 6.00 5.00 1.00 0.00
Orbitals   (num,l):  5        0    1    2    0    1
Atom SCF converged after  64 iterations to a total energy of    -87.07044631
Calculating Ewald energy ...             6126.916246 Hartree

============================= Charge Augmentation ==============================
                           Aug box size:   49 x  49 x  45
================================================================================

================================= Core Density =================================
               Core den box size:  125 x 125 x 117
================================================================================
Density kernel initialisation

################################################################################
###################### NGWF self-consistent optimisation #######################
################################################################################
|ITER|    RMS GRADIENT   |     TOTAL ENERGY    |   step   |     Epredicted      
   0     0.00009869524443  -8812.32013322830608   2.349188  -8816.22934440924291        
   1     0.00006752427979  -8816.44910240767967   1.629046  -8817.78793862643579        
   2     0.00004160951342  -8817.82384888434535   1.808404  -8818.37294116784506        
   3     0.00002883423751  -8818.39718700171943   1.957491  -8818.68758874603009        
   4     0.00002026626752  -8818.68887848481972   1.138732  -8818.76877870792850        
   5     0.00001353495908  -8818.76893733895486   1.990012  -8818.83099479988778        
   6     0.00001150517184  -8818.82990077883005   1.752157  -8818.86867638468539        
   7     0.00000899089703  -8818.86723285260814   1.585918  -8818.88828842972907        
   8     0.00000729664301  -8818.88727927925902   0.928846  -8818.89572756485904        
   9     0.00000479063968  -8818.89562280306200   2.201395  -8818.90426168327576        
  10     0.00000448662497  -8818.90391074957188   1.613778  -8818.90927087299860        
  11     0.00000318912458  -8818.90890526239127   2.336081  -8818.91278131730724        
  12     0.00000404933742  -8818.91169882889699   0.958741  -8818.91438447095243        
  13     0.00000215130143  -8818.91435334066591   2.470752  -8818.91628020688950        
  14     0.00000234607191  -8818.91600523517263   2.441345  -8818.91797945780490        
  15     0.00000228543372  -8818.91681741514185   1.964992  -8818.91775509542458        
  16     0.00000289229626  -8818.91660514133764   0.919764  -8818.91791958097383        
  17     0.00000193970940  -8818.91791281142105   2.021111  -8818.91920910967929        
  18     0.00000141704643  -8818.91914656317385   1.522878  -8818.91967174847196        
  19     0.00000089718460  -8818.91957491739595   2.275861  -8818.91985625076632        
  20     0.00000118509833  -8818.91969764420719   0.846623  -8818.91990077596529        
  21     0.00000051950945  -8818.91988500046682   2.597537  -8818.91999451166703        
  22     0.00000073348498  -8818.91992857176592   0.150000      0.00000000000000        

================================================================================
           ---------------- ENERGY COMPONENTS (Eh) ----------------
           | Kinetic                    :     1819.32491862998131 |
           | Core Hartree               :   -28372.52261515757710 |
           | CoreHart (non-coul chg cor):        0.00000000000000
           | Hartree                    :    13503.98344721453940 |
           | Exchange-correlation       :    -1248.30005506264615 |
           | Hubbard DFT+U correction   :        0.00265139312756 |
           | Ewald                      :     6126.91624599049464 |
           | Dij0                       :     -555.69732389701335 |
           | Dijhartree                 :      248.94252662947170 |
           | Exc [AE core]              :   -42415.10859019334750 |
           | Exc DC [AE core]           :    -1638.57991512932267 |
           | Exc [PS core]              :    -1032.29891908893933 |
           | Exc DC [PS core]           :     -982.36585670771706 |
           | Exc [Core]                 :   -41041.23993575423080 |
           | Total [Sphere]             :     -648.32453261772025 |
           | Total                      :    -8818.91993960980108 |
           --------------------------------------------------------
           Integrated compensation chrg.:      189.13255673596575
           Integrated density           :     2519.99993595343540
           Integrated spin density      :      215.99995949004722
           Integrated |spin density|    :      164.19995244659219
================================================================================

  23     0.00000067975223  -8818.91993960976833  <-- CG                                 

################################################################################
DFT+U information on atom      1 of Hubbard species CrU 
################################################################################
Occupancy matrix of Hubbard site      1 and spin      1 is 
  m_l =   -2          -1           0           1           2
  0.88834028  0.15184480  0.00000164  0.00000078  0.00000288
  0.15188250  0.76934779 -0.00000250  0.00000299 -0.00000256
  0.00000021 -0.00000040  0.99100482 -0.00000002 -0.00000005
  0.00000200  0.00000293 -0.00000118  0.76934503 -0.15187998
  0.00000282 -0.00000129 -0.00000084 -0.15184369  0.88834308
################################################################################
Occupancy matrix of Hubbard site      1 and spin      2 is 
  m_l =   -2          -1           0           1           2
  0.26206811 -0.13360619 -0.00000241  0.00000228  0.00000216
 -0.13363774  0.36789034  0.00000206  0.00000170 -0.00000098
 -0.00000100  0.00000020  0.16053990  0.00000006  0.00000063
  0.00000122  0.00000175  0.00000108  0.36788822  0.13363921
  0.00000222 -0.00000208  0.00000141  0.13360889  0.26207131
WARNING: DFT+U ENERGY of Hubbard site      1 and spin      2 is negative.
################################################################################
Total occupancy of Hubbard site      1 is         5.72683888 e
Local magnetic moment of Hubbard site      1 is   2.88592313 mu_B
DFT+U energy of Hubbard site      1 is            0.00265139 Ha
################################################################################

##### For calculating the Hubbard U and Hund J #################################
DFT+U information on Hubbard site      1 of species CrU  and spin      1
The average Hxc+local potential is            -19.01535319 eV.
The average Hubbard potential is                0.02500000 eV.
The average non-local PAW contribution is     -10.95096603 eV.
################################################################################
DFT+U information on Hubbard site      1 of species CrU  and spin      2
The average Hxc+local potential is            -17.94999586 eV.
The average Hubbard potential is               -0.02500000 eV.
The average non-local PAW contribution is      -9.50936695 eV.
################################################################################

======================== Writing density and potential =========================
Writing "U_0_-0.05_ps_density.cube" ... done
Writing "U_0_-0.05_ps_spindensity.cube" ... done
Writing "U_0_-0.05_ae_density.cube" ... done
Writing "U_0_-0.05_ae_spindensity.cube" ... done
Writing "U_0_-0.05_potential.cube" ... done
Writing "U_0_-0.05_electrostatic_potential.cube" ... done
================================================================================

    Mulliken Atomic Populations
    ---------------------------
Species  Ion    Total   Charge (e)    Spin (hbar)
=================================================
  Cr     1      13.845      0.155      1.68
  Cr     2      13.843      0.157      1.68
  I      3       7.052     -0.052     -0.06
  I      4       7.052     -0.052     -0.06
  I      5       7.052     -0.052     -0.06
  I      6       7.052     -0.052     -0.06
  I      7       7.052     -0.052     -0.06
  I      8       7.052     -0.052     -0.06
  Cr     9      13.845      0.155      1.68
  Cr    10      13.844      0.156      1.68
  I     11       7.052     -0.052     -0.06
  I     12       7.052     -0.052     -0.06
  I     13       7.052     -0.052     -0.06
  I     14       7.052     -0.052     -0.06
  I     15       7.052     -0.052     -0.06
  I     16       7.052     -0.052     -0.06
  Cr    17      13.844      0.156      1.68
  Cr    18      13.844      0.156      1.68
  I     19       7.052     -0.052     -0.06
  I     20       7.052     -0.052     -0.06
  I     21       7.052     -0.052     -0.06
  I     22       7.052     -0.052     -0.06
  I     23       7.052     -0.052     -0.06
  I     24       7.052     -0.052     -0.06
  Cr    25      13.844      0.156      1.68
  Cr    26      13.843      0.157      1.68
  I     27       7.052     -0.052     -0.06
  I     28       7.052     -0.052     -0.06
  I     29       7.052     -0.052     -0.06
  I     30       7.052     -0.052     -0.06
  I     31       7.052     -0.052     -0.06
  I     32       7.052     -0.052     -0.06
  Cr    33      13.845      0.155      1.68
  Cr    34      13.843      0.157      1.68
  I     35       7.052     -0.052     -0.06
  I     36       7.052     -0.052     -0.06
  I     37       7.052     -0.052     -0.06
  I     38       7.052     -0.052     -0.06
  I     39       7.052     -0.052     -0.06
  I     40       7.052     -0.052     -0.06
  Cr    41      13.844      0.156      1.68
  Cr    42      13.844      0.156      1.68
  I     43       7.052     -0.052     -0.06
  I     44       7.052     -0.052     -0.06
  I     45       7.052     -0.052     -0.06
  I     46       7.052     -0.052     -0.06
  I     47       7.052     -0.052     -0.06
  I     48       7.052     -0.052     -0.06
  Cr    49      13.844      0.156      1.68
  Cr    50      13.844      0.156      1.68
  I     51       7.052     -0.052     -0.06
  I     52       7.052     -0.052     -0.06
  I     53       7.052     -0.052     -0.06
  I     54       7.052     -0.052     -0.06
  I     55       7.052     -0.052     -0.06
  I     56       7.052     -0.052     -0.06
  Cr    57      13.844      0.156      1.68
  Cr    58      13.844      0.156      1.68
  I     59       7.052     -0.052     -0.06
  I     60       7.052     -0.052     -0.06
  I     61       7.052     -0.052     -0.06
  I     62       7.052     -0.052     -0.06
  I     63       7.052     -0.052     -0.06
  I     64       7.052     -0.052     -0.06
  Cr    65      13.844      0.156      1.68
  Cr    66      13.844      0.156      1.68
  I     67       7.052     -0.052     -0.06
  I     68       7.052     -0.052     -0.06
  I     69       7.052     -0.052     -0.06
  I     70       7.052     -0.052     -0.06
  I     71       7.052     -0.052     -0.06
  I     72       7.052     -0.052     -0.06
  Cr    73      13.844      0.156      1.68
  Cr    74      13.844      0.156      1.68
  I     75       7.052     -0.052     -0.06
  I     76       7.052     -0.052     -0.06
  I     77       7.052     -0.052     -0.06
  I     78       7.052     -0.052     -0.06
  I     79       7.052     -0.052     -0.06
  I     80       7.052     -0.052     -0.06
  Cr    81      13.845      0.155      1.68
  Cr    82      13.843      0.157      1.68
  I     83       7.052     -0.052     -0.06
  I     84       7.052     -0.052     -0.06
  I     85       7.052     -0.052     -0.06
  I     86       7.052     -0.052     -0.06
  I     87       7.052     -0.052     -0.06
  I     88       7.052     -0.052     -0.06
  Cr    89      13.845      0.155      1.68
  Cr    90      13.843      0.157      1.68
  I     91       7.052     -0.052     -0.06
  I     92       7.052     -0.052     -0.06
  I     93       7.052     -0.052     -0.06
  I     94       7.052     -0.052     -0.06
  I     95       7.052     -0.052     -0.06
  I     96       7.052     -0.052     -0.06
  Cr    97      13.844      0.156      1.68
  Cr    98      13.844      0.156      1.68
  I     99       7.052     -0.052     -0.06
  I    100       7.052     -0.052     -0.06
  I    101       7.052     -0.052     -0.06
  I    102       7.052     -0.052     -0.06
  I    103       7.052     -0.052     -0.06
  I    104       7.052     -0.052     -0.06
  Cr   105      13.844      0.156      1.68
  Cr   106      13.843      0.157      1.68
  I    107       7.052     -0.052     -0.06
  I    108       7.052     -0.052     -0.06
  I    109       7.052     -0.052     -0.06
  I    110       7.052     -0.052     -0.06
  I    111       7.052     -0.052     -0.06
  I    112       7.052     -0.052     -0.06
  Cr   113      13.845      0.155      1.68
  Cr   114      13.844      0.156      1.68
  I    115       7.052     -0.052     -0.06
  I    116       7.052     -0.052     -0.06
  I    117       7.052     -0.052     -0.06
  I    118       7.052     -0.052     -0.06
  I    119       7.052     -0.052     -0.06
  I    120       7.052     -0.052     -0.06
  Cr   121      13.843      0.157      1.67
  Cr   122      13.844      0.156      1.68
  I    123       7.052     -0.052     -0.06
  I    124       7.052     -0.052     -0.06
  I    125       7.052     -0.052     -0.06
  I    126       7.052     -0.052     -0.06
  I    127       7.052     -0.052     -0.06
  I    128       7.052     -0.052     -0.06
  Cr   129      13.844      0.156      1.68
  Cr   130      13.844      0.156      1.68
  I    131       7.052     -0.052     -0.06
  I    132       7.052     -0.052     -0.06
  I    133       7.052     -0.052     -0.06
  I    134       7.052     -0.052     -0.06
  I    135       7.052     -0.052     -0.06
  I    136       7.052     -0.052     -0.06
  Cr   137      13.844      0.156      1.68
  Cr   138      13.844      0.156      1.68
  I    139       7.052     -0.052     -0.06
  I    140       7.052     -0.052     -0.06
  I    141       7.052     -0.052     -0.06
  I    142       7.052     -0.052     -0.06
  I    143       7.052     -0.052     -0.06
  I    144       7.052     -0.052     -0.06
  Cr   145      13.844      0.156      1.68
  Cr   146      13.843      0.157      1.68
  I    147       7.052     -0.052     -0.06
  I    148       7.052     -0.052     -0.06
  I    149       7.052     -0.052     -0.06
  I    150       7.052     -0.052     -0.06
  I    151       7.052     -0.052     -0.06
  I    152       7.052     -0.052     -0.06
  Cr   153      13.845      0.155      1.68
  Cr   154      13.843      0.157      1.68
  I    155       7.052     -0.052     -0.06
  I    156       7.052     -0.052     -0.06
  I    157       7.052     -0.052     -0.06
  I    158       7.052     -0.052     -0.06
  I    159       7.052     -0.052     -0.06
  I    160       7.052     -0.052     -0.06
  Cr   161      13.845      0.155      1.68
  Cr   162      13.844      0.156      1.68
  I    163       7.052     -0.052     -0.06
  I    164       7.052     -0.052     -0.06
  I    165       7.052     -0.052     -0.06
  I    166       7.052     -0.052     -0.06
  I    167       7.052     -0.052     -0.06
  I    168       7.052     -0.052     -0.06
  Cr   169      13.845      0.155      1.68
  Cr   170      13.844      0.156      1.68
  I    171       7.052     -0.052     -0.06
  I    172       7.052     -0.052     -0.06
  I    173       7.052     -0.052     -0.06
  I    174       7.052     -0.052     -0.06
  I    175       7.052     -0.052     -0.06
  I    176       7.052     -0.052     -0.06
  Cr   177      13.844      0.156      1.68
  Cr   178      13.843      0.157      1.68
  I    179       7.052     -0.052     -0.06
  I    180       7.052     -0.052     -0.06
  I    181       7.052     -0.052     -0.06
  I    182       7.052     -0.052     -0.06
  I    183       7.052     -0.052     -0.06
  I    184       7.052     -0.052     -0.06
  Cr   185      13.845      0.155      1.68
  Cr   186      13.843      0.157      1.68
  I    187       7.052     -0.052     -0.06
  I    188       7.052     -0.052     -0.06
  I    189       7.052     -0.052     -0.06
  I    190       7.052     -0.052     -0.06
  I    191       7.052     -0.052     -0.06
  I    192       7.052     -0.052     -0.06
  Cr   193      13.845      0.155      1.68
  Cr   194      13.843      0.157      1.68
  I    195       7.052     -0.052     -0.06
  I    196       7.052     -0.052     -0.06
  I    197       7.052     -0.052     -0.06
  I    198       7.052     -0.052     -0.06
  I    199       7.052     -0.052     -0.06
  I    200       7.052     -0.052     -0.06
  Cr   201      13.844      0.156      1.68
  Cr   202      13.844      0.156      1.68
  I    203       7.052     -0.052     -0.06
  I    204       7.052     -0.052     -0.06
  I    205       7.052     -0.052     -0.06
  I    206       7.052     -0.052     -0.06
  I    207       7.052     -0.052     -0.06
  I    208       7.052     -0.052     -0.06
  Cr   209      13.844      0.156      1.68
  Cr   210      13.843      0.157      1.68
  I    211       7.052     -0.052     -0.06
  I    212       7.052     -0.052     -0.06
  I    213       7.052     -0.052     -0.06
  I    214       7.052     -0.052     -0.06
  I    215       7.052     -0.052     -0.06
  I    216       7.052     -0.052     -0.06
  Cr   217      13.844      0.156      1.68
  Cr   218      13.844      0.156      1.68
  I    219       7.052     -0.052     -0.06
  I    220       7.052     -0.052     -0.06
  I    221       7.052     -0.052     -0.06
  I    222       7.052     -0.052     -0.06
  I    223       7.052     -0.052     -0.06
  I    224       7.052     -0.052     -0.06
  Cr   225      13.844      0.156      1.68
  Cr   226      13.844      0.156      1.68
  I    227       7.052     -0.052     -0.06
  I    228       7.052     -0.052     -0.06
  I    229       7.052     -0.052     -0.06
  I    230       7.052     -0.052     -0.06
  I    231       7.052     -0.052     -0.06
  I    232       7.052     -0.052     -0.06
  Cr   233      13.845      0.155      1.68
  Cr   234      13.844      0.156      1.68
  I    235       7.052     -0.052     -0.06
  I    236       7.052     -0.052     -0.06
  I    237       7.052     -0.052     -0.06
  I    238       7.052     -0.052     -0.06
  I    239       7.052     -0.052     -0.06
  I    240       7.052     -0.052     -0.06
  Cr   241      13.844      0.156      1.68
  Cr   242      13.844      0.156      1.68
  I    243       7.052     -0.052     -0.06
  I    244       7.052     -0.052     -0.06
  I    245       7.052     -0.052     -0.06
  I    246       7.052     -0.052     -0.06
  I    247       7.052     -0.052     -0.06
  I    248       7.052     -0.052     -0.06
  Cr   249      13.844      0.156      1.68
  Cr   250      13.844      0.156      1.68
  I    251       7.052     -0.052     -0.06
  I    252       7.052     -0.052     -0.06
  I    253       7.052     -0.052     -0.06
  I    254       7.052     -0.052     -0.06
  I    255       7.052     -0.052     -0.06
  I    256       7.052     -0.052     -0.06
  Cr   257      13.845      0.155      1.68
  Cr   258      13.843      0.157      1.68
  I    259       7.052     -0.052     -0.06
  I    260       7.052     -0.052     -0.06
  I    261       7.052     -0.052     -0.06
  I    262       7.052     -0.052     -0.06
  I    263       7.052     -0.052     -0.06
  I    264       7.052     -0.052     -0.06
  Cr   265      13.844      0.156      1.68
  Cr   266      13.844      0.156      1.68
  I    267       7.052     -0.052     -0.06
  I    268       7.052     -0.052     -0.06
  I    269       7.052     -0.052     -0.06
  I    270       7.052     -0.052     -0.06
  I    271       7.052     -0.052     -0.06
  I    272       7.052     -0.052     -0.06
  Cr   273      13.844      0.156      1.68
  Cr   274      13.843      0.157      1.68
  I    275       7.052     -0.052     -0.06
  I    276       7.052     -0.052     -0.06
  I    277       7.052     -0.052     -0.06
  I    278       7.052     -0.052     -0.06
  I    279       7.052     -0.052     -0.06
  I    280       7.052     -0.052     -0.06
  Cr   281      13.845      0.155      1.68
  Cr   282      13.843      0.157      1.68
  I    283       7.052     -0.052     -0.06
  I    284       7.052     -0.052     -0.06
  I    285       7.052     -0.052     -0.06
  I    286       7.052     -0.052     -0.06
  I    287       7.052     -0.052     -0.06
  I    288       7.052     -0.052     -0.06
=================================================

        Bond         Population      Spin       Length (bohr)
=============================================================
 Cr  186 -- I   191        0.31     -0.03      4.86412
 Cr  178 -- I   183        0.31     -0.03      4.86412
 Cr  154 -- I   159        0.31     -0.03      4.86412
 Cr  162 -- I   167        0.31     -0.03      4.86412
 Cr  146 -- I   151        0.31     -0.03      4.86412
 Cr   82 -- I    87        0.31     -0.03      4.86412
 Cr  250 -- I   255        0.31     -0.03      4.86412
 Cr  226 -- I   231        0.31     -0.03      4.86412
 Cr   74 -- I    79        0.31     -0.03      4.86412
 Cr   10 -- I    15        0.31     -0.03      4.86412
 Cr  106 -- I   111        0.31     -0.03      4.86412
 Cr   34 -- I    39        0.31     -0.03      4.86412
 Cr   42 -- I    47        0.31     -0.03      4.86412
 Cr   18 -- I    23        0.31     -0.03      4.86412
 Cr  114 -- I   119        0.31     -0.03      4.86412
 Cr    2 -- I     7        0.31     -0.03      4.86412
 Cr   90 -- I    95        0.31     -0.03      4.86412
 Cr  218 -- I   223        0.31     -0.03      4.86412
 Cr  258 -- I   263        0.31     -0.03      4.86412
 Cr  234 -- I   239        0.31     -0.03      4.86412
 Cr  274 -- I   279        0.31     -0.03      4.86412
 Cr  130 -- I   135        0.31     -0.03      4.86412
 Cr   98 -- I   103        0.31     -0.03      4.86412
 Cr   66 -- I    71        0.31     -0.03      4.86412
 Cr  242 -- I   247        0.31     -0.03      4.86412
 Cr   50 -- I    55        0.31     -0.03      4.86412
 Cr   26 -- I    31        0.31     -0.03      4.86412
 Cr   58 -- I    63        0.31     -0.03      4.86412
 Cr  210 -- I   215        0.31     -0.03      4.86412
 Cr  170 -- I   175        0.31     -0.03      4.86412
 Cr  122 -- I   127        0.31     -0.03      4.86412
 Cr  266 -- I   271        0.31     -0.03      4.86412
 Cr  282 -- I   287        0.31     -0.03      4.86412
 Cr  138 -- I   143        0.31     -0.03      4.86412
 Cr  202 -- I   207        0.31     -0.03      4.86412
 Cr  194 -- I   199        0.31     -0.03      4.86412
 Cr  210 -- I   212        0.31     -0.03      4.86413
 Cr  138 -- I   140        0.31     -0.03      4.86413
 Cr   90 -- I    92        0.31     -0.03      4.86413
 Cr  258 -- I   260        0.31     -0.03      4.86413
 Cr  234 -- I   236        0.31     -0.03      4.86413
 Cr   42 -- I    44        0.31     -0.03      4.86413
 Cr   66 -- I    68        0.31     -0.03      4.86413
 Cr  114 -- I   116        0.31     -0.03      4.86413
 Cr   18 -- I    20        0.31     -0.03      4.86413
 Cr  162 -- I   164        0.31     -0.03      4.86413
 Cr  282 -- I   284        0.31     -0.03      4.86413
 Cr  186 -- I   188        0.31     -0.03      4.86413
 Cr  194 -- I   196        0.31     -0.03      4.86413
 Cr  202 -- I   204        0.31     -0.03      4.86413
 Cr   50 -- I    52        0.31     -0.03      4.86413
 Cr   58 -- I    60        0.31     -0.03      4.86413
 Cr  122 -- I   124        0.31     -0.03      4.86413
 Cr  266 -- I   268        0.31     -0.03      4.86413
 Cr  274 -- I   276        0.31     -0.03      4.86413
 Cr  130 -- I   132        0.31     -0.03      4.86413
 Cr  154 -- I   156        0.31     -0.03      4.86413
 Cr  170 -- I   172        0.31     -0.03      4.86413
 Cr   34 -- I    36        0.31     -0.03      4.86413
 Cr   10 -- I    12        0.31     -0.03      4.86413
 Cr  146 -- I   148        0.31     -0.03      4.86413
 Cr    2 -- I     4        0.31     -0.03      4.86413
 Cr   26 -- I    28        0.31     -0.03      4.86413
 Cr  242 -- I   244        0.31     -0.03      4.86413
 Cr  218 -- I   220        0.31     -0.03      4.86413
 Cr  178 -- I   180        0.31     -0.03      4.86413
 Cr   74 -- I    76        0.31     -0.03      4.86413
 Cr   98 -- I   100        0.31     -0.03      4.86413
 Cr  250 -- I   252        0.31     -0.03      4.86413
 Cr  226 -- I   228        0.31     -0.03      4.86413
 Cr  106 -- I   108        0.31     -0.03      4.86413
 Cr   82 -- I    84        0.31     -0.03      4.86413
 Cr  153 -- I   159        0.31     -0.03      4.86414
 Cr  177 -- I   183        0.31     -0.03      4.86414
 Cr   41 -- I    47        0.31     -0.03      4.86414
 Cr  161 -- I   167        0.31     -0.03      4.86414
 Cr    9 -- I    15        0.31     -0.03      4.86414
 Cr  185 -- I   191        0.31     -0.03      4.86414
 Cr   33 -- I    39        0.31     -0.03      4.86414
 Cr   17 -- I    23        0.31     -0.03      4.86414
 Cr  113 -- I   119        0.31     -0.03      4.86414
 Cr   89 -- I    95        0.31     -0.03      4.86414
 Cr  233 -- I   239        0.31     -0.03      4.86414
 Cr  257 -- I   263        0.31     -0.03      4.86414
 Cr  249 -- I   255        0.31     -0.03      4.86414
 Cr  225 -- I   231        0.31     -0.03      4.86414
 Cr   81 -- I    87        0.31     -0.03      4.86414
 Cr  105 -- I   111        0.31     -0.03      4.86414
 Cr  209 -- I   215        0.31     -0.03      4.86414
 Cr   65 -- I    71        0.31     -0.03      4.86414
 Cr   57 -- I    63        0.31     -0.03      4.86414
 Cr  137 -- I   143        0.31     -0.03      4.86414
 Cr  201 -- I   207        0.31     -0.03      4.86414
 Cr  281 -- I   287        0.31     -0.03      4.86414
 Cr  129 -- I   135        0.31     -0.03      4.86414
 Cr  273 -- I   279        0.31     -0.03      4.86414
 Cr   73 -- I    79        0.31     -0.03      4.86414
 Cr  217 -- I   223        0.31     -0.03      4.86414
 Cr  145 -- I   151        0.31     -0.03      4.86414
 Cr    1 -- I     7        0.31     -0.03      4.86414
 Cr  121 -- I   127        0.32     -0.03      4.86414
 Cr  241 -- I   247        0.31     -0.03      4.86414
 Cr   97 -- I   103        0.31     -0.03      4.86414
 Cr  265 -- I   271        0.31     -0.03      4.86414
 Cr   49 -- I    55        0.31     -0.03      4.86414
 Cr   25 -- I    31        0.31     -0.03      4.86414
 Cr  169 -- I   175        0.31     -0.03      4.86414
 Cr  193 -- I   199        0.31     -0.03      4.86414
 Cr  193 -- I   196        0.31     -0.03      4.86414
 Cr   49 -- I    52        0.31     -0.03      4.86414
 Cr  265 -- I   268        0.31     -0.03      4.86414
 Cr  121 -- I   124        0.32     -0.03      4.86414
 Cr  257 -- I   260        0.31     -0.03      4.86414
 Cr  169 -- I   172        0.31     -0.03      4.86414
 Cr  145 -- I   148        0.31     -0.03      4.86414
 Cr   65 -- I    68        0.31     -0.03      4.86414
 Cr  137 -- I   140        0.31     -0.03      4.86414
 Cr  185 -- I   188        0.31     -0.03      4.86414
 Cr  281 -- I   284        0.31     -0.03      4.86414
 Cr  209 -- I   212        0.31     -0.03      4.86414
 Cr  161 -- I   164        0.31     -0.03      4.86414
 Cr    1 -- I     4        0.31     -0.03      4.86414
 Cr   41 -- I    44        0.31     -0.03      4.86414
 Cr  113 -- I   116        0.31     -0.03      4.86414
 Cr  241 -- I   244        0.31     -0.03      4.86414
 Cr   25 -- I    28        0.31     -0.03      4.86414
 Cr   17 -- I    20        0.31     -0.03      4.86414
 Cr   89 -- I    92        0.31     -0.03      4.86414
 Cr  217 -- I   220        0.31     -0.03      4.86414
 Cr  233 -- I   236        0.31     -0.03      4.86414
 Cr   97 -- I   100        0.31     -0.03      4.86414
 Cr   73 -- I    76        0.31     -0.03      4.86414
 Cr  273 -- I   276        0.31     -0.03      4.86414
 Cr  201 -- I   204        0.31     -0.03      4.86414
 Cr  129 -- I   132        0.31     -0.03      4.86414
 Cr   57 -- I    60        0.31     -0.03      4.86414
 Cr   81 -- I    84        0.31     -0.03      4.86414
 Cr  105 -- I   108        0.31     -0.03      4.86414
 Cr  249 -- I   252        0.31     -0.03      4.86414
 Cr  225 -- I   228        0.31     -0.03      4.86414
 Cr  153 -- I   156        0.31     -0.03      4.86414
 Cr   33 -- I    36        0.31     -0.03      4.86414
 Cr  177 -- I   180        0.31     -0.03      4.86414
 Cr    9 -- I    12        0.31     -0.03      4.86414
 I    27 -- Cr  114        0.31     -0.03      5.11128
 I     3 -- Cr   90        0.31     -0.03      5.11128
 I    51 -- Cr  138        0.31     -0.03      5.11128
 Cr  266 -- I   275        0.31     -0.03      5.11128
 Cr  122 -- I   131        0.31     -0.03      5.11128
 Cr   74 -- I    83        0.31     -0.03      5.11128
 Cr   98 -- I   107        0.31     -0.03      5.11128
 Cr  242 -- I   251        0.31     -0.03      5.11128
 Cr  218 -- I   227        0.31     -0.03      5.11128
 Cr  146 -- I   155        0.31     -0.03      5.11128
 Cr  170 -- I   179        0.31     -0.03      5.11128
 Cr   50 -- I    59        0.31     -0.03      5.11128
 Cr    2 -- I    11        0.31     -0.03      5.11128
 Cr   26 -- I    35        0.31     -0.03      5.11128
 Cr  194 -- I   203        0.31     -0.03      5.11128
 I   171 -- Cr  258        0.31     -0.03      5.11128
 I   195 -- Cr  282        0.31     -0.03      5.11128
 I   147 -- Cr  234        0.31     -0.03      5.11128
 Cr  194 -- I   197        0.31     -0.03      5.11128
 Cr  210 -- I   213        0.31     -0.03      5.11128
 Cr  250 -- I   253        0.31     -0.03      5.11128
 Cr  242 -- I   245        0.31     -0.03      5.11128
 Cr   50 -- I    53        0.31     -0.03      5.11128
 Cr  234 -- I   237        0.31     -0.03      5.11128
 Cr  226 -- I   229        0.31     -0.03      5.11128
 Cr  218 -- I   221        0.31     -0.03      5.11128
 Cr   26 -- I    29        0.31     -0.03      5.11128
 Cr  154 -- I   157        0.31     -0.03      5.11128
 Cr  146 -- I   149        0.31     -0.03      5.11128
 Cr  106 -- I   109        0.31     -0.03      5.11128
 Cr  282 -- I   285        0.31     -0.03      5.11128
 Cr    2 -- I     5        0.31     -0.03      5.11128
 Cr  122 -- I   125        0.31     -0.03      5.11128
 Cr  130 -- I   133        0.31     -0.03      5.11128
 Cr   10 -- I    13        0.31     -0.03      5.11128
 Cr   58 -- I    61        0.31     -0.03      5.11128
 Cr   42 -- I    45        0.31     -0.03      5.11128
 Cr   82 -- I    85        0.31     -0.03      5.11128
 Cr   34 -- I    37        0.31     -0.03      5.11128
 Cr   18 -- I    21        0.31     -0.03      5.11128
 Cr  138 -- I   141        0.31     -0.03      5.11128
 Cr   98 -- I   101        0.31     -0.03      5.11128
 Cr   90 -- I    93        0.31     -0.03      5.11128
 Cr  114 -- I   117        0.31     -0.03      5.11128
 Cr   66 -- I    69        0.31     -0.03      5.11128
 Cr  202 -- I   205        0.31     -0.03      5.11128
 Cr  170 -- I   173        0.31     -0.03      5.11128
 Cr   74 -- I    77        0.31     -0.03      5.11128
 Cr  274 -- I   277        0.31     -0.03      5.11128
 Cr  162 -- I   165        0.31     -0.03      5.11128
 Cr  266 -- I   269        0.31     -0.03      5.11128
 Cr  178 -- I   181        0.31     -0.03      5.11128
 Cr  258 -- I   261        0.31     -0.03      5.11128
 Cr  186 -- I   189        0.31     -0.03      5.11128
 Cr  186 -- I   243        0.31     -0.03      5.11128
 Cr  210 -- I   267        0.31     -0.03      5.11128
 Cr  162 -- I   219        0.31     -0.03      5.11128
 Cr  274 -- I   283        0.31     -0.03      5.11128
 Cr  130 -- I   139        0.31     -0.03      5.11128
 Cr   82 -- I    91        0.31     -0.03      5.11128
 Cr  106 -- I   115        0.31     -0.03      5.11128
 Cr   34 -- I    43        0.31     -0.03      5.11128
 Cr   58 -- I    67        0.31     -0.03      5.11128
 Cr  226 -- I   235        0.31     -0.03      5.11128
 Cr  202 -- I   211        0.31     -0.03      5.11128
 Cr  178 -- I   187        0.31     -0.03      5.11128
 Cr   10 -- I    19        0.31     -0.03      5.11128
 Cr  154 -- I   163        0.31     -0.03      5.11128
 Cr  250 -- I   259        0.31     -0.03      5.11128
 Cr   18 -- I    75        0.31     -0.03      5.11128
 Cr   66 -- I   123        0.31     -0.03      5.11128
 Cr   42 -- I    99        0.31     -0.03      5.11128
 Cr  234 -- I   240        0.31     -0.03      5.11128
 Cr  138 -- I   144        0.31     -0.03      5.11128
 Cr  282 -- I   288        0.31     -0.03      5.11128
 Cr  258 -- I   264        0.31     -0.03      5.11128
 Cr  114 -- I   120        0.31     -0.03      5.11128
 Cr   90 -- I    96        0.31     -0.03      5.11128
 Cr  242 -- I   248        0.31     -0.03      5.11128
 Cr  122 -- I   128        0.31     -0.03      5.11128
 Cr  218 -- I   224        0.31     -0.03      5.11128
 Cr  194 -- I   200        0.31     -0.03      5.11128
 Cr   98 -- I   104        0.31     -0.03      5.11128
 Cr   74 -- I    80        0.31     -0.03      5.11128
 Cr  210 -- I   216        0.31     -0.03      5.11128
 Cr   42 -- I    48        0.31     -0.03      5.11128
 Cr   66 -- I    72        0.31     -0.03      5.11128
 Cr   50 -- I    56        0.31     -0.03      5.11128
 Cr   18 -- I    24        0.31     -0.03      5.11128
 Cr   26 -- I    32        0.31     -0.03      5.11128
 Cr   10 -- I    16        0.31     -0.03      5.11128
 Cr  250 -- I   256        0.31     -0.03      5.11128
 Cr    2 -- I     8        0.31     -0.03      5.11128
 Cr   34 -- I    40        0.31     -0.03      5.11128
 Cr  146 -- I   152        0.31     -0.03      5.11128
 Cr  266 -- I   272        0.31     -0.03      5.11128
 Cr  154 -- I   160        0.31     -0.03      5.11128
 Cr   58 -- I    64        0.31     -0.03      5.11128
 Cr  202 -- I   208        0.31     -0.03      5.11128
 Cr  162 -- I   168        0.31     -0.03      5.11128
 Cr  170 -- I   176        0.31     -0.03      5.11128
 Cr  178 -- I   184        0.31     -0.03      5.11128
 Cr  130 -- I   136        0.31     -0.03      5.11128
 Cr  226 -- I   232        0.31     -0.03      5.11128
 Cr  106 -- I   112        0.31     -0.03      5.11128
 Cr   82 -- I    88        0.31     -0.03      5.11128
 Cr  186 -- I   192        0.31     -0.03      5.11128
 Cr  274 -- I   280        0.31     -0.03      5.11128
 Cr  130 -- I   142        0.31     -0.03      5.11128
 Cr  274 -- I   286        0.31     -0.03      5.11128
 Cr  250 -- I   262        0.31     -0.03      5.11128
 Cr  226 -- I   238        0.31     -0.03      5.11128
 Cr  106 -- I   118        0.31     -0.03      5.11128
 Cr   82 -- I    94        0.31     -0.03      5.11128
 Cr  266 -- I   278        0.31     -0.03      5.11128
 Cr  242 -- I   254        0.31     -0.03      5.11128
 Cr  218 -- I   230        0.31     -0.03      5.11128
 Cr  194 -- I   206        0.31     -0.03      5.11128
 Cr  122 -- I   134        0.31     -0.03      5.11128
 Cr   34 -- I    46        0.31     -0.03      5.11128
 Cr  154 -- I   166        0.31     -0.03      5.11128
 Cr   26 -- I    38        0.31     -0.03      5.11128
 Cr   10 -- I    22        0.31     -0.03      5.11128
 Cr   58 -- I    70        0.31     -0.03      5.11128
 Cr   50 -- I    62        0.31     -0.03      5.11128
 Cr    2 -- I    14        0.31     -0.03      5.11128
 Cr  170 -- I   182        0.31     -0.03      5.11128
 Cr   74 -- I    86        0.31     -0.03      5.11128
 Cr   98 -- I   110        0.31     -0.03      5.11128
 Cr  146 -- I   158        0.31     -0.03      5.11128
 Cr  202 -- I   214        0.31     -0.03      5.11128
 Cr  178 -- I   190        0.31     -0.03      5.11128
 I   198 -- Cr  282        0.31     -0.03      5.11128
 I   150 -- Cr  234        0.31     -0.03      5.11128
 I   174 -- Cr  258        0.31     -0.03      5.11128
 I    54 -- Cr  138        0.31     -0.03      5.11128
 I     6 -- Cr   90        0.31     -0.03      5.11128
 I    30 -- Cr  114        0.31     -0.03      5.11128
 Cr   18 -- I    78        0.31     -0.03      5.11128
 Cr   42 -- I   102        0.31     -0.03      5.11128
 Cr   66 -- I   126        0.31     -0.03      5.11128
 Cr  210 -- I   270        0.31     -0.03      5.11128
 Cr  162 -- I   222        0.31     -0.03      5.11128
 Cr  186 -- I   246        0.31     -0.03      5.11128
 Cr  265 -- I   270        0.31     -0.03      5.11131
 Cr  241 -- I   246        0.31     -0.03      5.11131
 Cr  217 -- I   222        0.31     -0.03      5.11131
 Cr   97 -- I   102        0.31     -0.03      5.11131
 Cr   73 -- I    78        0.31     -0.03      5.11131
 Cr  121 -- I   126        0.32     -0.03      5.11131
 Cr  249 -- I   280        0.31     -0.03      5.11131
 Cr  185 -- I   216        0.31     -0.03      5.11131
 Cr  161 -- I   192        0.31     -0.03      5.11131
 Cr  153 -- I   184        0.31     -0.03      5.11131
 Cr  177 -- I   208        0.31     -0.03      5.11131
 Cr   89 -- I   120        0.31     -0.03      5.11131
 Cr   33 -- I    64        0.31     -0.03      5.11131
 Cr  129 -- I   232        0.31     -0.03      5.11131
 Cr  113 -- I   144        0.31     -0.03      5.11131
 Cr  233 -- I   264        0.31     -0.03      5.11131
 Cr   41 -- I    72        0.31     -0.03      5.11131
 Cr   17 -- I    48        0.31     -0.03      5.11131
 Cr  105 -- I   136        0.31     -0.03      5.11131
 Cr   81 -- I   112        0.31     -0.03      5.11131
 Cr  137 -- I   240        0.31     -0.03      5.11131
 Cr    9 -- I    40        0.31     -0.03      5.11131
 Cr  225 -- I   256        0.31     -0.03      5.11131
 Cr  257 -- I   288        0.31     -0.03      5.11131
 Cr  145 -- I   176        0.31     -0.03      5.11131
 Cr  121 -- I   224        0.32     -0.03      5.11131
 Cr  241 -- I   272        0.31     -0.03      5.11131
 Cr   73 -- I   104        0.31     -0.03      5.11131
 Cr    1 -- I    32        0.31     -0.03      5.11131
 Cr   97 -- I   128        0.31     -0.03      5.11131
 Cr   25 -- I    56        0.31     -0.03      5.11131
 Cr  169 -- I   200        0.31     -0.03      5.11131
 Cr  217 -- I   248        0.31     -0.03      5.11131
 Cr  273 -- I   278        0.31     -0.03      5.11131
 Cr   81 -- I    86        0.31     -0.03      5.11131
 Cr  105 -- I   110        0.31     -0.03      5.11131
 Cr  281 -- I   286        0.31     -0.03      5.11131
 Cr  129 -- I   134        0.31     -0.03      5.11131
 Cr  249 -- I   254        0.31     -0.03      5.11131
 Cr  225 -- I   230        0.31     -0.03      5.11131
 Cr  137 -- I   142        0.31     -0.03      5.11131
 Cr  257 -- I   262        0.31     -0.03      5.11131
 Cr   65 -- I    70        0.31     -0.03      5.11131
 Cr   57 -- I    62        0.31     -0.03      5.11131
 Cr  113 -- I   118        0.31     -0.03      5.11131
 Cr   41 -- I    46        0.31     -0.03      5.11131
 Cr   17 -- I    22        0.31     -0.03      5.11131
 Cr  233 -- I   238        0.31     -0.03      5.11131
 Cr    9 -- I    14        0.31     -0.03      5.11131
 Cr  201 -- I   206        0.31     -0.03      5.11131
 Cr   89 -- I    94        0.31     -0.03      5.11131
 Cr  177 -- I   182        0.31     -0.03      5.11131
 Cr  161 -- I   166        0.31     -0.03      5.11131
 Cr   33 -- I    38        0.31     -0.03      5.11131
 Cr  153 -- I   158        0.31     -0.03      5.11131
 Cr  185 -- I   190        0.31     -0.03      5.11131
 Cr  209 -- I   214        0.31     -0.03      5.11131
 Cr   65 -- I   168        0.31     -0.03      5.11131
 Cr   57 -- I   160        0.31     -0.03      5.11131
[...]
*    I     148     -0.00133428  -0.00231230  -0.00481615 *
*    I     149     -0.00134147   0.00234523  -0.00481166 *
*    I     150     -0.00270133  -0.00000885   0.00481186 *
*    I     151      0.00133639   0.00231210   0.00481600 *
*    I     152      0.00134197  -0.00234537   0.00481190 *
*    Cr    153      0.00001017  -0.00000188   0.00000016 *
*    Cr    154     -0.00002156  -0.00000639  -0.00000075 *
*    I     155      0.00270240   0.00001449  -0.00481216 *
*    I     156     -0.00133397  -0.00231198  -0.00481473 *
*    I     157     -0.00134050   0.00234500  -0.00481319 *
*    I     158     -0.00270096  -0.00000756   0.00481115 *
*    I     159      0.00133562   0.00231101   0.00481517 *
*    I     160      0.00134056  -0.00234289   0.00481181 *
*    Cr    161      0.00001036  -0.00000708  -0.00000018 *
*    Cr    162     -0.00002432   0.00001314   0.00000040 *
*    I     163      0.00270025   0.00001383  -0.00481172 *
*    I     164     -0.00133361  -0.00231426  -0.00481531 *
*    I     165     -0.00134172   0.00234248  -0.00481215 *
*    I     166     -0.00270234  -0.00001150   0.00481239 *
*    I     167      0.00133729   0.00231269   0.00481516 *
*    I     168      0.00133742  -0.00234645   0.00481213 *
*    Cr    169     -0.00000739  -0.00000172  -0.00000133 *
*    Cr    170     -0.00001898   0.00000490  -0.00000153 *
*    I     171      0.00270296   0.00001467  -0.00481369 *
*    I     172     -0.00133298  -0.00231151  -0.00481487 *
*    I     173     -0.00134139   0.00234610  -0.00481313 *
*    I     174     -0.00269739  -0.00000902   0.00481023 *
*    I     175      0.00133553   0.00230983   0.00481539 *
*    I     176      0.00134131  -0.00234351   0.00481184 *
*    Cr    177     -0.00002260   0.00001300  -0.00000180 *
*    Cr    178      0.00001047  -0.00000614  -0.00000194 *
*    I     179      0.00270166   0.00001175  -0.00481244 *
*    I     180     -0.00133341  -0.00231152  -0.00481586 *
*    I     181     -0.00134206   0.00234309  -0.00481193 *
*    I     182     -0.00270119  -0.00001103   0.00481269 *
*    I     183      0.00133476   0.00231092   0.00481607 *
*    I     184      0.00133938  -0.00234799   0.00481233 *
*    Cr    185      0.00000638  -0.00000859   0.00000000 *
*    Cr    186     -0.00000512   0.00002070  -0.00000071 *
*    I     187      0.00269996   0.00001004  -0.00481025 *
*    I     188     -0.00133177  -0.00231171  -0.00481499 *
*    I     189     -0.00134156   0.00234438  -0.00481121 *
*    I     190     -0.00270336  -0.00001177   0.00481293 *
*    I     191      0.00133609   0.00231210   0.00481549 *
*    I     192      0.00133954  -0.00234762   0.00481282 *
*    Cr    193      0.00000468  -0.00000431   0.00000011 *
*    Cr    194     -0.00001725   0.00000802  -0.00000048 *
*    I     195      0.00270082   0.00000988  -0.00481238 *
*    I     196     -0.00133297  -0.00231269  -0.00481599 *
*    I     197     -0.00134104   0.00234223  -0.00481208 *
*    I     198     -0.00270090  -0.00001198   0.00481449 *
*    I     199      0.00133611   0.00231084   0.00481545 *
*    I     200      0.00133965  -0.00234598   0.00481313 *
*    Cr    201     -0.00000152   0.00000851  -0.00000230 *
*    Cr    202     -0.00001390   0.00001489  -0.00000167 *
*    I     203      0.00269993   0.00001035  -0.00481098 *
*    I     204     -0.00133281  -0.00231085  -0.00481517 *
*    I     205     -0.00134369   0.00234207  -0.00481108 *
*    I     206     -0.00270053  -0.00001407   0.00481372 *
*    I     207      0.00133591   0.00231105   0.00481479 *
*    I     208      0.00134010  -0.00234619   0.00481278 *
*    Cr    209     -0.00001498   0.00001400   0.00000080 *
*    Cr    210      0.00001151   0.00001318   0.00000036 *
*    I     211      0.00269948   0.00001028  -0.00481032 *
*    I     212     -0.00133460  -0.00231267  -0.00481480 *
*    I     213     -0.00134350   0.00234409  -0.00481102 *
*    I     214     -0.00270102  -0.00001013   0.00481157 *
*    I     215      0.00133569   0.00231365   0.00481567 *
*    I     216      0.00134031  -0.00234555   0.00481175 *
*    Cr    217      0.00000755  -0.00002944   0.00000071 *
*    Cr    218     -0.00001161  -0.00000039   0.00000063 *
*    I     219      0.00269949   0.00001141  -0.00481040 *
*    I     220     -0.00133886  -0.00231553  -0.00481503 *
*    I     221     -0.00142222   0.00223060  -0.00473017 *
*    I     222     -0.00270146  -0.00001066   0.00481252 *
*    I     223      0.00133816   0.00231400   0.00481559 *
*    I     224      0.00120336  -0.00235921   0.00473194 *
*    Cr    225      0.00000548  -0.00001137  -0.00000192 *
*    Cr    226     -0.00003304  -0.00000886  -0.00000101 *
*    I     227      0.00269958   0.00001217  -0.00480979 *
*    I     228     -0.00133428  -0.00231240  -0.00481554 *
*    I     229     -0.00134357   0.00234156  -0.00481132 *
*    I     230     -0.00270234  -0.00001303   0.00481129 *
*    I     231      0.00133735   0.00231183   0.00481507 *
*    I     232      0.00133810  -0.00234556   0.00481328 *
*    Cr    233     -0.00000321  -0.00000373  -0.00000072 *
*    Cr    234     -0.00003195  -0.00000433  -0.00000050 *
*    I     235      0.00270255   0.00001194  -0.00481235 *
*    I     236     -0.00133411  -0.00231152  -0.00481603 *
*    I     237     -0.00134250   0.00234349  -0.00481181 *
*    I     238     -0.00270070  -0.00000895   0.00481282 *
*    I     239      0.00133595   0.00231155   0.00481544 *
*    I     240      0.00134265  -0.00234229   0.00481169 *
*    Cr    241      0.00000815  -0.00003351  -0.00000121 *
*    Cr    242     -0.00001370  -0.00000258  -0.00000132 *
*    I     243      0.00269976   0.00001140  -0.00481103 *
*    I     244     -0.00133255  -0.00231333  -0.00481501 *
*    I     245     -0.00134243   0.00234101  -0.00480915 *
*    I     246     -0.00270031  -0.00001104   0.00481280 *
*    I     247      0.00133637   0.00231229   0.00481494 *
*    I     248      0.00133815  -0.00234383   0.00481056 *
*    Cr    249      0.00000515  -0.00001565  -0.00000160 *
*    Cr    250     -0.00001611  -0.00000315  -0.00000155 *
*    I     251      0.00269839   0.00001273  -0.00481099 *
*    I     252     -0.00133263  -0.00231218  -0.00481488 *
*    I     253     -0.00134170   0.00234113  -0.00481105 *
*    I     254     -0.00269780  -0.00000745   0.00481007 *
*    I     255      0.00133754   0.00231315   0.00481812 *
*    I     256      0.00133932  -0.00234232   0.00481012 *
*    Cr    257     -0.00000005  -0.00001171   0.00000040 *
*    Cr    258     -0.00002207   0.00000178  -0.00000025 *
*    I     259      0.00270128   0.00001295  -0.00481260 *
*    I     260     -0.00133385  -0.00231079  -0.00481529 *
*    I     261     -0.00133972   0.00234527  -0.00481205 *
*    I     262     -0.00269917  -0.00000712   0.00481261 *
*    I     263      0.00133549   0.00231292   0.00481597 *
*    I     264      0.00134150  -0.00234155   0.00481112 *
*    Cr    265      0.00001200  -0.00002962  -0.00000069 *
*    Cr    266     -0.00000152  -0.00000453  -0.00000052 *
*    I     267      0.00270073   0.00001079  -0.00481180 *
*    I     268     -0.00133259  -0.00231306  -0.00481718 *
*    I     269     -0.00134421   0.00234436  -0.00481226 *
*    I     270     -0.00269984  -0.00000711   0.00481175 *
*    I     271      0.00133634   0.00231196   0.00481652 *
*    I     272      0.00133948  -0.00234497   0.00481272 *
*    Cr    273      0.00001259  -0.00001807  -0.00000044 *
*    Cr    274     -0.00000996  -0.00000611   0.00000059 *
*    I     275      0.00270161   0.00001527  -0.00481322 *
*    I     276     -0.00133288  -0.00231136  -0.00481526 *
*    I     277     -0.00134151   0.00234389  -0.00481142 *
*    I     278     -0.00269931  -0.00000668   0.00481230 *
*    I     279      0.00133636   0.00231246   0.00481598 *
*    I     280      0.00134109  -0.00234164   0.00481140 *
*    Cr    281      0.00000907  -0.00000819  -0.00000018 *
*    Cr    282     -0.00001170   0.00000367   0.00000001 *
*    I     283      0.00270038   0.00001488  -0.00481304 *
*    I     284     -0.00133392  -0.00231200  -0.00481521 *
*    I     285     -0.00133868   0.00234531  -0.00481310 *
*    I     286     -0.00269963  -0.00000860   0.00481156 *
*    I     287      0.00133459   0.00231041   0.00481654 *
*    I     288      0.00134137  -0.00234279   0.00481153 *
*                                                        *
**********************************************************
* TOTAL:           -0.00000000  -0.00000000   0.00000000 *
**********************************************************
 
 
***********************************************************
********** Summary of Forces (values in Eh/a) *************
*                                                         *
* ---------------------- Minimum ------------------------ *
* Atom:        17, |F|min =    0.00000453                 *
* Components:     Fx|min       Fy|min       Fz|min        *
*              -0.00000027   0.00000432  -0.00000136      *
*                                                         *
* ---------------------- Maximum ------------------------ *
* Atom:        69, |F|max =    0.00552187                 *
* Components:     Fx|max       Fy|max       Fz|max        *
*              -0.00133854   0.00235128  -0.00481361      *
*                                                         *
* ---------------- Root Mean Square Force --------------- *
*                  |F|rms =    0.00477305                 *
* Components:     Fx|rms       Fy|rms       Fz|rms        *
*               0.00164787   0.00164546   0.00416641      *
***********************************************************
 

------------------------------ TIMING INFORMATION ------------------------------
AVERAGE TIME:   23918.803s on     56 proc(s)                                    
TOTAL TIME:     23918.803s on     56 proc(s)                                    
==================== AVERAGE TIMINGS FROM ALL PROCS (CUMULATIVE) =====================
|| TAG                                         #calls     cpu time   %total  Gflops ||
|| hubbard_species_proj                       :     1        0.00s   0.000%  ------ ||
|| hubbard_ngwf_on_grid                       :     1        0.00s   0.000%  ------ ||
|| linalg_invert_sym_matrix                   :     4        0.01s   0.000%  ------ || (1 procs only)
|| hash_table_free                            :    49        0.00s   0.000%  ------ ||
|| hubbard_projector_character                :     1        0.00s   0.000%  ------ ||
|| sw_bessel_init_cpu                         :     1        0.01s   0.000%  ------ || (1 procs only)
|| hubbard_tensorial_correction               :     2        0.00s   0.000%  ------ ||
|| hubbard_ngwf_select                        :     1        0.00s   0.000%  ------ ||
|| density_fftbox_interp_mult_imbal           : 17688        0.00s   0.000%  ------ ||
|| ewald_calculate_forces_realspace           :     1        0.01s   0.000%  ------ ||
|| onetep.F90 final imbalance                 :     1        0.02s   0.000%  ------ ||
|| linalg_dgemv                               :    44        0.02s   0.000%  ------ ||
|| sparse_blacstospam3_real_fast_imbal        :    96        0.03s   0.000%  ------ ||
|| sparse_set_to_garbage                      :  1070        0.04s   0.000%  ------ ||
|| ewald_calculate_energy                     :     1        0.05s   0.000%  ------ ||
|| paw_tcore_hartree_on_grid                  :     1        0.10s   0.000%  ------ ||
|| sw_init                                    :   535        0.12s   0.000%  ------ ||
|| ewald_calculate_forces_recipspace          :     1        0.12s   0.000%  ------ ||
|| paw_dij_hartree                            :   297        0.12s   0.001%  ------ ||
|| pseudo_make_structure_factor               :     1        0.14s   0.001%  ------ ||
|| onetep.F90 main loop imbalance             :     1        0.15s   0.001%  ------ ||
|| hubbard_projection_mtx                     :    51        0.16s   0.001%  ------ ||
|| restart_hamiltonian_write                  :     2        0.17s   0.001%  ------ ||
|| sparse_spam3toblacs_real_fast_B2           :  4592        0.18s   0.001%  ------ ||
|| sparse_spam3toblacs_real_fast_imbal        :    82        0.33s   0.001%  ------ ||
|| ewald_calculate_forces                     :     1        0.34s   0.001%  ------ ||
|| augmentation_density_forces                :     1        0.37s   0.002%  ------ ||
|| sparse_init                                :     1        0.39s   0.002%  ------ ||
|| basis_extract_function_from_box            :  3085        0.61s   0.003%  ------ ||
|| paw_tcore_hartree_calc_forces              :     1        0.73s   0.003%  ------ ||
|| hubbard_projector_ham                      :   127        0.91s   0.004%  ------ ||
|| hubbard_ham_matrix                         :   128        1.38s   0.006%  ------ ||
|| paw_tcore_density                          :     1        1.84s   0.008%  ------ ||
|| sparse_spam3toblacs_real_fast_B1           :  4592        1.98s   0.008%  ------ ||
|| paw_dataset_init                           :     2        2.15s   0.009%  ------ ||
|| paw_nlcc_calculate_forces                  :     1        2.39s   0.010%  ------ ||
|| restart_kernel_write                       :    26        2.40s   0.010%  ------ ||
|| paw_sphere_density_on_grid                 :     1        2.80s   0.012%  ------ ||
|| sparse_spam3toblacs_real_fast              :    82        2.86s   0.012%  ------ ||
|| nonsc_forces_ngwfs_calc                    :     1        2.96s   0.012%  ------ ||
|| hubbard_energy_total                       :   270        3.07s   0.013%  ------ ||
|| sparse_blacstospam3_real_fast              :    96        5.42s   0.023%  ------ ||
|| paw_species_calc_proj_prec_mat             :     1        5.80s   0.024%  ------ ||
|| ngwfs_initialise_from_radial               :     4        5.80s   0.024%  ------ ||
|| sparse_embed_array_hotelling_invert        :    49        6.86s   0.029%  ------ ||
|| dense_eigensolve                           :    38       10.43s   0.044%  ------ ||
|| hubbard_calculate_forces                   :     1       11.00s   0.046%  ------ ||
|| edft_diag_ngwf_ham                         :    36       12.32s   0.052%  ------ ||
|| integrals_grad_spam3                       :     4       13.85s   0.058%  ------ ||
|| sparse_trace                               :  9252       15.11s   0.063%  ------ ||
|| kernel_purify                              :   388       17.01s   0.071%  ------ ||
|| edft_apply_smearing_operator               :    18       18.68s   0.078%  ------ ||
|| energy_and_force_init_cell                 :     1       20.59s   0.086%  ------ ||
|| ngwf_gradient_coeffs                       :    24       21.36s   0.089%  ------ ||
|| lnv_gradient_norm                          :   120       22.48s   0.094%  ------ ||
|| kernel_fix                                 :   120       23.34s   0.098%  ------ ||
|| fourier_filter_cell                        :   306       24.26s   0.101% 140.016 ||
|| hubbard_projector_update                   :     1       30.67s   0.128%  ------ ||
|| basis_copy_function_to_box                 : 30921       30.81s   0.129%  ------ ||
|| eigenstates_calculate                      :     1       32.16s   0.134%  ------ ||
|| hartree_on_grid_single                     :   267       35.20s   0.147%  ------ ||
|| fourier_apply_box_pair                     :  4728       36.08s   0.151%  1.781k ||
|| hamiltonian_energy_components              :     1       37.29s   0.156%  ------ ||
|| projectors_func_grad_ovlp_box_spam3        :     6       40.57s   0.170%  ------ ||
|| aug_nl_calculate_forces                    :     1       41.67s   0.174%  ------ ||
|| fourier_interpolate_cell                   :   536       43.26s   0.181% 137.546 ||
|| density_init_guess_real                    :     2       58.32s   0.244%  ------ ||
|| augmentation_screen_dij_spam3              :   266       87.29s   0.365%  ------ ||
|| cell_grid_deposit_box_real                 : 21738      111.29s   0.465%  ------ ||
|| sparse_product                             : 17676      127.51s   0.533%  ------ ||
|| forces_calculate                           :     1      127.74s   0.534%  ------ ||
|| aug_nonlocal_mat_spam3_embed_array         :   272      138.94s   0.581%  ------ ||
|| paw_dij_xc                                 :   297      144.95s   0.606%  ------ ||
|| restart_ngwfs_tightbox_output              :    23      156.11s   0.653%  ------ ||
|| fourier_apply_cell_backward                :  2404      159.16s   0.665% 150.881 ||
|| fourier_filter                             :  5748      176.73s   0.739%  ------ ||
|| fourier_apply_cell_forward                 :  2404      178.60s   0.747% 134.456 ||
|| aug_density_on_grid_spam3                  :   268      193.52s   0.809%  ------ ||
|| projectors_init_fftbox_recip               :   641      228.63s   0.956%  ------ ||
|| fourier_interpolate                        :  5748      273.84s   1.145%  ------ ||
|| cell_grid_extract_box_real                 : 13546      285.12s   1.192%  ------ ||
|| function_ops_brappd_ketppd_spam3           :   200      312.62s   1.307%  ------ ||
|| xc_energy_potential                        :   267      372.46s   1.557%  ------ ||
|| properties_calculate                       :     1      459.30s   1.920%  ------ ||
|| density_fftbox_deposit_to_cell             : 17688      727.08s   3.040%  ------ ||
|| projectors_func_ovlp_box_spam3             :   202      774.78s   3.239%  ------ ||
|| integrals_kinetic_spam3                    :    98      840.25s   3.513%  ------ ||
|| edft_calculate                             :     1      897.96s   3.754%  ------ ||
|| basis_dot_function_with_box                : 10.75M    1181.18s   4.938%  ------ ||
|| potential_apply_to_ngwf_batch              :   770     1356.14s   5.670%  ------ ||
|| projectors_gradient_batch                  :   288     1562.13s   6.531%  ------ ||
|| fourier_apply_box                          : 94903     2289.69s   9.573%  1.872k ||
|| integrals_locpot_mat_els_batch             :   770     2325.51s   9.723%  ------ ||
|| fourier_interpolate_product                : 17228     2483.10s  10.381%  ------ ||
|| density_fftbox_interpolate_multiply        : 17688     2615.53s  10.935%  ------ ||
|| basis_add_function_to_box                  : 21.45M    2632.31s  11.005%  ------ ||
|| projectors_grad_precond_batch              :   144     3086.43s  12.904%  ------ ||
|| integrals_locpot_dbl_grid                  :   258     3684.71s  15.405%  ------ ||
|| density_batch_interp_deposit               :  1608     4180.37s  17.477%  ------ ||
|| density_batch_row_sums                     :  1608     4728.70s  19.770%  ------ ||
|| ngwf_gradient_build_batch                  :   144     5146.12s  21.515%  ------ ||
|| ngwf_gradient_batch                        :   144     7376.65s  30.840%  ------ ||
|| ngwf_gradient_lnv                          :    24     7492.93s  31.327%  ------ ||
|| density_on_dbl_grid                        :   536     8980.81s  37.547%  ------ ||
|| hamiltonian_lhxc_calculate                 :   264     9638.08s  40.295%  ------ ||
|| lnv_denskernel_optimise_cg                 :    24    11653.87s  48.723%  ------ ||
|| ngwf_cg_optimise                           :     1    22227.52s  92.929%  ------ ||
|| energy_and_forces                          :     1    23896.66s  99.907%  ------ ||
|| total_time                                 :     1    23918.80s 100.000%  ------ ||
======================================================================================
Overhead of generating timer report: 
- 0 ms averaging over threads,
- 13 ms ensuring consistency across MPI ranks,
- 27 ms printing in order.

Job completed: 23-10-2024 00:09 (+0100)

onetep_launcher: ONETEP seems to have finished correctly (zero exit code).
                 Brought to you by PID 190344 on nid005399.
