==================================================================================
It's Tue 22 Oct 2024 09:45:25 AM BST.
*** Starting onetep_launcher (node nid001608, PIDs 37945 37946 37947 37948 37949 37950 37951 37952)...
    - ONETEP arguments: U_0_0.1.dat
    - Current directory: /mnt/lustre/a2fs-work3/work/e89/e89/phsmea/J_det/U_0_0.1
    - Launcher executable directory: /mnt/lustre/a2fs-work3/work/e89/e89/phsmea/J_det/U_0_0.1
    - (-e) ONETEP executable specified through command-line: /work/e89/e89/phsmea/onetep.archer2_2024_cray
      ... trying /work/e89/e89/phsmea/onetep.archer2_2024_cray
          -> looks OK
*** Setting up environment...
    - (-s) Process stack size: unlimited
    - (-t) OMP_NUM_THREADS: 16
    - (-o) OMP_STACKSIZE: 64M
    - (-c) Maximum core file size: 2048000
    - (-d) decfort_dump_flag: n
    - (-m) I_MPI_OFA_TRANSLATION_CACHE: 0
    - (-m) I_MPI_DAPL_TRANSLATION_CACHE: 0
    - (-m) I_MPI_DAPL_UD_TRANSLATION_CACHE: 0
*** Starting ONETEP...
    - /work/e89/e89/phsmea/onetep.archer2_2024_cray U_0_0.1.dat
=================================================================================
_________________________________________________________________________________
 +---------------------------------------------------------------+
 |                                                               |
 |        ####### #     # ####### ####### ####### ######         |
 |        #     # ##    # #          #    #       #     #        |
 |        #     # # #   # #          #    #       #     #        |
 |        #     # #  #  # #####      #    #####   ######         |
 |        #     # #   # # #          #    #       #              |
 |        #     # #    ## #          #    #       #              |
 |        ####### #     # #######    #    ####### #              |
 |                                                               |
 |        Linear-Scaling Ab Initio Total Energy Program          |
 |                                                               |
 |          Release for academic collaborators of ODG            |
 |                                             Version 7.3.0     |
 | Remote: git@github.com:Miesaz/onetep_mea.git                  |
 | Local branch: master                                          |
 | Commit ID: 4af45e89288c8df5499704252eec3e032ee3d0c8           |
 | Date: Tue Aug 6 11:28:44 2024 +0100                           |
 | Working tree clean                                            |
 |                                                               |
 +---------------------------------------------------------------+
 |                                                               |
 |  Authors:                                                     |
 |  Jacek Dziedzic, Peter D. Haynes, Nicholas D. M. Hine,        |
 |  Arash A. Mostofi, Mike C. Payne and Chris-Kriton Skylaris    |
 |                                                               |
 |  Contributors:                                                |
 |  J. Aarons, L. Andrinopoulos, P. W. Avraam, R. A. Bell,       |
 |  A. Bhandari, G. A. Bramley, R. J. Charlton, S. J. Clark,     |
 |  R. J. Clements, G. C. Constantinescu, F. Corsetti,           |
 |  N. Corsini, O. Dieguez, S. M. M. Dubois, K. K. B. Duff,      |
 |  J. M. Escartin, M. Escobar Azor, A. Greco,                   |
 |  H. Helal, Q. O. Hill, L. P. Lee, J.-H. Li,                   |
 |  T. Li, E. B. Linscott, G. Moynihan, D. D. O`Regan,           |
 |  O. K. Okan, E. Parkinson, M. J. S. Phipps,                   |
 |  C. J. Pickard, J. C. A. Prentice, M. I. J. Probert,          |
 |  L. E. Ratcliff, M. Robinson, A. Ruiz Serrano,                |
 |  M. dos Santos Dias, J. S. Spencer, E. W. Tait,               |
 |  G. Teobaldi, D. Turban, V. Vitale, K. A. Wilkinson,          |
 |  C. Weber, J. C. Womack, Chengcheng Xiao, N. Yeung,           |
 |  and T. J. Zuehlsdorff.                                       |
 |                                                               |
 |                                   Copyright (c) 2004-2024     |
 |                                                               |
 |  Please cite:                                                 |
 |  "The ONETEP linear-scaling density functional theory program"|
 |   J. Chem. Phys. 152(17) 174111 (2020)                        |
 |                                                               |
 |          in all publications arising from your use of ONETEP. |
 |                                                               |
 +---------------------------------------------------------------+
 |                                                               |
 |   ONETEP is based on developments described in the following  |
 |   publications:                                               |
 |                                                               |
 |  "Nonorthogonal generalized Wannier function pseudopotential  |
 |   plane-wave method".                                         |
 |   C.-K. Skylaris, A. A. Mostofi, P. D. Haynes, O. Dieguez,    |
 |   M. C. Payne.                                                |
 |   Phys. Rev. B 66 035119 (2002).                              |
 |                                                               |
 |  "Preconditioned iterative minimization for linear-scaling    |
 |   electronic structure calculations".                         |
 |   A. A. Mostofi, P. D. Haynes, C.-K. Skylaris, M. C. Payne.   |
 |   J. Chem. Phys. 119(17), pp.8842-8848 (2003).                |
 |                                                               |
 |  "Total-energy calculations on a real space grid with         |
 |   localized functions and a plane-wave basis".                |
 |   A. A. Mostofi, C.-K. Skylaris, P. D. Haynes, M. C. Payne.   |
 |   Comput. Phys. Commun. 147, pp.788-802 (2002).               |
 |                                                               |
 |  "Accurate kinetic energy evaluation in electronic structure  |
 |   calculations with localized functions on real space grids"  |
 |   C.-K. Skylaris, A. A. Mostofi, P. D. Haynes, C. J. Pickard, |
 |   M. C. Payne.                                                |
 |   Comput. Phys. Commun. 140, pp.315-322 (2001).               |
 |                                                               |
 |  "Accurate ionic forces and geometry optimization in linear-  |
 |   scaling density-functional theory with local orbitals"      |
 |   N. D. M. Hine, M. Robinson, P. D. Haynes, C.-K. Skylaris,   |
 |   M. C. Payne, and A. A. Mostofi.                             |
 |   Phys. Rev. B 83 195102 (2011).                              |
 |                                                               |
 +---------------------------------------------------------------+

Job started: 22-10-2024 09:45 (+0100)
 
Reading parameters from file "U_0_0.1.dat" ...
WARNING in get_rundat: hubbard_calculating_u is TRUE, so do_properties will be
overridden to TRUE.
... done

If your calculation crashes here, before "Checking processes and threads..."
is displayed, then your stack size is insufficient.
If so, use "ulimit -s unlimited" at runtime.
You can disable this check with "check_stack_size F".

Checking processes and threads...
   Running with 56 MPI processes.
   There are 8 MPI processes running on the same node as the root process.
   Each MPI process is using: 
               1 threads for simulation cell FFTs.
               1 threads for threaded FFT box operations.
              16 threads for loops over batched FFT box operations.
              16 threads in other parallel regions.
   MPI Interface: S1 (use mpi_f08) (-DMPI -DUSE_MPI_F08).
   MPI_ASYNC_PROTECTS_NONBLOCKING: Yes. MPI_SUBARRAYS_SUPPORTED: Yes.
   FFTW Interface: OMP-capable and MODERN. (-DUSE_MODERN_FFTW specified).
   GPU Interface: None.
   GPU FFT Backend: None.
... done

Basic input checks...... done

Reading geometry and species blocks from file "U_0_0.1.dat" ...... done


--------------------------------------------------------------------------------
---------------------------------- INPUT FILE ----------------------------------
--------------------------------------------------------------------------------

charge : 0                                                                      
cutoff_energy : 1000 eV                                                         
do_properties : T                                                               
edft : F                                                                        
edft_init_maxit : 5                                                             
elec_energy_tol : 2e-07 Ha                                                      
fine_grid_scale : 4                                                             
forces_output_detail : VERBOSE                                                  
hubbard_calculating_u : T                                                       
maxit_ngwf_cg : 100                                                             
ngwf_threshold_orig : 1e-06                                                     
output_detail : BRIEF                                                           
paw : T                                                                         
spin_polarized : T                                                              
ngwfs_spin_polarized : T                                                        
read_denskern : F                                                               
read_hamiltonian : F                                                            
read_tightbox_ngwfs : F                                                         
spin : 216                                                                      
task : SinglePoint                                                              
write_denskern : T                                                              
write_forces : T                                                                
write_hamiltonian : T                                                           
write_tightbox_ngwfs : T                                                        
xc_functional : PBE                                                             
%BLOCK LATTICE_CART                                                             
ang                                                                             
41.261892132    0.000000000     0.000000000                                     
-20.630946066   35.733846792     0.000000000                                    
0.0000000000    0.000000000    17.192455055                                     
%ENDBLOCK LATTICE_CART                                                          
%BLOCK POSITIONS_ABS                                                            
ang                                                                             
Cr       3.43849101       1.98521371       9.03176873                           
Cr       0.00000000       3.97042742       9.03176919                           
I        4.42260340      -0.00001318       7.48054615                           
I        1.22717790       2.12556082       7.48054615                           
I       -2.21129029       3.83009349       7.48054615                           
I        2.45437873      -0.00001140      10.58299027                           
I        2.21129177       3.83009250      10.58299027                           
I       -1.22717949       2.12556004      10.58299027                           
Cr       0.00000000       7.94085485       9.03176873                           
Cr      -3.43849101       9.92606855       9.03176919                           
I        0.98411239       5.95562795       7.48054615                           
I       -2.21131311       8.08120195       7.48054615                           
I       -5.64978130       9.78573462       7.48054615                           
I       -0.98411228       5.95562973      10.58299027                           
I       -1.22719924       9.78573363      10.58299027                           
I       -4.66567050       8.08120117      10.58299027                           
Cr      -3.43849101      13.89649598       9.03176873                           
Cr      -6.87698202      15.88170968       9.03176919                           
I       -2.45437862      11.91126909       7.48054615                           
I       -5.64980412      14.03684309       7.48054615                           
I       -9.08827231      15.74137575       7.48054615                           
I       -4.42260329      11.91127086      10.58299027                           
I       -4.66569025      15.74137476      10.58299027                           
I       -8.10416151      14.03684230      10.58299027                           
Cr      10.31547303       1.98521371       9.03176873                           
Cr       6.87698202       3.97042742       9.03176919                           
I       11.29958542      -0.00001318       7.48054615                           
I        8.10415992       2.12556082       7.48054615                           
I        4.66569173       3.83009349       7.48054615                           
I        9.33136075      -0.00001140      10.58299027                           
I        9.08827380       3.83009250      10.58299027                           
I        5.64980253       2.12556004      10.58299027                           
Cr       6.87698202       7.94085485       9.03176873                           
Cr       3.43849101       9.92606855       9.03176919                           
I        7.86109441       5.95562795       7.48054615                           
I        4.66566891       8.08120195       7.48054615                           
I        1.22720072       9.78573462       7.48054615                           
I        5.89286974       5.95562973      10.58299027                           
I        5.64978278       9.78573363      10.58299027                           
I        2.21131152       8.08120117      10.58299027                           
Cr       3.43849101      13.89649598       9.03176873                           
Cr       0.00000000      15.88170968       9.03176919                           
I        4.42260340      11.91126909       7.48054615                           
I        1.22717790      14.03684309       7.48054615                           
I       -2.21129029      15.74137575       7.48054615                           
I        2.45437873      11.91127086      10.58299027                           
I        2.21129177      15.74137476      10.58299027                           
I       -1.22717949      14.03684230      10.58299027                           
Cr      17.19245505       1.98521371       9.03176873                           
Cr      13.75396404       3.97042742       9.03176919                           
I       18.17656744      -0.00001318       7.48054615                           
I       14.98114195       2.12556082       7.48054615                           
I       11.54267375       3.83009349       7.48054615                           
I       16.20834277      -0.00001140      10.58299027                           
I       15.96525582       3.83009250      10.58299027                           
I       12.52678455       2.12556004      10.58299027                           
Cr      13.75396404       7.94085485       9.03176873                           
Cr      10.31547303       9.92606855       9.03176919                           
I       14.73807643       5.95562795       7.48054615                           
I       11.54265094       8.08120195       7.48054615                           
I        8.10418274       9.78573462       7.48054615                           
I       12.76985176       5.95562973      10.58299027                           
I       12.52676481       9.78573363      10.58299027                           
I        9.08829354       8.08120117      10.58299027                           
Cr      10.31547303      13.89649598       9.03176873                           
Cr       6.87698202      15.88170968       9.03176919                           
I       11.29958542      11.91126909       7.48054615                           
I        8.10415992      14.03684309       7.48054615                           
I        4.66569173      15.74137575       7.48054615                           
I        9.33136075      11.91127086      10.58299027                           
I        9.08827380      15.74137476      10.58299027                           
I        5.64980253      14.03684230      10.58299027                           
Cr      -6.87698202      19.85213711       9.03176873                           
Cr     -10.31547303      21.83735082       9.03176919                           
I       -5.89286963      17.86691022       7.48054615                           
I       -9.08829513      19.99248422       7.48054615                           
I      -12.52676332      21.69701689       7.48054615                           
I       -7.86109430      17.86691200      10.58299027                           
I       -8.10418126      21.69701590      10.58299027                           
I      -11.54265252      19.99248344      10.58299027                           
Cr     -10.31547303      25.80777825       9.03176873                           
Cr     -13.75396404      27.79299195       9.03176919                           
I       -9.33136064      23.82255135       7.48054615                           
I      -12.52678614      25.94812535       7.48054615                           
I      -15.96525433      27.65265802       7.48054615                           
I      -11.29958531      23.82255313      10.58299027                           
I      -11.54267227      27.65265703      10.58299027                           
I      -14.98114353      25.94812457      10.58299027                           
Cr     -13.75396404      31.76341938       9.03176873                           
Cr     -17.19245505      33.74863308       9.03176919                           
I      -12.76985165      29.77819249       7.48054615                           
I      -15.96527715      31.90376649       7.48054615                           
I      -19.40374534      33.60829915       7.48054615                           
I      -14.73807632      29.77819426      10.58299027                           
I      -14.98116328      33.60829816      10.58299027                           
I      -18.41963454      31.90376570      10.58299027                           
Cr      -0.00000000      19.85213711       9.03176873                           
Cr      -3.43849101      21.83735082       9.03176919                           
I        0.98411239      17.86691022       7.48054615                           
I       -2.21131311      19.99248422       7.48054615                           
I       -5.64978130      21.69701689       7.48054615                           
I       -0.98411228      17.86691200      10.58299027                           
I       -1.22719923      21.69701590      10.58299027                           
I       -4.66567050      19.99248344      10.58299027                           
Cr      -3.43849101      25.80777825       9.03176873                           
Cr      -6.87698202      27.79299195       9.03176919                           
I       -2.45437862      23.82255135       7.48054615                           
I       -5.64980412      25.94812535       7.48054615                           
I       -9.08827231      27.65265802       7.48054615                           
I       -4.42260329      23.82255313      10.58299027                           
I       -4.66569025      27.65265703      10.58299027                           
I       -8.10416151      25.94812457      10.58299027                           
Cr      -6.87698202      31.76341938       9.03176873                           
Cr     -10.31547303      33.74863308       9.03176919                           
I       -5.89286963      29.77819249       7.48054615                           
I       -9.08829513      31.90376649       7.48054615                           
I      -12.52676332      33.60829915       7.48054615                           
I       -7.86109430      29.77819426      10.58299027                           
I       -8.10418126      33.60829816      10.58299027                           
I      -11.54265252      31.90376570      10.58299027                           
CrU       6.87698202      19.85213711       9.03176873                          
Cr       3.43849101      21.83735082       9.03176919                           
I        7.86109441      17.86691022       7.48054615                           
I        4.66566892      19.99248422       7.48054615                           
I        1.22720072      21.69701689       7.48054615                           
I        5.89286974      17.86691200      10.58299027                           
I        5.64978279      21.69701590      10.58299027                           
I        2.21131152      19.99248344      10.58299027                           
Cr       3.43849101      25.80777825       9.03176873                           
Cr      -0.00000000      27.79299195       9.03176919                           
I        4.42260340      23.82255135       7.48054615                           
I        1.22717791      25.94812535       7.48054615                           
I       -2.21129029      27.65265802       7.48054615                           
I        2.45437873      23.82255313      10.58299027                           
I        2.21129178      27.65265703      10.58299027                           
I       -1.22717949      25.94812457      10.58299027                           
Cr      -0.00000000      31.76341938       9.03176873                           
Cr      -3.43849101      33.74863308       9.03176919                           
I        0.98411239      29.77819249       7.48054615                           
I       -2.21131311      31.90376649       7.48054615                           
I       -5.64978130      33.60829915       7.48054615                           
I       -0.98411228      29.77819426      10.58299027                           
I       -1.22719923      33.60829816      10.58299027                           
I       -4.66567050      31.90376570      10.58299027                           
Cr      24.06943708       1.98521371       9.03176873                           
Cr      20.63094607       3.97042742       9.03176919                           
I       25.05354947      -0.00001318       7.48054615                           
I       21.85812397       2.12556082       7.48054615                           
I       18.41965578       3.83009349       7.48054615                           
I       23.08532480      -0.00001140      10.58299027                           
I       22.84223784       3.83009250      10.58299027                           
I       19.40376658       2.12556004      10.58299027                           
Cr      20.63094607       7.94085485       9.03176873                           
Cr      17.19245506       9.92606855       9.03176919                           
I       21.61505846       5.95562795       7.48054615                           
I       18.41963296       8.08120195       7.48054615                           
I       14.98116477       9.78573462       7.48054615                           
I       19.64683379       5.95562973      10.58299027                           
I       19.40374683       9.78573363      10.58299027                           
I       15.96527557       8.08120117      10.58299027                           
Cr      17.19245506      13.89649598       9.03176873                           
Cr      13.75396405      15.88170968       9.03176919                           
I       18.17656745      11.91126909       7.48054615                           
I       14.98114195      14.03684309       7.48054615                           
I       11.54267376      15.74137575       7.48054615                           
I       16.20834278      11.91127086      10.58299027                           
I       15.96525582      15.74137476      10.58299027                           
I       12.52678456      14.03684230      10.58299027                           
Cr      30.94641910       1.98521371       9.03176873                           
Cr      27.50792809       3.97042742       9.03176919                           
I       31.93053149      -0.00001318       7.48054615                           
I       28.73510599       2.12556082       7.48054615                           
I       25.29663780       3.83009349       7.48054615                           
I       29.96230682      -0.00001140      10.58299027                           
I       29.71921987       3.83009250      10.58299027                           
I       26.28074860       2.12556004      10.58299027                           
Cr      27.50792809       7.94085485       9.03176873                           
Cr      24.06943708       9.92606855       9.03176919                           
I       28.49204048       5.95562795       7.48054615                           
I       25.29661498       8.08120195       7.48054615                           
I       21.85814679       9.78573462       7.48054615                           
I       26.52381581       5.95562973      10.58299027                           
I       26.28072885       9.78573363      10.58299027                           
I       22.84225759       8.08120117      10.58299027                           
Cr      24.06943708      13.89649598       9.03176873                           
Cr      20.63094607      15.88170968       9.03176919                           
I       25.05354947      11.91126909       7.48054615                           
I       21.85812397      14.03684309       7.48054615                           
I       18.41965578      15.74137575       7.48054615                           
I       23.08532480      11.91127086      10.58299027                           
I       22.84223784      15.74137476      10.58299027                           
I       19.40376658      14.03684230      10.58299027                           
Cr      37.82340112       1.98521371       9.03176873                           
Cr      34.38491011       3.97042742       9.03176919                           
I       38.80751351      -0.00001318       7.48054615                           
I       35.61208802       2.12556082       7.48054615                           
I       32.17361982       3.83009349       7.48054615                           
I       36.83928884      -0.00001140      10.58299027                           
I       36.59620189       3.83009250      10.58299027                           
I       33.15773062       2.12556004      10.58299027                           
Cr      34.38491011       7.94085485       9.03176873                           
Cr      30.94641910       9.92606855       9.03176919                           
I       35.36902250       5.95562795       7.48054615                           
I       32.17359701       8.08120195       7.48054615                           
I       28.73512881       9.78573462       7.48054615                           
I       33.40079783       5.95562973      10.58299027                           
I       33.15771088       9.78573363      10.58299027                           
I       29.71923961       8.08120117      10.58299027                           
Cr      30.94641910      13.89649598       9.03176873                           
Cr      27.50792809      15.88170968       9.03176919                           
I       31.93053149      11.91126909       7.48054615                           
I       28.73510599      14.03684309       7.48054615                           
I       25.29663780      15.74137575       7.48054615                           
I       29.96230682      11.91127086      10.58299027                           
I       29.71921987      15.74137476      10.58299027                           
I       26.28074860      14.03684230      10.58299027                           
Cr      13.75396404      19.85213711       9.03176873                           
Cr      10.31547303      21.83735082       9.03176919                           
I       14.73807643      17.86691022       7.48054615                           
I       11.54265093      19.99248422       7.48054615                           
I        8.10418274      21.69701689       7.48054615                           
I       12.76985176      17.86691200      10.58299027                           
I       12.52676480      21.69701590      10.58299027                           
I        9.08829354      19.99248344      10.58299027                           
Cr      10.31547303      25.80777825       9.03176873                           
Cr       6.87698202      27.79299195       9.03176919                           
I       11.29958542      23.82255135       7.48054615                           
I        8.10415992      25.94812535       7.48054615                           
I        4.66569173      27.65265802       7.48054615                           
I        9.33136075      23.82255313      10.58299027                           
I        9.08827379      27.65265703      10.58299027                           
I        5.64980253      25.94812457      10.58299027                           
Cr       6.87698202      31.76341938       9.03176873                           
Cr       3.43849101      33.74863308       9.03176919                           
I        7.86109441      29.77819249       7.48054615                           
I        4.66566891      31.90376649       7.48054615                           
I        1.22720072      33.60829915       7.48054615                           
I        5.89286974      29.77819426      10.58299027                           
I        5.64978278      33.60829816      10.58299027                           
I        2.21131152      31.90376570      10.58299027                           
Cr      20.63094606      19.85213711       9.03176873                           
Cr      17.19245505      21.83735082       9.03176919                           
I       21.61505845      17.86691022       7.48054615                           
I       18.41963295      19.99248422       7.48054615                           
I       14.98116476      21.69701689       7.48054615                           
I       19.64683378      17.86691200      10.58299027                           
I       19.40374683      21.69701590      10.58299027                           
I       15.96527556      19.99248344      10.58299027                           
Cr      17.19245505      25.80777825       9.03176873                           
Cr      13.75396404      27.79299195       9.03176919                           
I       18.17656744      23.82255135       7.48054615                           
I       14.98114194      25.94812535       7.48054615                           
I       11.54267375      27.65265802       7.48054615                           
I       16.20834277      23.82255313      10.58299027                           
I       15.96525581      27.65265703      10.58299027                           
I       12.52678455      25.94812457      10.58299027                           
Cr      13.75396404      31.76341938       9.03176873                           
Cr      10.31547303      33.74863308       9.03176919                           
I       14.73807643      29.77819249       7.48054615                           
I       11.54265093      31.90376649       7.48054615                           
I        8.10418274      33.60829915       7.48054615                           
I       12.76985176      29.77819426      10.58299027                           
I       12.52676480      33.60829816      10.58299027                           
I        9.08829354      31.90376570      10.58299027                           
Cr      27.50792808      19.85213711       9.03176873                           
Cr      24.06943707      21.83735082       9.03176919                           
I       28.49204047      17.86691022       7.48054615                           
I       25.29661498      19.99248422       7.48054615                           
I       21.85814678      21.69701689       7.48054615                           
I       26.52381580      17.86691200      10.58299027                           
I       26.28072885      21.69701590      10.58299027                           
I       22.84225758      19.99248344      10.58299027                           
Cr      24.06943707      25.80777825       9.03176873                           
Cr      20.63094606      27.79299195       9.03176919                           
I       25.05354946      23.82255135       7.48054615                           
I       21.85812397      25.94812535       7.48054615                           
I       18.41965577      27.65265802       7.48054615                           
I       23.08532479      23.82255313      10.58299027                           
I       22.84223784      27.65265703      10.58299027                           
I       19.40376657      25.94812457      10.58299027                           
Cr      20.63094606      31.76341938       9.03176873                           
Cr      17.19245505      33.74863308       9.03176919                           
I       21.61505845      29.77819249       7.48054615                           
I       18.41963295      31.90376649       7.48054615                           
I       14.98116476      33.60829915       7.48054615                           
I       19.64683378      29.77819426      10.58299027                           
I       19.40374683      33.60829816      10.58299027                           
I       15.96527556      31.90376570      10.58299027                           
%ENDBLOCK POSITIONS_ABS                                                         
%BLOCK SPECIES                                                                  
Cr Cr 24 -1 15                                                                  
I   I  53 -1 15                                                                 
CrU Cr 24 -1 15                                                                 
%ENDBLOCK SPECIES                                                               
%BLOCK SPECIES_ATOMIC_SET                                                       
Cr  "SOLVE INIT SPIN=3"                                                         
I   "SOLVE"                                                                     
CrU "SOLVE INIT SPIN=3"                                                         
%ENDBLOCK SPECIES_ATOMIC_SET                                                    
%BLOCK HUBBARD                                                                  
CrU 2 0.0 0.0 -10.0 0.00 0.10                                                   
%ENDBLOCK HUBBARD                                                               
%BLOCK SPECIES_LDOS_GROUPS                                                      
Cr                                                                              
I                                                                               
CrU                                                                             
%ENDBLOCK SPECIES_LDOS_GROUPS                                                   
%BLOCK SPECIES_POT                                                              
Cr  "/work/e89/e89/phsmea/U_det/Cr.PBE-paw.abinit"                              
I   "/work/e89/e89/phsmea/U_det/I.PBE-paw.abinit"                               
CrU "/work/e89/e89/phsmea/U_det/Cr.PBE-paw.abinit"                              
%ENDBLOCK SPECIES_POT                                                           

--------------------------------------------------------------------------------
-------------------------------- END INPUT FILE --------------------------------
--------------------------------------------------------------------------------


 
 ESDF WARNING(1): "charge" (esdf_physical) has no units. Assume "e".
<<<<<<<<<<<<<<<<<<<<<<<<<<<<<<<<< Full system >>>>>>>>>>>>>>>>>>>>>>>>>>>>>>>>>>
<<<<<<<<<<<<<<<<<<<<<<<<<<< PAW Dataset information >>>>>>>>>>>>>>>>>>>>>>>>>>>
File: /work/e89/e89/phsmea/U_det/Cr.PBE-paw.abinit; rc = 2.11 bohr; shape type =  2; rshape = 1.80 bohr;
  Atomic number: 24;  ionic charge: 14.000000
    Partial Wave 1: l = 0
    Partial Wave 2: l = 0
    Partial Wave 3: l = 1
    Partial Wave 4: l = 1
    Partial Wave 5: l = 2
    Partial Wave 6: l = 2
  Core charge supplied for Nonlinear Core Corrections
File: /work/e89/e89/phsmea/U_det/I.PBE-paw.abinit; rc = 2.30 bohr; shape type =  2; rshape = 2.11 bohr;
  Atomic number: 53;  ionic charge:  7.000000
    Partial Wave 1: l = 0
    Partial Wave 2: l = 0
    Partial Wave 3: l = 1
    Partial Wave 4: l = 1
  Core charge supplied for Nonlinear Core Corrections
<<<<<<<<<<<<<<<<<<<<<<<<<<<<<<<<<<<<<<< >>>>>>>>>>>>>>>>>>>>>>>>>>>>>>>>>>>>>>>

-------------------------- Atom counting information ---------------------------
Symbol    Natoms    Nngwfs    Nprojs
  Cr        72       936      1296
  I        216       864      1728
.......   ......    ......    ......
Totals:    288      1800      3024
--------------------------------------------------------------------------------

=============================== PSINC grid sizes ===============================
                      Simulation cell:  175 x 175 x  75
                              FFT-box:  175 x 175 x  75
                                  PPD:    5 x   5 x   1
================================================================================

Atom SCF Calculation for Cr : Z (AE atom) =  24 : Z (PS atom) =  14
Config String: 3s2.0 3p6.0 3d5.0 4s1.0 4p0.0 INIT SPIN=3
Orbitals (num,occ):  5     2.00 6.00 5.00 1.00 0.00
Orbitals   (num,l):  5        0    1    2    0    1
Atom SCF converged after  64 iterations to a total energy of    -87.07044631
Adjusting orbital occupancies:
Orbitals (num,spin,occ):  5  1     1.00 3.00 3.50 1.00 0.00
Orbitals   (num,spin,l):  5  1        0    1    2    0    1
Orbitals (num,spin,occ):  5  2     1.00 3.00 1.00 0.50 0.00
Orbitals   (num,spin,l):  5  2        0    1    2    0    1

Atom SCF Calculation for I  : Z (AE atom) =  53 : Z (PS atom) =   7
Config String: 5s2.0 5p5.0
Orbitals (num,occ):  2     2.00 5.00
Orbitals   (num,l):  2        0    1
Atom SCF converged after  28 iterations to a total energy of    -11.61352964

Atom SCF Calculation for Cr : Z (AE atom) =  24 : Z (PS atom) =  14
Config String: 3s2.0 3p6.0 3d5.0 4s1.0 4p0.0 INIT SPIN=3
Orbitals (num,occ):  5     2.00 6.00 5.00 1.00 0.00
Orbitals   (num,l):  5        0    1    2    0    1
Atom SCF converged after  64 iterations to a total energy of    -87.07044631
Adjusting orbital occupancies:
Orbitals (num,spin,occ):  5  1     1.00 3.00 3.50 1.00 0.00
Orbitals   (num,spin,l):  5  1        0    1    2    0    1
Orbitals (num,spin,occ):  5  2     1.00 3.00 1.00 0.50 0.00
Orbitals   (num,spin,l):  5  2        0    1    2    0    1

Atom SCF Calculation for Cr : Z (AE atom) =  24 : Z (PS atom) =  14
Config String: 3s2.0 3p6.0 3d5.0 4s1.0 4p0.0 INIT SPIN=3
Orbitals (num,occ):  5     2.00 6.00 5.00 1.00 0.00
Orbitals   (num,l):  5        0    1    2    0    1
Atom SCF converged after  64 iterations to a total energy of    -87.07044631

Atom SCF Calculation for I  : Z (AE atom) =  53 : Z (PS atom) =   7
Config String: 5s2.0 5p5.0
Orbitals (num,occ):  2     2.00 5.00
Orbitals   (num,l):  2        0    1
Atom SCF converged after  28 iterations to a total energy of    -11.61352964

Atom SCF Calculation for Cr : Z (AE atom) =  24 : Z (PS atom) =  14
Config String: 3s2.0 3p6.0 3d5.0 4s1.0 4p0.0 INIT SPIN=3
Orbitals (num,occ):  5     2.00 6.00 5.00 1.00 0.00
Orbitals   (num,l):  5        0    1    2    0    1
Atom SCF converged after  64 iterations to a total energy of    -87.07044631
Calculating Ewald energy ...             6126.916246 Hartree

============================= Charge Augmentation ==============================
                           Aug box size:   49 x  49 x  45
================================================================================

================================= Core Density =================================
               Core den box size:  125 x 125 x 117
================================================================================
Density kernel initialisation

################################################################################
###################### NGWF self-consistent optimisation #######################
################################################################################
|ITER|    RMS GRADIENT   |     TOTAL ENERGY    |   step   |     Epredicted      
   0     0.00009869642869  -8812.32799088529646   2.349184  -8816.23728946485244        
   1     0.00006752567729  -8816.45710131360647   1.629002  -8817.79596740800844        
   2     0.00004161049251  -8817.83188440348204   1.808669  -8818.38105883078242        
   3     0.00002884270438  -8818.40525085573609   1.957608  -8818.69570977219337        
   4     0.00002027207075  -8818.69696177188962   1.137822  -8818.77684386110741        
   5     0.00001353623413  -8818.77698888705345   1.990341  -8818.83906993749224        
   6     0.00001150086080  -8818.83797494249484   1.751546  -8818.87670486488787        
   7     0.00000898047402  -8818.87526596588032   1.586513  -8818.89629640336534        
   8     0.00000729181917  -8818.89530062811355   0.928938  -8818.90373858656858        
   9     0.00000475914259  -8818.90373481614188   2.167615  -8818.91210296250392        
  10     0.00000434056928  -8818.91192090311051   1.682814  -8818.91729092812602        
  11     0.00000322123310  -8818.91685118810528   2.399519  -8818.92086362349801        
  12     0.00000419585465  -8818.91962712186250   0.914615  -8818.92237791610569        
  13     0.00000220155130  -8818.92235794219232   2.351394  -8818.92428656305492        
  14     0.00000234220093  -8818.92404312019607   2.072421  -8818.92572938809462        
  15     0.00000225327441  -8818.92500181377181   1.619541  -8818.92587760948845        
  16     0.00000232909435  -8818.92517115463124   1.148129  -8818.92623516009371        
  17     0.00000181074752  -8818.92622528688844   1.850232  -8818.92725537772640        
  18     0.00000145655765  -8818.92716164474768   1.602309  -8818.92772527747366        
  19     0.00000098562313  -8818.92757206383067   3.006259  -8818.92799366293730        
  20     0.00000177359445  -8818.92759500214015   0.731952  -8818.92798834385940        
  21     0.00000059369775  -8818.92797538624836   2.012306  -8818.92809218002913        
  22     0.00000068022903  -8818.92805457939721   3.353948  -8818.92823786321424        
  23     0.00000124575465  -8818.92767641197679   0.977753  -8818.92793563462874        
  24     0.00000081633889  -8818.92792018600449   2.155992  -8818.92815476781470        
  25     0.00000073382920  -8818.92811637650630   2.006678  -8818.92831294350799        
  26     0.00000078390622  -8818.92815612898266   2.116837  -8818.92827147205207        
  27     0.00000093130943  -8818.92798207847773   1.300763  -8818.92817481550082        
  28     0.00000067293065  -8818.92815699116545   1.319655  -8818.92824708539229        
  29     0.00000042111832  -8818.92823644322198   1.619096  -8818.92828006126911        
  30     0.00000042111339  -8818.92823999158281   0.150000      0.00000000000000        

================================================================================
           ---------------- ENERGY COMPONENTS (Eh) ----------------
           | Kinetic                    :     1819.30336635289086 |
           | Core Hartree               :   -28372.37755711737190 |
           | CoreHart (non-coul chg cor):        0.00000000000000
           | Hartree                    :    13503.84392459793890 |
           | Exchange-correlation       :    -1248.28592240746229 |
           | Hubbard DFT+U correction   :       -0.00540978874829 |
           | Ewald                      :     6126.91624599049464 |
           | Dij0                       :     -555.70508278628085 |
           | Dijhartree                 :      248.95226720448932 |
           | Exc [AE core]              :   -42415.09644534025570 |
           | Exc DC [AE core]           :    -1638.56661538919911 |
           | Exc [PS core]              :    -1032.28643413463419 |
           | Exc DC [PS core]           :     -982.35583465661637 |
           | Exc [Core]                 :   -41041.23993575423080 |
           | Total [Sphere]             :     -648.32289103318180 |
           | Total                      :    -8818.92824340544030 |
           --------------------------------------------------------
           Integrated compensation chrg.:      189.13462759386118
           Integrated density           :     2519.99993595238993
           Integrated spin density      :      215.99995947430187
           Integrated |spin density|    :      164.26553365661903
================================================================================

  31     0.00000038212374  -8818.92824340545303  <-- CG                                 

################################################################################
DFT+U information on atom      1 of Hubbard species CrU 
################################################################################
Occupancy matrix of Hubbard site      1 and spin      1 is 
  m_l =   -2          -1           0           1           2
  0.89201761  0.14685543  0.00000118  0.00000109  0.00000332
  0.14689192  0.77695144 -0.00000188  0.00000300 -0.00000277
 -0.00000020  0.00000015  0.99129004  0.00000041  0.00000025
  0.00000227  0.00000294 -0.00000071  0.77694876 -0.14688897
  0.00000326 -0.00000155 -0.00000051 -0.14685386  0.89202108
WARNING: DFT+U ENERGY of Hubbard site      1 and spin      1 is negative.
################################################################################
Occupancy matrix of Hubbard site      1 and spin      2 is 
  m_l =   -2          -1           0           1           2
  0.25543798 -0.13159761 -0.00000426  0.00000169  0.00000298
 -0.13162920  0.35930857  0.00000059  0.00000094 -0.00000029
 -0.00000288 -0.00000124  0.15557567 -0.00000069  0.00000165
  0.00000065  0.00000099  0.00000031  0.35930772  0.13163013
  0.00000303 -0.00000138  0.00000242  0.13159974  0.25544214
################################################################################
Total occupancy of Hubbard site      1 is         5.71430101 e
Local magnetic moment of Hubbard site      1 is   2.94415685 mu_B
DFT+U energy of Hubbard site      1 is           -0.00540979 Ha
################################################################################

##### For calculating the Hubbard U and Hund J #################################
DFT+U information on Hubbard site      1 of species CrU  and spin      1
The average Hxc+local potential is            -19.02633713 eV.
The average Hubbard potential is               -0.05000000 eV.
The average non-local PAW contribution is     -10.95830587 eV.
################################################################################
DFT+U information on Hubbard site      1 of species CrU  and spin      2
The average Hxc+local potential is            -17.94212359 eV.
The average Hubbard potential is                0.05000000 eV.
The average non-local PAW contribution is      -9.49292943 eV.
################################################################################

======================== Writing density and potential =========================
Writing "U_0_0.1_ps_density.cube" ... done
Writing "U_0_0.1_ps_spindensity.cube" ... done
Writing "U_0_0.1_ae_density.cube" ... done
Writing "U_0_0.1_ae_spindensity.cube" ... done
Writing "U_0_0.1_potential.cube" ... done
Writing "U_0_0.1_electrostatic_potential.cube" ... done
================================================================================

    Mulliken Atomic Populations
    ---------------------------
Species  Ion    Total   Charge (e)    Spin (hbar)
=================================================
  Cr     1      13.826      0.174      1.68
  Cr     2      13.827      0.173      1.68
  I      3       7.058     -0.058     -0.06
  I      4       7.058     -0.058     -0.06
  I      5       7.058     -0.058     -0.06
  I      6       7.058     -0.058     -0.06
  I      7       7.058     -0.058     -0.06
  I      8       7.058     -0.058     -0.06
  Cr     9      13.826      0.174      1.68
  Cr    10      13.827      0.173      1.68
  I     11       7.058     -0.058     -0.06
  I     12       7.058     -0.058     -0.06
  I     13       7.058     -0.058     -0.06
  I     14       7.058     -0.058     -0.06
  I     15       7.058     -0.058     -0.06
  I     16       7.058     -0.058     -0.06
  Cr    17      13.827      0.173      1.68
  Cr    18      13.827      0.173      1.68
  I     19       7.058     -0.058     -0.06
  I     20       7.058     -0.058     -0.06
  I     21       7.058     -0.058     -0.06
  I     22       7.058     -0.058     -0.06
  I     23       7.058     -0.058     -0.06
  I     24       7.058     -0.058     -0.06
  Cr    25      13.826      0.174      1.68
  Cr    26      13.827      0.173      1.68
  I     27       7.058     -0.058     -0.06
  I     28       7.058     -0.058     -0.06
  I     29       7.058     -0.058     -0.06
  I     30       7.058     -0.058     -0.06
  I     31       7.058     -0.058     -0.06
  I     32       7.058     -0.058     -0.06
  Cr    33      13.826      0.174      1.68
  Cr    34      13.827      0.173      1.68
  I     35       7.058     -0.058     -0.06
  I     36       7.058     -0.058     -0.06
  I     37       7.058     -0.058     -0.06
  I     38       7.058     -0.058     -0.06
  I     39       7.058     -0.058     -0.06
  I     40       7.058     -0.058     -0.06
  Cr    41      13.826      0.174      1.68
  Cr    42      13.827      0.173      1.68
  I     43       7.058     -0.058     -0.06
  I     44       7.058     -0.058     -0.06
  I     45       7.058     -0.058     -0.06
  I     46       7.058     -0.058     -0.06
  I     47       7.058     -0.058     -0.06
  I     48       7.058     -0.058     -0.06
  Cr    49      13.827      0.173      1.68
  Cr    50      13.827      0.173      1.68
  I     51       7.058     -0.058     -0.06
  I     52       7.058     -0.058     -0.06
  I     53       7.058     -0.058     -0.06
  I     54       7.058     -0.058     -0.06
  I     55       7.058     -0.058     -0.06
  I     56       7.058     -0.058     -0.06
  Cr    57      13.826      0.174      1.68
  Cr    58      13.826      0.174      1.68
  I     59       7.058     -0.058     -0.06
  I     60       7.058     -0.058     -0.06
  I     61       7.058     -0.058     -0.06
  I     62       7.058     -0.058     -0.06
  I     63       7.058     -0.058     -0.06
  I     64       7.058     -0.058     -0.06
  Cr    65      13.825      0.175      1.68
  Cr    66      13.824      0.176      1.68
  I     67       7.058     -0.058     -0.06
  I     68       7.058     -0.058     -0.06
  I     69       7.058     -0.058     -0.06
  I     70       7.058     -0.058     -0.06
  I     71       7.058     -0.058     -0.06
  I     72       7.058     -0.058     -0.06
  Cr    73      13.826      0.174      1.68
  Cr    74      13.827      0.173      1.68
  I     75       7.058     -0.058     -0.06
  I     76       7.058     -0.058     -0.06
  I     77       7.058     -0.058     -0.06
  I     78       7.058     -0.058     -0.06
  I     79       7.058     -0.058     -0.06
  I     80       7.058     -0.058     -0.06
  Cr    81      13.826      0.174      1.68
  Cr    82      13.827      0.173      1.68
  I     83       7.058     -0.058     -0.06
  I     84       7.058     -0.058     -0.06
  I     85       7.058     -0.058     -0.06
  I     86       7.058     -0.058     -0.06
  I     87       7.058     -0.058     -0.06
  I     88       7.058     -0.058     -0.06
  Cr    89      13.826      0.174      1.68
  Cr    90      13.827      0.173      1.68
  I     91       7.058     -0.058     -0.06
  I     92       7.058     -0.058     -0.06
  I     93       7.058     -0.058     -0.06
  I     94       7.058     -0.058     -0.06
  I     95       7.058     -0.058     -0.06
  I     96       7.058     -0.058     -0.06
  Cr    97      13.825      0.175      1.68
  Cr    98      13.826      0.174      1.68
  I     99       7.058     -0.058     -0.06
  I    100       7.058     -0.058     -0.06
  I    101       7.058     -0.058     -0.06
  I    102       7.058     -0.058     -0.06
  I    103       7.058     -0.058     -0.06
  I    104       7.058     -0.058     -0.06
  Cr   105      13.826      0.174      1.68
  Cr   106      13.826      0.174      1.68
  I    107       7.058     -0.058     -0.06
  I    108       7.058     -0.058     -0.06
  I    109       7.058     -0.058     -0.06
  I    110       7.058     -0.058     -0.06
  I    111       7.058     -0.058     -0.06
  I    112       7.058     -0.058     -0.06
  Cr   113      13.827      0.173      1.68
  Cr   114      13.827      0.173      1.68
  I    115       7.058     -0.058     -0.06
  I    116       7.058     -0.058     -0.06
  I    117       7.058     -0.058     -0.06
  I    118       7.058     -0.058     -0.06
  I    119       7.058     -0.058     -0.06
  I    120       7.058     -0.058     -0.06
  Cr   121      13.824      0.176      1.70
  Cr   122      13.824      0.176      1.68
  I    123       7.059     -0.059     -0.06
  I    124       7.059     -0.059     -0.06
  I    125       7.058     -0.058     -0.06
  I    126       7.059     -0.059     -0.06
  I    127       7.059     -0.059     -0.06
  I    128       7.058     -0.058     -0.06
  Cr   129      13.825      0.175      1.68
  Cr   130      13.826      0.174      1.68
  I    131       7.058     -0.058     -0.06
  I    132       7.058     -0.058     -0.06
  I    133       7.058     -0.058     -0.06
  I    134       7.058     -0.058     -0.06
  I    135       7.058     -0.058     -0.06
  I    136       7.058     -0.058     -0.06
  Cr   137      13.826      0.174      1.68
  Cr   138      13.827      0.173      1.68
  I    139       7.058     -0.058     -0.06
  I    140       7.058     -0.058     -0.06
  I    141       7.058     -0.058     -0.06
  I    142       7.058     -0.058     -0.06
  I    143       7.058     -0.058     -0.06
  I    144       7.058     -0.058     -0.06
  Cr   145      13.827      0.173      1.68
  Cr   146      13.826      0.174      1.68
  I    147       7.058     -0.058     -0.06
  I    148       7.058     -0.058     -0.06
  I    149       7.058     -0.058     -0.06
  I    150       7.058     -0.058     -0.06
  I    151       7.058     -0.058     -0.06
  I    152       7.058     -0.058     -0.06
  Cr   153      13.826      0.174      1.68
  Cr   154      13.826      0.174      1.68
  I    155       7.058     -0.058     -0.06
  I    156       7.058     -0.058     -0.06
  I    157       7.058     -0.058     -0.06
  I    158       7.058     -0.058     -0.06
  I    159       7.058     -0.058     -0.06
  I    160       7.058     -0.058     -0.06
  Cr   161      13.826      0.174      1.68
  Cr   162      13.826      0.174      1.68
  I    163       7.058     -0.058     -0.06
  I    164       7.058     -0.058     -0.06
  I    165       7.058     -0.058     -0.06
  I    166       7.058     -0.058     -0.06
  I    167       7.058     -0.058     -0.06
  I    168       7.058     -0.058     -0.06
  Cr   169      13.826      0.174      1.68
  Cr   170      13.826      0.174      1.68
  I    171       7.058     -0.058     -0.06
  I    172       7.058     -0.058     -0.06
  I    173       7.058     -0.058     -0.06
  I    174       7.058     -0.058     -0.06
  I    175       7.058     -0.058     -0.06
  I    176       7.058     -0.058     -0.06
  Cr   177      13.826      0.174      1.68
  Cr   178      13.826      0.174      1.68
  I    179       7.058     -0.058     -0.06
  I    180       7.058     -0.058     -0.06
  I    181       7.058     -0.058     -0.06
  I    182       7.058     -0.058     -0.06
  I    183       7.058     -0.058     -0.06
  I    184       7.058     -0.058     -0.06
  Cr   185      13.826      0.174      1.68
  Cr   186      13.826      0.174      1.68
  I    187       7.058     -0.058     -0.06
  I    188       7.058     -0.058     -0.06
  I    189       7.058     -0.058     -0.06
  I    190       7.058     -0.058     -0.06
  I    191       7.058     -0.058     -0.06
  I    192       7.058     -0.058     -0.06
  Cr   193      13.826      0.174      1.68
  Cr   194      13.827      0.173      1.68
  I    195       7.058     -0.058     -0.06
  I    196       7.058     -0.058     -0.06
  I    197       7.058     -0.058     -0.06
  I    198       7.058     -0.058     -0.06
  I    199       7.058     -0.058     -0.06
  I    200       7.058     -0.058     -0.06
  Cr   201      13.826      0.174      1.68
  Cr   202      13.827      0.173      1.68
  I    203       7.058     -0.058     -0.06
  I    204       7.058     -0.058     -0.06
  I    205       7.058     -0.058     -0.06
  I    206       7.058     -0.058     -0.06
  I    207       7.058     -0.058     -0.06
  I    208       7.058     -0.058     -0.06
  Cr   209      13.827      0.173      1.68
  Cr   210      13.826      0.174      1.68
  I    211       7.058     -0.058     -0.06
  I    212       7.058     -0.058     -0.06
  I    213       7.058     -0.058     -0.06
  I    214       7.058     -0.058     -0.06
  I    215       7.058     -0.058     -0.06
  I    216       7.058     -0.058     -0.06
  Cr   217      13.826      0.174      1.68
  Cr   218      13.824      0.176      1.68
  I    219       7.058     -0.058     -0.06
  I    220       7.058     -0.058     -0.06
  I    221       7.059     -0.059     -0.06
  I    222       7.058     -0.058     -0.06
  I    223       7.058     -0.058     -0.06
  I    224       7.059     -0.059     -0.06
  Cr   225      13.826      0.174      1.68
  Cr   226      13.827      0.173      1.68
  I    227       7.058     -0.058     -0.06
  I    228       7.058     -0.058     -0.06
  I    229       7.058     -0.058     -0.06
  I    230       7.058     -0.058     -0.06
  I    231       7.058     -0.058     -0.06
  I    232       7.058     -0.058     -0.06
  Cr   233      13.827      0.173      1.68
  Cr   234      13.827      0.173      1.68
  I    235       7.058     -0.058     -0.06
  I    236       7.058     -0.058     -0.06
  I    237       7.058     -0.058     -0.06
  I    238       7.058     -0.058     -0.06
  I    239       7.058     -0.058     -0.06
  I    240       7.058     -0.058     -0.06
  Cr   241      13.827      0.173      1.68
  Cr   242      13.827      0.173      1.68
  I    243       7.058     -0.058     -0.06
  I    244       7.058     -0.058     -0.06
  I    245       7.058     -0.058     -0.06
  I    246       7.058     -0.058     -0.06
  I    247       7.058     -0.058     -0.06
  I    248       7.058     -0.058     -0.06
  Cr   249      13.826      0.174      1.68
  Cr   250      13.827      0.173      1.68
  I    251       7.058     -0.058     -0.06
  I    252       7.058     -0.058     -0.06
  I    253       7.058     -0.058     -0.06
  I    254       7.058     -0.058     -0.06
  I    255       7.058     -0.058     -0.06
  I    256       7.058     -0.058     -0.06
  Cr   257      13.826      0.174      1.68
  Cr   258      13.827      0.173      1.68
  I    259       7.058     -0.058     -0.06
  I    260       7.058     -0.058     -0.06
  I    261       7.058     -0.058     -0.06
  I    262       7.058     -0.058     -0.06
  I    263       7.058     -0.058     -0.06
  I    264       7.058     -0.058     -0.06
  Cr   265      13.827      0.173      1.68
  Cr   266      13.826      0.174      1.68
  I    267       7.058     -0.058     -0.06
  I    268       7.058     -0.058     -0.06
  I    269       7.058     -0.058     -0.06
  I    270       7.058     -0.058     -0.06
  I    271       7.058     -0.058     -0.06
  I    272       7.058     -0.058     -0.06
  Cr   273      13.826      0.174      1.68
  Cr   274      13.827      0.173      1.68
  I    275       7.058     -0.058     -0.06
  I    276       7.058     -0.058     -0.06
  I    277       7.058     -0.058     -0.06
  I    278       7.058     -0.058     -0.06
  I    279       7.058     -0.058     -0.06
  I    280       7.058     -0.058     -0.06
  Cr   281      13.826      0.174      1.68
  Cr   282      13.827      0.173      1.68
  I    283       7.058     -0.058     -0.06
  I    284       7.058     -0.058     -0.06
  I    285       7.058     -0.058     -0.06
  I    286       7.058     -0.058     -0.06
  I    287       7.058     -0.058     -0.06
  I    288       7.058     -0.058     -0.06
=================================================

        Bond         Population      Spin       Length (bohr)
=============================================================
 Cr  186 -- I   191        0.31     -0.03      4.86412
 Cr  178 -- I   183        0.31     -0.03      4.86412
 Cr  154 -- I   159        0.31     -0.03      4.86412
 Cr  162 -- I   167        0.31     -0.03      4.86412
 Cr  146 -- I   151        0.31     -0.03      4.86412
 Cr   82 -- I    87        0.31     -0.03      4.86412
 Cr  250 -- I   255        0.31     -0.03      4.86412
 Cr  226 -- I   231        0.31     -0.03      4.86412
 Cr   74 -- I    79        0.31     -0.03      4.86412
 Cr   10 -- I    15        0.31     -0.03      4.86412
 Cr  106 -- I   111        0.31     -0.03      4.86412
 Cr   34 -- I    39        0.31     -0.03      4.86412
 Cr   42 -- I    47        0.31     -0.03      4.86412
 Cr   18 -- I    23        0.31     -0.03      4.86412
 Cr  114 -- I   119        0.31     -0.03      4.86412
 Cr    2 -- I     7        0.31     -0.03      4.86412
 Cr   90 -- I    95        0.31     -0.03      4.86412
 Cr  218 -- I   223        0.31     -0.03      4.86412
 Cr  258 -- I   263        0.31     -0.03      4.86412
 Cr  234 -- I   239        0.31     -0.03      4.86412
 Cr  274 -- I   279        0.31     -0.03      4.86412
 Cr  130 -- I   135        0.31     -0.03      4.86412
 Cr   98 -- I   103        0.31     -0.03      4.86412
 Cr   66 -- I    71        0.31     -0.03      4.86412
 Cr  242 -- I   247        0.31     -0.03      4.86412
 Cr   50 -- I    55        0.31     -0.03      4.86412
 Cr   26 -- I    31        0.31     -0.03      4.86412
 Cr   58 -- I    63        0.31     -0.03      4.86412
 Cr  210 -- I   215        0.31     -0.03      4.86412
 Cr  170 -- I   175        0.31     -0.03      4.86412
 Cr  122 -- I   127        0.31     -0.03      4.86412
 Cr  266 -- I   271        0.31     -0.03      4.86412
 Cr  282 -- I   287        0.31     -0.03      4.86412
 Cr  138 -- I   143        0.31     -0.03      4.86412
 Cr  202 -- I   207        0.31     -0.03      4.86412
 Cr  194 -- I   199        0.31     -0.03      4.86412
 Cr  210 -- I   212        0.31     -0.03      4.86413
 Cr  138 -- I   140        0.31     -0.03      4.86413
 Cr   90 -- I    92        0.31     -0.03      4.86413
 Cr  258 -- I   260        0.31     -0.03      4.86413
 Cr  234 -- I   236        0.31     -0.03      4.86413
 Cr   42 -- I    44        0.31     -0.03      4.86413
 Cr   66 -- I    68        0.31     -0.03      4.86413
 Cr  114 -- I   116        0.31     -0.03      4.86413
 Cr   18 -- I    20        0.31     -0.03      4.86413
 Cr  162 -- I   164        0.31     -0.03      4.86413
 Cr  282 -- I   284        0.31     -0.03      4.86413
 Cr  186 -- I   188        0.31     -0.03      4.86413
 Cr  194 -- I   196        0.31     -0.03      4.86413
 Cr  202 -- I   204        0.31     -0.03      4.86413
 Cr   50 -- I    52        0.31     -0.03      4.86413
 Cr   58 -- I    60        0.31     -0.03      4.86413
 Cr  122 -- I   124        0.31     -0.03      4.86413
 Cr  266 -- I   268        0.31     -0.03      4.86413
 Cr  274 -- I   276        0.31     -0.03      4.86413
 Cr  130 -- I   132        0.31     -0.03      4.86413
 Cr  154 -- I   156        0.31     -0.03      4.86413
 Cr  170 -- I   172        0.31     -0.03      4.86413
 Cr   34 -- I    36        0.31     -0.03      4.86413
 Cr   10 -- I    12        0.31     -0.03      4.86413
 Cr  146 -- I   148        0.31     -0.03      4.86413
 Cr    2 -- I     4        0.31     -0.03      4.86413
 Cr   26 -- I    28        0.31     -0.03      4.86413
 Cr  242 -- I   244        0.31     -0.03      4.86413
 Cr  218 -- I   220        0.31     -0.03      4.86413
 Cr  178 -- I   180        0.31     -0.03      4.86413
 Cr   74 -- I    76        0.31     -0.03      4.86413
 Cr   98 -- I   100        0.31     -0.03      4.86413
 Cr  250 -- I   252        0.31     -0.03      4.86413
 Cr  226 -- I   228        0.31     -0.03      4.86413
 Cr  106 -- I   108        0.31     -0.03      4.86413
 Cr   82 -- I    84        0.31     -0.03      4.86413
 Cr  153 -- I   159        0.31     -0.03      4.86414
 Cr  177 -- I   183        0.31     -0.03      4.86414
 Cr   41 -- I    47        0.31     -0.03      4.86414
 Cr  161 -- I   167        0.31     -0.03      4.86414
 Cr    9 -- I    15        0.31     -0.03      4.86414
 Cr  185 -- I   191        0.31     -0.03      4.86414
 Cr   33 -- I    39        0.31     -0.03      4.86414
 Cr   17 -- I    23        0.31     -0.03      4.86414
 Cr  113 -- I   119        0.31     -0.03      4.86414
 Cr   89 -- I    95        0.31     -0.03      4.86414
 Cr  233 -- I   239        0.31     -0.03      4.86414
 Cr  257 -- I   263        0.31     -0.03      4.86414
 Cr  249 -- I   255        0.31     -0.03      4.86414
 Cr  225 -- I   231        0.31     -0.03      4.86414
 Cr   81 -- I    87        0.31     -0.03      4.86414
 Cr  105 -- I   111        0.31     -0.03      4.86414
 Cr  209 -- I   215        0.31     -0.03      4.86414
 Cr   65 -- I    71        0.31     -0.03      4.86414
 Cr   57 -- I    63        0.31     -0.03      4.86414
 Cr  137 -- I   143        0.31     -0.03      4.86414
 Cr  201 -- I   207        0.31     -0.03      4.86414
 Cr  281 -- I   287        0.31     -0.03      4.86414
 Cr  129 -- I   135        0.31     -0.03      4.86414
 Cr  273 -- I   279        0.31     -0.03      4.86414
 Cr   73 -- I    79        0.31     -0.03      4.86414
 Cr  217 -- I   223        0.31     -0.03      4.86414
 Cr  145 -- I   151        0.31     -0.03      4.86414
 Cr    1 -- I     7        0.31     -0.03      4.86414
 Cr  121 -- I   127        0.31     -0.03      4.86414
 Cr  241 -- I   247        0.31     -0.03      4.86414
 Cr   97 -- I   103        0.31     -0.03      4.86414
 Cr  265 -- I   271        0.31     -0.03      4.86414
 Cr   49 -- I    55        0.31     -0.03      4.86414
 Cr   25 -- I    31        0.31     -0.03      4.86414
 Cr  169 -- I   175        0.31     -0.03      4.86414
 Cr  193 -- I   199        0.31     -0.03      4.86414
 Cr  193 -- I   196        0.31     -0.03      4.86414
 Cr   49 -- I    52        0.31     -0.03      4.86414
 Cr  265 -- I   268        0.31     -0.03      4.86414
 Cr  121 -- I   124        0.31     -0.03      4.86414
 Cr  257 -- I   260        0.31     -0.03      4.86414
 Cr  169 -- I   172        0.31     -0.03      4.86414
 Cr  145 -- I   148        0.31     -0.03      4.86414
 Cr   65 -- I    68        0.31     -0.03      4.86414
 Cr  137 -- I   140        0.31     -0.03      4.86414
 Cr  185 -- I   188        0.31     -0.03      4.86414
 Cr  281 -- I   284        0.31     -0.03      4.86414
 Cr  209 -- I   212        0.31     -0.03      4.86414
 Cr  161 -- I   164        0.31     -0.03      4.86414
 Cr    1 -- I     4        0.31     -0.03      4.86414
 Cr   41 -- I    44        0.31     -0.03      4.86414
 Cr  113 -- I   116        0.31     -0.03      4.86414
 Cr  241 -- I   244        0.31     -0.03      4.86414
 Cr   25 -- I    28        0.31     -0.03      4.86414
 Cr   17 -- I    20        0.31     -0.03      4.86414
 Cr   89 -- I    92        0.31     -0.03      4.86414
 Cr  217 -- I   220        0.31     -0.03      4.86414
 Cr  233 -- I   236        0.31     -0.03      4.86414
 Cr   97 -- I   100        0.31     -0.03      4.86414
 Cr   73 -- I    76        0.31     -0.03      4.86414
 Cr  273 -- I   276        0.31     -0.03      4.86414
 Cr  201 -- I   204        0.31     -0.03      4.86414
 Cr  129 -- I   132        0.31     -0.03      4.86414
 Cr   57 -- I    60        0.31     -0.03      4.86414
 Cr   81 -- I    84        0.31     -0.03      4.86414
 Cr  105 -- I   108        0.31     -0.03      4.86414
 Cr  249 -- I   252        0.31     -0.03      4.86414
 Cr  225 -- I   228        0.31     -0.03      4.86414
 Cr  153 -- I   156        0.31     -0.03      4.86414
 Cr   33 -- I    36        0.31     -0.03      4.86414
 Cr  177 -- I   180        0.31     -0.03      4.86414
 Cr    9 -- I    12        0.31     -0.03      4.86414
 I    27 -- Cr  114        0.31     -0.03      5.11128
 I     3 -- Cr   90        0.31     -0.03      5.11128
 I    51 -- Cr  138        0.31     -0.03      5.11128
 Cr  266 -- I   275        0.31     -0.03      5.11128
 Cr  122 -- I   131        0.31     -0.03      5.11128
 Cr   74 -- I    83        0.31     -0.03      5.11128
 Cr   98 -- I   107        0.31     -0.03      5.11128
 Cr  242 -- I   251        0.31     -0.03      5.11128
 Cr  218 -- I   227        0.31     -0.03      5.11128
 Cr  146 -- I   155        0.31     -0.03      5.11128
 Cr  170 -- I   179        0.31     -0.03      5.11128
 Cr   50 -- I    59        0.31     -0.03      5.11128
 Cr    2 -- I    11        0.31     -0.03      5.11128
 Cr   26 -- I    35        0.31     -0.03      5.11128
 Cr  194 -- I   203        0.31     -0.03      5.11128
 I   171 -- Cr  258        0.31     -0.03      5.11128
 I   195 -- Cr  282        0.31     -0.03      5.11128
 I   147 -- Cr  234        0.31     -0.03      5.11128
 Cr  194 -- I   197        0.31     -0.03      5.11128
 Cr  210 -- I   213        0.31     -0.03      5.11128
 Cr  250 -- I   253        0.31     -0.03      5.11128
 Cr  242 -- I   245        0.31     -0.03      5.11128
 Cr   50 -- I    53        0.31     -0.03      5.11128
 Cr  234 -- I   237        0.31     -0.03      5.11128
 Cr  226 -- I   229        0.31     -0.03      5.11128
 Cr  218 -- I   221        0.31     -0.03      5.11128
 Cr   26 -- I    29        0.31     -0.03      5.11128
 Cr  154 -- I   157        0.31     -0.03      5.11128
 Cr  146 -- I   149        0.31     -0.03      5.11128
 Cr  106 -- I   109        0.31     -0.03      5.11128
 Cr  282 -- I   285        0.31     -0.03      5.11128
 Cr    2 -- I     5        0.31     -0.03      5.11128
 Cr  122 -- I   125        0.31     -0.03      5.11128
 Cr  130 -- I   133        0.31     -0.03      5.11128
 Cr   10 -- I    13        0.31     -0.03      5.11128
 Cr   58 -- I    61        0.31     -0.03      5.11128
 Cr   42 -- I    45        0.31     -0.03      5.11128
 Cr   82 -- I    85        0.31     -0.03      5.11128
 Cr   34 -- I    37        0.31     -0.03      5.11128
 Cr   18 -- I    21        0.31     -0.03      5.11128
 Cr  138 -- I   141        0.31     -0.03      5.11128
 Cr   98 -- I   101        0.31     -0.03      5.11128
 Cr   90 -- I    93        0.31     -0.03      5.11128
 Cr  114 -- I   117        0.31     -0.03      5.11128
 Cr   66 -- I    69        0.31     -0.03      5.11128
 Cr  202 -- I   205        0.31     -0.03      5.11128
 Cr  170 -- I   173        0.31     -0.03      5.11128
 Cr   74 -- I    77        0.31     -0.03      5.11128
 Cr  274 -- I   277        0.31     -0.03      5.11128
 Cr  162 -- I   165        0.31     -0.03      5.11128
 Cr  266 -- I   269        0.31     -0.03      5.11128
 Cr  178 -- I   181        0.31     -0.03      5.11128
 Cr  258 -- I   261        0.31     -0.03      5.11128
 Cr  186 -- I   189        0.31     -0.03      5.11128
 Cr  186 -- I   243        0.31     -0.03      5.11128
 Cr  210 -- I   267        0.31     -0.03      5.11128
 Cr  162 -- I   219        0.31     -0.03      5.11128
 Cr  274 -- I   283        0.31     -0.03      5.11128
 Cr  130 -- I   139        0.31     -0.03      5.11128
 Cr   82 -- I    91        0.31     -0.03      5.11128
 Cr  106 -- I   115        0.31     -0.03      5.11128
 Cr   34 -- I    43        0.31     -0.03      5.11128
 Cr   58 -- I    67        0.31     -0.03      5.11128
 Cr  226 -- I   235        0.31     -0.03      5.11128
 Cr  202 -- I   211        0.31     -0.03      5.11128
 Cr  178 -- I   187        0.31     -0.03      5.11128
 Cr   10 -- I    19        0.31     -0.03      5.11128
 Cr  154 -- I   163        0.31     -0.03      5.11128
 Cr  250 -- I   259        0.31     -0.03      5.11128
 Cr   18 -- I    75        0.31     -0.03      5.11128
 Cr   66 -- I   123        0.31     -0.03      5.11128
 Cr   42 -- I    99        0.31     -0.03      5.11128
 Cr  234 -- I   240        0.31     -0.03      5.11128
 Cr  138 -- I   144        0.31     -0.03      5.11128
 Cr  282 -- I   288        0.31     -0.03      5.11128
 Cr  258 -- I   264        0.31     -0.03      5.11128
 Cr  114 -- I   120        0.31     -0.03      5.11128
 Cr   90 -- I    96        0.31     -0.03      5.11128
 Cr  242 -- I   248        0.31     -0.03      5.11128
 Cr  122 -- I   128        0.31     -0.03      5.11128
 Cr  218 -- I   224        0.31     -0.03      5.11128
 Cr  194 -- I   200        0.31     -0.03      5.11128
 Cr   98 -- I   104        0.31     -0.03      5.11128
 Cr   74 -- I    80        0.31     -0.03      5.11128
 Cr  210 -- I   216        0.31     -0.03      5.11128
 Cr   42 -- I    48        0.31     -0.03      5.11128
 Cr   66 -- I    72        0.31     -0.03      5.11128
 Cr   50 -- I    56        0.31     -0.03      5.11128
 Cr   18 -- I    24        0.31     -0.03      5.11128
 Cr   26 -- I    32        0.31     -0.03      5.11128
 Cr   10 -- I    16        0.31     -0.03      5.11128
 Cr  250 -- I   256        0.31     -0.03      5.11128
 Cr    2 -- I     8        0.31     -0.03      5.11128
 Cr   34 -- I    40        0.31     -0.03      5.11128
 Cr  146 -- I   152        0.31     -0.03      5.11128
 Cr  266 -- I   272        0.31     -0.03      5.11128
 Cr  154 -- I   160        0.31     -0.03      5.11128
 Cr   58 -- I    64        0.31     -0.03      5.11128
 Cr  202 -- I   208        0.31     -0.03      5.11128
 Cr  162 -- I   168        0.31     -0.03      5.11128
 Cr  170 -- I   176        0.31     -0.03      5.11128
 Cr  178 -- I   184        0.31     -0.03      5.11128
 Cr  130 -- I   136        0.31     -0.03      5.11128
 Cr  226 -- I   232        0.31     -0.03      5.11128
 Cr  106 -- I   112        0.31     -0.03      5.11128
 Cr   82 -- I    88        0.31     -0.03      5.11128
 Cr  186 -- I   192        0.31     -0.03      5.11128
 Cr  274 -- I   280        0.31     -0.03      5.11128
 Cr  130 -- I   142        0.31     -0.03      5.11128
 Cr  274 -- I   286        0.31     -0.03      5.11128
 Cr  250 -- I   262        0.31     -0.03      5.11128
 Cr  226 -- I   238        0.31     -0.03      5.11128
 Cr  106 -- I   118        0.31     -0.03      5.11128
 Cr   82 -- I    94        0.31     -0.03      5.11128
 Cr  266 -- I   278        0.31     -0.03      5.11128
 Cr  242 -- I   254        0.31     -0.03      5.11128
 Cr  218 -- I   230        0.31     -0.03      5.11128
 Cr  194 -- I   206        0.31     -0.03      5.11128
 Cr  122 -- I   134        0.31     -0.03      5.11128
 Cr   34 -- I    46        0.31     -0.03      5.11128
 Cr  154 -- I   166        0.31     -0.03      5.11128
 Cr   26 -- I    38        0.31     -0.03      5.11128
 Cr   10 -- I    22        0.31     -0.03      5.11128
 Cr   58 -- I    70        0.31     -0.03      5.11128
 Cr   50 -- I    62        0.31     -0.03      5.11128
 Cr    2 -- I    14        0.31     -0.03      5.11128
 Cr  170 -- I   182        0.31     -0.03      5.11128
 Cr   74 -- I    86        0.31     -0.03      5.11128
 Cr   98 -- I   110        0.31     -0.03      5.11128
 Cr  146 -- I   158        0.31     -0.03      5.11128
 Cr  202 -- I   214        0.31     -0.03      5.11128
 Cr  178 -- I   190        0.31     -0.03      5.11128
 I   198 -- Cr  282        0.31     -0.03      5.11128
 I   150 -- Cr  234        0.31     -0.03      5.11128
 I   174 -- Cr  258        0.31     -0.03      5.11128
 I    54 -- Cr  138        0.31     -0.03      5.11128
 I     6 -- Cr   90        0.31     -0.03      5.11128
 I    30 -- Cr  114        0.31     -0.03      5.11128
 Cr   18 -- I    78        0.31     -0.03      5.11128
 Cr   42 -- I   102        0.31     -0.03      5.11128
 Cr   66 -- I   126        0.31     -0.03      5.11128
 Cr  210 -- I   270        0.31     -0.03      5.11128
 Cr  162 -- I   222        0.31     -0.03      5.11128
 Cr  186 -- I   246        0.31     -0.03      5.11128
 Cr  265 -- I   270        0.31     -0.03      5.11131
 Cr  241 -- I   246        0.31     -0.03      5.11131
 Cr  217 -- I   222        0.31     -0.03      5.11131
 Cr   97 -- I   102        0.31     -0.03      5.11131
 Cr   73 -- I    78        0.31     -0.03      5.11131
 Cr  121 -- I   126        0.31     -0.03      5.11131
 Cr  249 -- I   280        0.31     -0.03      5.11131
 Cr  185 -- I   216        0.31     -0.03      5.11131
 Cr  161 -- I   192        0.31     -0.03      5.11131
 Cr  153 -- I   184        0.31     -0.03      5.11131
 Cr  177 -- I   208        0.31     -0.03      5.11131
 Cr   89 -- I   120        0.31     -0.03      5.11131
 Cr   33 -- I    64        0.31     -0.03      5.11131
 Cr  129 -- I   232        0.31     -0.03      5.11131
 Cr  113 -- I   144        0.31     -0.03      5.11131
 Cr  233 -- I   264        0.31     -0.03      5.11131
 Cr   41 -- I    72        0.31     -0.03      5.11131
 Cr   17 -- I    48        0.31     -0.03      5.11131
 Cr  105 -- I   136        0.31     -0.03      5.11131
 Cr   81 -- I   112        0.31     -0.03      5.11131
 Cr  137 -- I   240        0.31     -0.03      5.11131
 Cr    9 -- I    40        0.31     -0.03      5.11131
 Cr  225 -- I   256        0.31     -0.03      5.11131
 Cr  257 -- I   288        0.31     -0.03      5.11131
 Cr  145 -- I   176        0.31     -0.03      5.11131
 Cr  121 -- I   224        0.31     -0.03      5.11131
 Cr  241 -- I   272        0.31     -0.03      5.11131
 Cr   73 -- I   104        0.31     -0.03      5.11131
 Cr    1 -- I    32        0.31     -0.03      5.11131
 Cr   97 -- I   128        0.31     -0.03      5.11131
 Cr   25 -- I    56        0.31     -0.03      5.11131
 Cr  169 -- I   200        0.31     -0.03      5.11131
 Cr  217 -- I   248        0.31     -0.03      5.11131
 Cr  273 -- I   278        0.31     -0.03      5.11131
 Cr   81 -- I    86        0.31     -0.03      5.11131
 Cr  105 -- I   110        0.31     -0.03      5.11131
 Cr  281 -- I   286        0.31     -0.03      5.11131
 Cr  129 -- I   134        0.31     -0.03      5.11131
 Cr  249 -- I   254        0.31     -0.03      5.11131
 Cr  225 -- I   230        0.31     -0.03      5.11131
 Cr  137 -- I   142        0.31     -0.03      5.11131
 Cr  257 -- I   262        0.31     -0.03      5.11131
 Cr   65 -- I    70        0.31     -0.03      5.11131
 Cr   57 -- I    62        0.31     -0.03      5.11131
 Cr  113 -- I   118        0.31     -0.03      5.11131
 Cr   41 -- I    46        0.31     -0.03      5.11131
 Cr   17 -- I    22        0.31     -0.03      5.11131
[...]
*    I     148     -0.00133171  -0.00230942  -0.00480593 *
*    I     149     -0.00133953   0.00234980  -0.00480282 *
*    I     150     -0.00270578  -0.00001246   0.00480300 *
*    I     151      0.00133524   0.00230851   0.00480598 *
*    I     152      0.00133915  -0.00235067   0.00480316 *
*    Cr    153      0.00001147  -0.00000016   0.00000042 *
*    Cr    154     -0.00001954  -0.00000432  -0.00000085 *
*    I     155      0.00271129   0.00001448  -0.00481042 *
*    I     156     -0.00133992  -0.00230897  -0.00481117 *
*    I     157     -0.00133787   0.00235005  -0.00480536 *
*    I     158     -0.00270899  -0.00001860   0.00480891 *
*    I     159      0.00132967   0.00231391   0.00481213 *
*    I     160      0.00133726  -0.00234828   0.00480330 *
*    Cr    161      0.00001362  -0.00000869   0.00000014 *
*    Cr    162     -0.00002586   0.00001381   0.00000087 *
*    I     163      0.00270749   0.00001271  -0.00481002 *
*    I     164     -0.00133867  -0.00231213  -0.00481177 *
*    I     165     -0.00133615   0.00235518  -0.00480938 *
*    I     166     -0.00271021  -0.00002368   0.00481061 *
*    I     167      0.00133315   0.00231665   0.00481167 *
*    I     168      0.00134311  -0.00235248   0.00481087 *
*    Cr    169     -0.00000923  -0.00000119  -0.00000177 *
*    Cr    170     -0.00002168   0.00000382  -0.00000185 *
*    I     171      0.00271067   0.00001382  -0.00481238 *
*    I     172     -0.00133443  -0.00231500  -0.00481894 *
*    I     173     -0.00134896   0.00235096  -0.00481138 *
*    I     174     -0.00270433  -0.00002023   0.00480985 *
*    I     175      0.00133789   0.00231360   0.00481928 *
*    I     176      0.00133316  -0.00235637   0.00480980 *
*    Cr    177     -0.00001982   0.00001203  -0.00000285 *
*    Cr    178      0.00000576  -0.00000320  -0.00000220 *
*    I     179      0.00270949   0.00002640  -0.00481053 *
*    I     180     -0.00133099  -0.00230861  -0.00480628 *
*    I     181     -0.00133476   0.00235533  -0.00481017 *
*    I     182     -0.00270908  -0.00000684   0.00481106 *
*    I     183      0.00133343   0.00230722   0.00480626 *
*    I     184      0.00134406  -0.00235474   0.00481063 *
*    Cr    185      0.00000579  -0.00001075   0.00000033 *
*    Cr    186     -0.00000626   0.00001785  -0.00000099 *
*    I     187      0.00270752   0.00000817  -0.00480783 *
*    I     188     -0.00133736  -0.00230799  -0.00481195 *
*    I     189     -0.00133545   0.00235625  -0.00480883 *
*    I     190     -0.00271099  -0.00002472   0.00481159 *
*    I     191      0.00133059   0.00231551   0.00481230 *
*    I     192      0.00134401  -0.00235433   0.00481161 *
*    Cr    193      0.00000546  -0.00000485   0.00000060 *
*    Cr    194     -0.00001929   0.00000944  -0.00000079 *
*    I     195      0.00270762   0.00000803  -0.00481091 *
*    I     196     -0.00133952  -0.00230945  -0.00481370 *
*    I     197     -0.00133484   0.00235389  -0.00481163 *
*    I     198     -0.00270835  -0.00002402   0.00481422 *
*    I     199      0.00132988   0.00231538   0.00481318 *
*    I     200      0.00134403  -0.00235185   0.00481166 *
*    Cr    201     -0.00000407   0.00000979  -0.00000254 *
*    Cr    202     -0.00001356   0.00001730  -0.00000168 *
*    I     203      0.00270255   0.00001695  -0.00480200 *
*    I     204     -0.00133002  -0.00230800  -0.00480506 *
*    I     205     -0.00134297   0.00234654  -0.00480215 *
*    I     206     -0.00270401  -0.00001760   0.00480615 *
*    I     207      0.00133463   0.00230667   0.00480485 *
*    I     208      0.00133520  -0.00235360   0.00480463 *
*    Cr    209     -0.00001151   0.00001042   0.00000101 *
*    Cr    210      0.00000799   0.00001431   0.00000091 *
*    I     211      0.00270218   0.00001580  -0.00480119 *
*    I     212     -0.00133213  -0.00230981  -0.00480461 *
*    I     213     -0.00133827   0.00235648  -0.00480878 *
*    I     214     -0.00270405  -0.00001299   0.00480245 *
*    I     215      0.00133460   0.00231033   0.00480573 *
*    I     216      0.00134558  -0.00235216   0.00480967 *
*    Cr    217      0.00000438  -0.00002787   0.00000024 *
*    Cr    218     -0.00006050  -0.00002694   0.00000071 *
*    I     219      0.00270322   0.00001657  -0.00480185 *
*    I     220     -0.00131803  -0.00231979  -0.00481086 *
*    I     221     -0.00118949   0.00257302  -0.00497346 *
*    I     222     -0.00270549  -0.00001396   0.00480358 *
*    I     223      0.00134523   0.00230820   0.00481128 *
*    I     224      0.00160731  -0.00233447   0.00497598 *
*    Cr    225      0.00000562  -0.00001857  -0.00000131 *
*    Cr    226     -0.00003340  -0.00000941  -0.00000192 *
*    I     227      0.00270725   0.00001704  -0.00481407 *
*    I     228     -0.00134107  -0.00230863  -0.00481096 *
*    I     229     -0.00133662   0.00235309  -0.00480918 *
*    I     230     -0.00270502  -0.00000634   0.00481591 *
*    I     231      0.00132931   0.00231699   0.00481181 *
*    I     232      0.00134282  -0.00235039   0.00480989 *
*    Cr    233     -0.00000352  -0.00000212  -0.00000110 *
*    Cr    234     -0.00002995  -0.00000256  -0.00000099 *
*    I     235      0.00270483   0.00001649  -0.00480226 *
*    I     236     -0.00133177  -0.00230825  -0.00480587 *
*    I     237     -0.00134115   0.00234803  -0.00480269 *
*    I     238     -0.00270296  -0.00001320   0.00480272 *
*    I     239      0.00133465   0.00230737   0.00480530 *
*    I     240      0.00133903  -0.00234759   0.00480271 *
*    Cr    241      0.00000831  -0.00003370  -0.00000218 *
*    Cr    242     -0.00001738  -0.00000179  -0.00000167 *
*    I     243      0.00270240   0.00001619  -0.00480271 *
*    I     244     -0.00132904  -0.00231131  -0.00480510 *
*    I     245     -0.00133996   0.00234482  -0.00480066 *
*    I     246     -0.00270314  -0.00001527   0.00480438 *
*    I     247      0.00133684   0.00230792   0.00480528 *
*    I     248      0.00133553  -0.00235009   0.00480238 *
*    Cr    249      0.00000611  -0.00002022  -0.00000178 *
*    Cr    250     -0.00002006  -0.00000519  -0.00000139 *
*    I     251      0.00270090   0.00001818  -0.00480217 *
*    I     252     -0.00132964  -0.00230741  -0.00480446 *
*    I     253     -0.00133378   0.00235371  -0.00480936 *
*    I     254     -0.00269923  -0.00001017   0.00480121 *
*    I     255      0.00133588   0.00230924   0.00480661 *
*    I     256      0.00134616  -0.00234375   0.00480815 *
*    Cr    257      0.00000030  -0.00001311   0.00000013 *
*    Cr    258     -0.00002725   0.00000030  -0.00000072 *
*    I     259      0.00270766   0.00000965  -0.00480990 *
*    I     260     -0.00133989  -0.00230681  -0.00481350 *
*    I     261     -0.00133830   0.00234947  -0.00480413 *
*    I     262     -0.00270500  -0.00002101   0.00481052 *
*    I     263      0.00132904   0.00231697   0.00481308 *
*    I     264      0.00133724  -0.00234748   0.00480273 *
*    Cr    265      0.00001360  -0.00002772  -0.00000118 *
*    Cr    266     -0.00000010  -0.00000509  -0.00000087 *
*    I     267      0.00270424   0.00001639  -0.00480267 *
*    I     268     -0.00132500  -0.00231699  -0.00481266 *
*    I     269     -0.00135027   0.00234837  -0.00480913 *
*    I     270     -0.00270258  -0.00001041   0.00480275 *
*    I     271      0.00134249   0.00230741   0.00481211 *
*    I     272      0.00133227  -0.00235699   0.00480959 *
*    Cr    273      0.00001391  -0.00002156  -0.00000090 *
*    Cr    274     -0.00001205  -0.00000658   0.00000028 *
*    I     275      0.00271165   0.00001960  -0.00481777 *
*    I     276     -0.00133752  -0.00230821  -0.00481343 *
*    I     277     -0.00134061   0.00234757  -0.00480260 *
*    I     278     -0.00270940  -0.00001218   0.00481642 *
*    I     279      0.00133148   0.00231591   0.00481303 *
*    I     280      0.00133567  -0.00234766   0.00480323 *
*    Cr    281      0.00001025  -0.00000942   0.00000011 *
*    Cr    282     -0.00001331   0.00000412   0.00000032 *
*    I     283      0.00270779   0.00001328  -0.00481220 *
*    I     284     -0.00133980  -0.00230888  -0.00481304 *
*    I     285     -0.00133225   0.00235767  -0.00481217 *
*    I     286     -0.00270663  -0.00002036   0.00481075 *
*    I     287      0.00132862   0.00231330   0.00481403 *
*    I     288      0.00134604  -0.00234809   0.00481069 *
*                                                        *
**********************************************************
* TOTAL:            0.00000000  -0.00000000   0.00000000 *
**********************************************************
 
 
***********************************************************
********** Summary of Forces (values in Eh/a) *************
*                                                         *
* ---------------------- Minimum ------------------------ *
* Atom:       233, |F|min =    0.00000425                 *
* Components:     Fx|min       Fy|min       Fz|min        *
*              -0.00000352  -0.00000212  -0.00000110      *
*                                                         *
* ---------------------- Maximum ------------------------ *
* Atom:       126, |F|max =    0.00572762                 *
* Components:     Fx|max       Fy|max       Fz|max        *
*              -0.00282498  -0.00026105   0.00497563      *
*                                                         *
* ---------------- Root Mean Square Force --------------- *
*                  |F|rms =    0.00477842                 *
* Components:     Fx|rms       Fy|rms       Fz|rms        *
*               0.00165283   0.00165077   0.00416850      *
***********************************************************
 

------------------------------ TIMING INFORMATION ------------------------------
AVERAGE TIME:   31367.112s on     56 proc(s)                                    
TOTAL TIME:     31367.112s on     56 proc(s)                                    
==================== AVERAGE TIMINGS FROM ALL PROCS (CUMULATIVE) =====================
|| TAG                                         #calls     cpu time   %total  Gflops ||
|| hubbard_species_proj                       :     1        0.00s   0.000%  ------ ||
|| hubbard_ngwf_on_grid                       :     1        0.00s   0.000%  ------ ||
|| linalg_invert_sym_matrix                   :     4        0.01s   0.000%  ------ || (1 procs only)
|| sw_bessel_init_cpu                         :     1        0.01s   0.000%  ------ || (1 procs only)
|| hubbard_projector_character                :     1        0.00s   0.000%  ------ ||
|| hubbard_tensorial_correction               :     2        0.00s   0.000%  ------ ||
|| hubbard_ngwf_select                        :     1        0.00s   0.000%  ------ ||
|| hash_table_free                            :    65        0.00s   0.000%  ------ ||
|| density_fftbox_interp_mult_imbal           : 23034        0.00s   0.000%  ------ ||
|| ewald_calculate_forces_realspace           :     1        0.00s   0.000%  ------ ||
|| onetep.F90 final imbalance                 :     1        0.01s   0.000%  ------ ||
|| linalg_dgemv                               :    44        0.02s   0.000%  ------ ||
|| sparse_blacstospam3_real_fast_imbal        :    96        0.03s   0.000%  ------ ||
|| ewald_calculate_energy                     :     1        0.04s   0.000%  ------ ||
|| sparse_set_to_garbage                      :  1422        0.05s   0.000%  ------ ||
|| ewald_calculate_forces_recipspace          :     1        0.08s   0.000%  ------ ||
|| paw_tcore_hartree_on_grid                  :     1        0.10s   0.000%  ------ ||
|| sw_init                                    :   697        0.12s   0.000%  ------ ||
|| hubbard_projection_mtx                     :    67        0.14s   0.000%  ------ ||
|| pseudo_make_structure_factor               :     1        0.15s   0.000%  ------ ||
|| paw_dij_hartree                            :   386        0.16s   0.001%  ------ ||
|| sparse_spam3toblacs_real_fast_B2           :  4592        0.18s   0.001%  ------ ||
|| onetep.F90 main loop imbalance             :     1        0.19s   0.001%  ------ ||
|| restart_hamiltonian_write                  :     2        0.22s   0.001%  ------ ||
|| ewald_calculate_forces                     :     1        0.22s   0.001%  ------ ||
|| sparse_spam3toblacs_real_fast_imbal        :    82        0.33s   0.001%  ------ ||
|| augmentation_density_forces                :     1        0.37s   0.001%  ------ ||
|| sparse_init                                :     1        0.39s   0.001%  ------ ||
|| paw_tcore_hartree_calc_forces              :     1        0.69s   0.002%  ------ ||
|| basis_extract_function_from_box            :  4114        0.82s   0.003%  ------ ||
|| hubbard_projector_ham                      :   167        1.15s   0.004%  ------ ||
|| hubbard_ham_matrix                         :   168        1.76s   0.006%  ------ ||
|| paw_tcore_density                          :     1        1.78s   0.006%  ------ ||
|| sparse_spam3toblacs_real_fast_B1           :  4592        1.98s   0.006%  ------ ||
|| paw_dataset_init                           :     2        2.15s   0.007%  ------ ||
|| paw_nlcc_calculate_forces                  :     1        2.34s   0.007%  ------ ||
|| paw_sphere_density_on_grid                 :     1        2.79s   0.009%  ------ ||
|| sparse_spam3toblacs_real_fast              :    82        2.86s   0.009%  ------ ||
|| nonsc_forces_ngwfs_calc                    :     1        2.99s   0.010%  ------ ||
|| restart_kernel_write                       :    34        3.00s   0.010%  ------ ||
|| hubbard_energy_total                       :   351        3.88s   0.012%  ------ ||
|| sparse_blacstospam3_real_fast              :    96        5.42s   0.017%  ------ ||
|| paw_species_calc_proj_prec_mat             :     1        5.80s   0.019%  ------ ||
|| ngwfs_initialise_from_radial               :     4        5.83s   0.019%  ------ ||
|| sparse_embed_array_hotelling_invert        :    65        8.44s   0.027%  ------ ||
|| dense_eigensolve                           :    38       10.38s   0.033%  ------ ||
|| hubbard_calculate_forces                   :     1       10.93s   0.035%  ------ ||
|| edft_diag_ngwf_ham                         :    36       12.29s   0.039%  ------ ||
|| integrals_grad_spam3                       :     4       13.85s   0.044%  ------ ||
|| edft_apply_smearing_operator               :    18       18.63s   0.059%  ------ ||
|| sparse_trace                               : 11962       19.46s   0.062%  ------ ||
|| energy_and_force_init_cell                 :     1       20.69s   0.066%  ------ ||
|| kernel_purify                              :   517       22.69s   0.072%  ------ ||
|| ngwf_gradient_coeffs                       :    32       28.37s   0.090%  ------ ||
|| kernel_fix                                 :   160       29.51s   0.094%  ------ ||
|| lnv_gradient_norm                          :   160       29.83s   0.095%  ------ ||
|| hubbard_projector_update                   :     1       30.69s   0.098%  ------ ||
|| fourier_filter_cell                        :   402       31.85s   0.102% 140.122 ||
|| eigenstates_calculate                      :     1       32.23s   0.103%  ------ ||
|| hamiltonian_energy_components              :     1       37.19s   0.119%  ------ ||
|| basis_copy_function_to_box                 : 40243       39.78s   0.127%  ------ ||
|| projectors_func_grad_ovlp_box_spam3        :     6       40.69s   0.130%  ------ ||
|| aug_nl_calculate_forces                    :     1       41.77s   0.133%  ------ ||
|| hartree_on_grid_single                     :   348       45.79s   0.146%  ------ ||
|| fourier_apply_box_pair                     :  6282       47.94s   0.153%  1.781k ||
|| fourier_interpolate_cell                   :   698       56.17s   0.179% 137.952 ||
|| density_init_guess_real                    :     2       58.38s   0.186%  ------ ||
|| augmentation_screen_dij_spam3              :   347      113.68s   0.362%  ------ ||
|| forces_calculate                           :     1      128.07s   0.408%  ------ ||
|| cell_grid_deposit_box_real                 : 28056      141.10s   0.450%  ------ ||
|| sparse_product                             : 23136      165.44s   0.527%  ------ ||
|| aug_nonlocal_mat_spam3_embed_array         :   353      180.05s   0.574%  ------ ||
|| paw_dij_xc                                 :   386      188.20s   0.600%  ------ ||
|| fourier_apply_cell_backward                :  3133      207.94s   0.663% 150.508 ||
|| fourier_filter                             :  7577      233.19s   0.743%  ------ ||
|| fourier_apply_cell_forward                 :  3133      235.84s   0.752% 132.704 ||
|| aug_density_on_grid_spam3                  :   349      252.09s   0.804%  ------ ||
|| restart_ngwfs_tightbox_output              :    31      264.96s   0.845%  ------ ||
|| cell_grid_extract_box_real                 : 17766      300.26s   0.957%  ------ ||
|| projectors_init_fftbox_recip               :   849      303.15s   0.966%  ------ ||
|| fourier_interpolate                        :  7577      360.61s   1.150%  ------ ||
|| function_ops_brappd_ketppd_spam3           :   264      412.93s   1.316%  ------ ||
|| properties_calculate                       :     1      457.79s   1.459%  ------ ||
|| xc_energy_potential                        :   348      489.61s   1.561%  ------ ||
|| edft_calculate                             :     1      900.07s   2.869%  ------ ||
|| density_fftbox_deposit_to_cell             : 23034      946.94s   3.019%  ------ ||
|| projectors_func_ovlp_box_spam3             :   266     1022.04s   3.258%  ------ ||
|| integrals_kinetic_spam3                    :   130     1114.58s   3.553%  ------ ||
|| basis_dot_function_with_box                : 14.11M    1550.30s   4.942%  ------ ||
|| potential_apply_to_ngwf_batch              :  1010     1781.68s   5.680%  ------ ||
|| projectors_gradient_batch                  :   384     2082.80s   6.640%  ------ ||
|| fourier_apply_box                          : 124.4k    2986.72s   9.522%  1.879k ||
|| integrals_locpot_mat_els_batch             :  1010     3047.75s   9.716%  ------ ||
|| fourier_interpolate_product                : 22435     3231.96s  10.304%  ------ ||
|| density_fftbox_interpolate_multiply        : 23034     3404.36s  10.853%  ------ ||
|| basis_add_function_to_box                  : 28.11M    3458.30s  11.025%  ------ ||
|| projectors_grad_precond_batch              :   192     4117.30s  13.126%  ------ ||
|| integrals_locpot_dbl_grid                  :   338     4833.80s  15.410%  ------ ||
|| density_batch_interp_deposit               :  2094     5442.29s  17.350%  ------ ||
|| density_batch_row_sums                     :  2094     6157.32s  19.630%  ------ ||
|| ngwf_gradient_build_batch                  :   192     6862.67s  21.879%  ------ ||
|| ngwf_gradient_batch                        :   192     9840.82s  31.373%  ------ ||
|| ngwf_gradient_lnv                          :    32     9991.97s  31.855%  ------ ||
|| density_on_dbl_grid                        :   698    11693.17s  37.278%  ------ ||
|| hamiltonian_lhxc_calculate                 :   345    12595.82s  40.156%  ------ ||
|| lnv_denskernel_optimise_cg                 :    32    15542.32s  49.550%  ------ ||
|| ngwf_cg_optimise                           :     1    29673.39s  94.600%  ------ ||
|| energy_and_forces                          :     1    31344.78s  99.929%  ------ ||
|| total_time                                 :     1    31367.11s 100.000%  ------ ||
======================================================================================
Overhead of generating timer report: 
- 0 ms averaging over threads,
- 5 ms ensuring consistency across MPI ranks,
- 44 ms printing in order.

Job completed: 22-10-2024 18:28 (+0100)

onetep_launcher: ONETEP seems to have finished correctly (zero exit code).
                 Brought to you by PID 129044 on nid001583.
