==================================================================================
It's Tue 22 Oct 2024 05:30:56 PM BST.
*** Starting onetep_launcher (node nid004283, PIDs 41009 41010 41011 41012 41013 41014 41015 41016)...
    - ONETEP arguments: U_0_0.05.dat
    - Current directory: /mnt/lustre/a2fs-work3/work/e89/e89/phsmea/J_det/U_0_0.05
    - Launcher executable directory: /mnt/lustre/a2fs-work3/work/e89/e89/phsmea/J_det/U_0_0.05
    - (-e) ONETEP executable specified through command-line: /work/e89/e89/phsmea/onetep.archer2_2024_cray
      ... trying /work/e89/e89/phsmea/onetep.archer2_2024_cray
          -> looks OK
*** Setting up environment...
    - (-s) Process stack size: unlimited
    - (-t) OMP_NUM_THREADS: 16
    - (-o) OMP_STACKSIZE: 64M
    - (-c) Maximum core file size: 2048000
    - (-d) decfort_dump_flag: n
    - (-m) I_MPI_OFA_TRANSLATION_CACHE: 0
    - (-m) I_MPI_DAPL_TRANSLATION_CACHE: 0
    - (-m) I_MPI_DAPL_UD_TRANSLATION_CACHE: 0
*** Starting ONETEP...
    - /work/e89/e89/phsmea/onetep.archer2_2024_cray U_0_0.05.dat
=================================================================================
_________________________________________________________________________________
 +---------------------------------------------------------------+
 |                                                               |
 |        ####### #     # ####### ####### ####### ######         |
 |        #     # ##    # #          #    #       #     #        |
 |        #     # # #   # #          #    #       #     #        |
 |        #     # #  #  # #####      #    #####   ######         |
 |        #     # #   # # #          #    #       #              |
 |        #     # #    ## #          #    #       #              |
 |        ####### #     # #######    #    ####### #              |
 |                                                               |
 |        Linear-Scaling Ab Initio Total Energy Program          |
 |                                                               |
 |          Release for academic collaborators of ODG            |
 |                                             Version 7.3.0     |
 | Remote: git@github.com:Miesaz/onetep_mea.git                  |
 | Local branch: master                                          |
 | Commit ID: 4af45e89288c8df5499704252eec3e032ee3d0c8           |
 | Date: Tue Aug 6 11:28:44 2024 +0100                           |
 | Working tree clean                                            |
 |                                                               |
 +---------------------------------------------------------------+
 |                                                               |
 |  Authors:                                                     |
 |  Jacek Dziedzic, Peter D. Haynes, Nicholas D. M. Hine,        |
 |  Arash A. Mostofi, Mike C. Payne and Chris-Kriton Skylaris    |
 |                                                               |
 |  Contributors:                                                |
 |  J. Aarons, L. Andrinopoulos, P. W. Avraam, R. A. Bell,       |
 |  A. Bhandari, G. A. Bramley, R. J. Charlton, S. J. Clark,     |
 |  R. J. Clements, G. C. Constantinescu, F. Corsetti,           |
 |  N. Corsini, O. Dieguez, S. M. M. Dubois, K. K. B. Duff,      |
 |  J. M. Escartin, M. Escobar Azor, A. Greco,                   |
 |  H. Helal, Q. O. Hill, L. P. Lee, J.-H. Li,                   |
 |  T. Li, E. B. Linscott, G. Moynihan, D. D. O`Regan,           |
 |  O. K. Okan, E. Parkinson, M. J. S. Phipps,                   |
 |  C. J. Pickard, J. C. A. Prentice, M. I. J. Probert,          |
 |  L. E. Ratcliff, M. Robinson, A. Ruiz Serrano,                |
 |  M. dos Santos Dias, J. S. Spencer, E. W. Tait,               |
 |  G. Teobaldi, D. Turban, V. Vitale, K. A. Wilkinson,          |
 |  C. Weber, J. C. Womack, Chengcheng Xiao, N. Yeung,           |
 |  and T. J. Zuehlsdorff.                                       |
 |                                                               |
 |                                   Copyright (c) 2004-2024     |
 |                                                               |
 |  Please cite:                                                 |
 |  "The ONETEP linear-scaling density functional theory program"|
 |   J. Chem. Phys. 152(17) 174111 (2020)                        |
 |                                                               |
 |          in all publications arising from your use of ONETEP. |
 |                                                               |
 +---------------------------------------------------------------+
 |                                                               |
 |   ONETEP is based on developments described in the following  |
 |   publications:                                               |
 |                                                               |
 |  "Nonorthogonal generalized Wannier function pseudopotential  |
 |   plane-wave method".                                         |
 |   C.-K. Skylaris, A. A. Mostofi, P. D. Haynes, O. Dieguez,    |
 |   M. C. Payne.                                                |
 |   Phys. Rev. B 66 035119 (2002).                              |
 |                                                               |
 |  "Preconditioned iterative minimization for linear-scaling    |
 |   electronic structure calculations".                         |
 |   A. A. Mostofi, P. D. Haynes, C.-K. Skylaris, M. C. Payne.   |
 |   J. Chem. Phys. 119(17), pp.8842-8848 (2003).                |
 |                                                               |
 |  "Total-energy calculations on a real space grid with         |
 |   localized functions and a plane-wave basis".                |
 |   A. A. Mostofi, C.-K. Skylaris, P. D. Haynes, M. C. Payne.   |
 |   Comput. Phys. Commun. 147, pp.788-802 (2002).               |
 |                                                               |
 |  "Accurate kinetic energy evaluation in electronic structure  |
 |   calculations with localized functions on real space grids"  |
 |   C.-K. Skylaris, A. A. Mostofi, P. D. Haynes, C. J. Pickard, |
 |   M. C. Payne.                                                |
 |   Comput. Phys. Commun. 140, pp.315-322 (2001).               |
 |                                                               |
 |  "Accurate ionic forces and geometry optimization in linear-  |
 |   scaling density-functional theory with local orbitals"      |
 |   N. D. M. Hine, M. Robinson, P. D. Haynes, C.-K. Skylaris,   |
 |   M. C. Payne, and A. A. Mostofi.                             |
 |   Phys. Rev. B 83 195102 (2011).                              |
 |                                                               |
 +---------------------------------------------------------------+

Job started: 22-10-2024 17:30 (+0100)
 
Reading parameters from file "U_0_0.05.dat" ...
WARNING in get_rundat: hubbard_calculating_u is TRUE, so do_properties will be
overridden to TRUE.
... done

If your calculation crashes here, before "Checking processes and threads..."
is displayed, then your stack size is insufficient.
If so, use "ulimit -s unlimited" at runtime.
You can disable this check with "check_stack_size F".

Checking processes and threads...
   Running with 56 MPI processes.
   There are 8 MPI processes running on the same node as the root process.
   Each MPI process is using: 
               1 threads for simulation cell FFTs.
               1 threads for threaded FFT box operations.
              16 threads for loops over batched FFT box operations.
              16 threads in other parallel regions.
   MPI Interface: S1 (use mpi_f08) (-DMPI -DUSE_MPI_F08).
   MPI_ASYNC_PROTECTS_NONBLOCKING: Yes. MPI_SUBARRAYS_SUPPORTED: Yes.
   FFTW Interface: OMP-capable and MODERN. (-DUSE_MODERN_FFTW specified).
   GPU Interface: None.
   GPU FFT Backend: None.
... done

Basic input checks...... done

Reading geometry and species blocks from file "U_0_0.05.dat" ...... done


--------------------------------------------------------------------------------
---------------------------------- INPUT FILE ----------------------------------
--------------------------------------------------------------------------------

charge : 0                                                                      
cutoff_energy : 1000 eV                                                         
do_properties : T                                                               
edft : F                                                                        
edft_init_maxit : 5                                                             
elec_energy_tol : 2e-07 Ha                                                      
fine_grid_scale : 4                                                             
forces_output_detail : VERBOSE                                                  
hubbard_calculating_u : T                                                       
maxit_ngwf_cg : 100                                                             
ngwf_threshold_orig : 1e-06                                                     
output_detail : BRIEF                                                           
paw : T                                                                         
spin_polarized : T                                                              
ngwfs_spin_polarized : T                                                        
read_denskern : F                                                               
read_hamiltonian : F                                                            
read_tightbox_ngwfs : F                                                         
spin : 216                                                                      
task : SinglePoint                                                              
write_denskern : T                                                              
write_forces : T                                                                
write_hamiltonian : T                                                           
write_tightbox_ngwfs : T                                                        
xc_functional : PBE                                                             
%BLOCK LATTICE_CART                                                             
ang                                                                             
41.261892132    0.000000000     0.000000000                                     
-20.630946066   35.733846792     0.000000000                                    
0.0000000000    0.000000000    17.192455055                                     
%ENDBLOCK LATTICE_CART                                                          
%BLOCK POSITIONS_ABS                                                            
ang                                                                             
Cr       3.43849101       1.98521371       9.03176873                           
Cr       0.00000000       3.97042742       9.03176919                           
I        4.42260340      -0.00001318       7.48054615                           
I        1.22717790       2.12556082       7.48054615                           
I       -2.21129029       3.83009349       7.48054615                           
I        2.45437873      -0.00001140      10.58299027                           
I        2.21129177       3.83009250      10.58299027                           
I       -1.22717949       2.12556004      10.58299027                           
Cr       0.00000000       7.94085485       9.03176873                           
Cr      -3.43849101       9.92606855       9.03176919                           
I        0.98411239       5.95562795       7.48054615                           
I       -2.21131311       8.08120195       7.48054615                           
I       -5.64978130       9.78573462       7.48054615                           
I       -0.98411228       5.95562973      10.58299027                           
I       -1.22719924       9.78573363      10.58299027                           
I       -4.66567050       8.08120117      10.58299027                           
Cr      -3.43849101      13.89649598       9.03176873                           
Cr      -6.87698202      15.88170968       9.03176919                           
I       -2.45437862      11.91126909       7.48054615                           
I       -5.64980412      14.03684309       7.48054615                           
I       -9.08827231      15.74137575       7.48054615                           
I       -4.42260329      11.91127086      10.58299027                           
I       -4.66569025      15.74137476      10.58299027                           
I       -8.10416151      14.03684230      10.58299027                           
Cr      10.31547303       1.98521371       9.03176873                           
Cr       6.87698202       3.97042742       9.03176919                           
I       11.29958542      -0.00001318       7.48054615                           
I        8.10415992       2.12556082       7.48054615                           
I        4.66569173       3.83009349       7.48054615                           
I        9.33136075      -0.00001140      10.58299027                           
I        9.08827380       3.83009250      10.58299027                           
I        5.64980253       2.12556004      10.58299027                           
Cr       6.87698202       7.94085485       9.03176873                           
Cr       3.43849101       9.92606855       9.03176919                           
I        7.86109441       5.95562795       7.48054615                           
I        4.66566891       8.08120195       7.48054615                           
I        1.22720072       9.78573462       7.48054615                           
I        5.89286974       5.95562973      10.58299027                           
I        5.64978278       9.78573363      10.58299027                           
I        2.21131152       8.08120117      10.58299027                           
Cr       3.43849101      13.89649598       9.03176873                           
Cr       0.00000000      15.88170968       9.03176919                           
I        4.42260340      11.91126909       7.48054615                           
I        1.22717790      14.03684309       7.48054615                           
I       -2.21129029      15.74137575       7.48054615                           
I        2.45437873      11.91127086      10.58299027                           
I        2.21129177      15.74137476      10.58299027                           
I       -1.22717949      14.03684230      10.58299027                           
Cr      17.19245505       1.98521371       9.03176873                           
Cr      13.75396404       3.97042742       9.03176919                           
I       18.17656744      -0.00001318       7.48054615                           
I       14.98114195       2.12556082       7.48054615                           
I       11.54267375       3.83009349       7.48054615                           
I       16.20834277      -0.00001140      10.58299027                           
I       15.96525582       3.83009250      10.58299027                           
I       12.52678455       2.12556004      10.58299027                           
Cr      13.75396404       7.94085485       9.03176873                           
Cr      10.31547303       9.92606855       9.03176919                           
I       14.73807643       5.95562795       7.48054615                           
I       11.54265094       8.08120195       7.48054615                           
I        8.10418274       9.78573462       7.48054615                           
I       12.76985176       5.95562973      10.58299027                           
I       12.52676481       9.78573363      10.58299027                           
I        9.08829354       8.08120117      10.58299027                           
Cr      10.31547303      13.89649598       9.03176873                           
Cr       6.87698202      15.88170968       9.03176919                           
I       11.29958542      11.91126909       7.48054615                           
I        8.10415992      14.03684309       7.48054615                           
I        4.66569173      15.74137575       7.48054615                           
I        9.33136075      11.91127086      10.58299027                           
I        9.08827380      15.74137476      10.58299027                           
I        5.64980253      14.03684230      10.58299027                           
Cr      -6.87698202      19.85213711       9.03176873                           
Cr     -10.31547303      21.83735082       9.03176919                           
I       -5.89286963      17.86691022       7.48054615                           
I       -9.08829513      19.99248422       7.48054615                           
I      -12.52676332      21.69701689       7.48054615                           
I       -7.86109430      17.86691200      10.58299027                           
I       -8.10418126      21.69701590      10.58299027                           
I      -11.54265252      19.99248344      10.58299027                           
Cr     -10.31547303      25.80777825       9.03176873                           
Cr     -13.75396404      27.79299195       9.03176919                           
I       -9.33136064      23.82255135       7.48054615                           
I      -12.52678614      25.94812535       7.48054615                           
I      -15.96525433      27.65265802       7.48054615                           
I      -11.29958531      23.82255313      10.58299027                           
I      -11.54267227      27.65265703      10.58299027                           
I      -14.98114353      25.94812457      10.58299027                           
Cr     -13.75396404      31.76341938       9.03176873                           
Cr     -17.19245505      33.74863308       9.03176919                           
I      -12.76985165      29.77819249       7.48054615                           
I      -15.96527715      31.90376649       7.48054615                           
I      -19.40374534      33.60829915       7.48054615                           
I      -14.73807632      29.77819426      10.58299027                           
I      -14.98116328      33.60829816      10.58299027                           
I      -18.41963454      31.90376570      10.58299027                           
Cr      -0.00000000      19.85213711       9.03176873                           
Cr      -3.43849101      21.83735082       9.03176919                           
I        0.98411239      17.86691022       7.48054615                           
I       -2.21131311      19.99248422       7.48054615                           
I       -5.64978130      21.69701689       7.48054615                           
I       -0.98411228      17.86691200      10.58299027                           
I       -1.22719923      21.69701590      10.58299027                           
I       -4.66567050      19.99248344      10.58299027                           
Cr      -3.43849101      25.80777825       9.03176873                           
Cr      -6.87698202      27.79299195       9.03176919                           
I       -2.45437862      23.82255135       7.48054615                           
I       -5.64980412      25.94812535       7.48054615                           
I       -9.08827231      27.65265802       7.48054615                           
I       -4.42260329      23.82255313      10.58299027                           
I       -4.66569025      27.65265703      10.58299027                           
I       -8.10416151      25.94812457      10.58299027                           
Cr      -6.87698202      31.76341938       9.03176873                           
Cr     -10.31547303      33.74863308       9.03176919                           
I       -5.89286963      29.77819249       7.48054615                           
I       -9.08829513      31.90376649       7.48054615                           
I      -12.52676332      33.60829915       7.48054615                           
I       -7.86109430      29.77819426      10.58299027                           
I       -8.10418126      33.60829816      10.58299027                           
I      -11.54265252      31.90376570      10.58299027                           
CrU       6.87698202      19.85213711       9.03176873                          
Cr       3.43849101      21.83735082       9.03176919                           
I        7.86109441      17.86691022       7.48054615                           
I        4.66566892      19.99248422       7.48054615                           
I        1.22720072      21.69701689       7.48054615                           
I        5.89286974      17.86691200      10.58299027                           
I        5.64978279      21.69701590      10.58299027                           
I        2.21131152      19.99248344      10.58299027                           
Cr       3.43849101      25.80777825       9.03176873                           
Cr      -0.00000000      27.79299195       9.03176919                           
I        4.42260340      23.82255135       7.48054615                           
I        1.22717791      25.94812535       7.48054615                           
I       -2.21129029      27.65265802       7.48054615                           
I        2.45437873      23.82255313      10.58299027                           
I        2.21129178      27.65265703      10.58299027                           
I       -1.22717949      25.94812457      10.58299027                           
Cr      -0.00000000      31.76341938       9.03176873                           
Cr      -3.43849101      33.74863308       9.03176919                           
I        0.98411239      29.77819249       7.48054615                           
I       -2.21131311      31.90376649       7.48054615                           
I       -5.64978130      33.60829915       7.48054615                           
I       -0.98411228      29.77819426      10.58299027                           
I       -1.22719923      33.60829816      10.58299027                           
I       -4.66567050      31.90376570      10.58299027                           
Cr      24.06943708       1.98521371       9.03176873                           
Cr      20.63094607       3.97042742       9.03176919                           
I       25.05354947      -0.00001318       7.48054615                           
I       21.85812397       2.12556082       7.48054615                           
I       18.41965578       3.83009349       7.48054615                           
I       23.08532480      -0.00001140      10.58299027                           
I       22.84223784       3.83009250      10.58299027                           
I       19.40376658       2.12556004      10.58299027                           
Cr      20.63094607       7.94085485       9.03176873                           
Cr      17.19245506       9.92606855       9.03176919                           
I       21.61505846       5.95562795       7.48054615                           
I       18.41963296       8.08120195       7.48054615                           
I       14.98116477       9.78573462       7.48054615                           
I       19.64683379       5.95562973      10.58299027                           
I       19.40374683       9.78573363      10.58299027                           
I       15.96527557       8.08120117      10.58299027                           
Cr      17.19245506      13.89649598       9.03176873                           
Cr      13.75396405      15.88170968       9.03176919                           
I       18.17656745      11.91126909       7.48054615                           
I       14.98114195      14.03684309       7.48054615                           
I       11.54267376      15.74137575       7.48054615                           
I       16.20834278      11.91127086      10.58299027                           
I       15.96525582      15.74137476      10.58299027                           
I       12.52678456      14.03684230      10.58299027                           
Cr      30.94641910       1.98521371       9.03176873                           
Cr      27.50792809       3.97042742       9.03176919                           
I       31.93053149      -0.00001318       7.48054615                           
I       28.73510599       2.12556082       7.48054615                           
I       25.29663780       3.83009349       7.48054615                           
I       29.96230682      -0.00001140      10.58299027                           
I       29.71921987       3.83009250      10.58299027                           
I       26.28074860       2.12556004      10.58299027                           
Cr      27.50792809       7.94085485       9.03176873                           
Cr      24.06943708       9.92606855       9.03176919                           
I       28.49204048       5.95562795       7.48054615                           
I       25.29661498       8.08120195       7.48054615                           
I       21.85814679       9.78573462       7.48054615                           
I       26.52381581       5.95562973      10.58299027                           
I       26.28072885       9.78573363      10.58299027                           
I       22.84225759       8.08120117      10.58299027                           
Cr      24.06943708      13.89649598       9.03176873                           
Cr      20.63094607      15.88170968       9.03176919                           
I       25.05354947      11.91126909       7.48054615                           
I       21.85812397      14.03684309       7.48054615                           
I       18.41965578      15.74137575       7.48054615                           
I       23.08532480      11.91127086      10.58299027                           
I       22.84223784      15.74137476      10.58299027                           
I       19.40376658      14.03684230      10.58299027                           
Cr      37.82340112       1.98521371       9.03176873                           
Cr      34.38491011       3.97042742       9.03176919                           
I       38.80751351      -0.00001318       7.48054615                           
I       35.61208802       2.12556082       7.48054615                           
I       32.17361982       3.83009349       7.48054615                           
I       36.83928884      -0.00001140      10.58299027                           
I       36.59620189       3.83009250      10.58299027                           
I       33.15773062       2.12556004      10.58299027                           
Cr      34.38491011       7.94085485       9.03176873                           
Cr      30.94641910       9.92606855       9.03176919                           
I       35.36902250       5.95562795       7.48054615                           
I       32.17359701       8.08120195       7.48054615                           
I       28.73512881       9.78573462       7.48054615                           
I       33.40079783       5.95562973      10.58299027                           
I       33.15771088       9.78573363      10.58299027                           
I       29.71923961       8.08120117      10.58299027                           
Cr      30.94641910      13.89649598       9.03176873                           
Cr      27.50792809      15.88170968       9.03176919                           
I       31.93053149      11.91126909       7.48054615                           
I       28.73510599      14.03684309       7.48054615                           
I       25.29663780      15.74137575       7.48054615                           
I       29.96230682      11.91127086      10.58299027                           
I       29.71921987      15.74137476      10.58299027                           
I       26.28074860      14.03684230      10.58299027                           
Cr      13.75396404      19.85213711       9.03176873                           
Cr      10.31547303      21.83735082       9.03176919                           
I       14.73807643      17.86691022       7.48054615                           
I       11.54265093      19.99248422       7.48054615                           
I        8.10418274      21.69701689       7.48054615                           
I       12.76985176      17.86691200      10.58299027                           
I       12.52676480      21.69701590      10.58299027                           
I        9.08829354      19.99248344      10.58299027                           
Cr      10.31547303      25.80777825       9.03176873                           
Cr       6.87698202      27.79299195       9.03176919                           
I       11.29958542      23.82255135       7.48054615                           
I        8.10415992      25.94812535       7.48054615                           
I        4.66569173      27.65265802       7.48054615                           
I        9.33136075      23.82255313      10.58299027                           
I        9.08827379      27.65265703      10.58299027                           
I        5.64980253      25.94812457      10.58299027                           
Cr       6.87698202      31.76341938       9.03176873                           
Cr       3.43849101      33.74863308       9.03176919                           
I        7.86109441      29.77819249       7.48054615                           
I        4.66566891      31.90376649       7.48054615                           
I        1.22720072      33.60829915       7.48054615                           
I        5.89286974      29.77819426      10.58299027                           
I        5.64978278      33.60829816      10.58299027                           
I        2.21131152      31.90376570      10.58299027                           
Cr      20.63094606      19.85213711       9.03176873                           
Cr      17.19245505      21.83735082       9.03176919                           
I       21.61505845      17.86691022       7.48054615                           
I       18.41963295      19.99248422       7.48054615                           
I       14.98116476      21.69701689       7.48054615                           
I       19.64683378      17.86691200      10.58299027                           
I       19.40374683      21.69701590      10.58299027                           
I       15.96527556      19.99248344      10.58299027                           
Cr      17.19245505      25.80777825       9.03176873                           
Cr      13.75396404      27.79299195       9.03176919                           
I       18.17656744      23.82255135       7.48054615                           
I       14.98114194      25.94812535       7.48054615                           
I       11.54267375      27.65265802       7.48054615                           
I       16.20834277      23.82255313      10.58299027                           
I       15.96525581      27.65265703      10.58299027                           
I       12.52678455      25.94812457      10.58299027                           
Cr      13.75396404      31.76341938       9.03176873                           
Cr      10.31547303      33.74863308       9.03176919                           
I       14.73807643      29.77819249       7.48054615                           
I       11.54265093      31.90376649       7.48054615                           
I        8.10418274      33.60829915       7.48054615                           
I       12.76985176      29.77819426      10.58299027                           
I       12.52676480      33.60829816      10.58299027                           
I        9.08829354      31.90376570      10.58299027                           
Cr      27.50792808      19.85213711       9.03176873                           
Cr      24.06943707      21.83735082       9.03176919                           
I       28.49204047      17.86691022       7.48054615                           
I       25.29661498      19.99248422       7.48054615                           
I       21.85814678      21.69701689       7.48054615                           
I       26.52381580      17.86691200      10.58299027                           
I       26.28072885      21.69701590      10.58299027                           
I       22.84225758      19.99248344      10.58299027                           
Cr      24.06943707      25.80777825       9.03176873                           
Cr      20.63094606      27.79299195       9.03176919                           
I       25.05354946      23.82255135       7.48054615                           
I       21.85812397      25.94812535       7.48054615                           
I       18.41965577      27.65265802       7.48054615                           
I       23.08532479      23.82255313      10.58299027                           
I       22.84223784      27.65265703      10.58299027                           
I       19.40376657      25.94812457      10.58299027                           
Cr      20.63094606      31.76341938       9.03176873                           
Cr      17.19245505      33.74863308       9.03176919                           
I       21.61505845      29.77819249       7.48054615                           
I       18.41963295      31.90376649       7.48054615                           
I       14.98116476      33.60829915       7.48054615                           
I       19.64683378      29.77819426      10.58299027                           
I       19.40374683      33.60829816      10.58299027                           
I       15.96527556      31.90376570      10.58299027                           
%ENDBLOCK POSITIONS_ABS                                                         
%BLOCK SPECIES                                                                  
Cr Cr 24 -1 15                                                                  
I   I  53 -1 15                                                                 
CrU Cr 24 -1 15                                                                 
%ENDBLOCK SPECIES                                                               
%BLOCK SPECIES_ATOMIC_SET                                                       
Cr  "SOLVE INIT SPIN=3"                                                         
I   "SOLVE"                                                                     
CrU "SOLVE INIT SPIN=3"                                                         
%ENDBLOCK SPECIES_ATOMIC_SET                                                    
%BLOCK HUBBARD                                                                  
CrU 2 0.0 0.0 -10.0 0.00 0.05                                                   
%ENDBLOCK HUBBARD                                                               
%BLOCK SPECIES_LDOS_GROUPS                                                      
Cr                                                                              
I                                                                               
CrU                                                                             
%ENDBLOCK SPECIES_LDOS_GROUPS                                                   
%BLOCK SPECIES_POT                                                              
Cr  "/work/e89/e89/phsmea/U_det/Cr.PBE-paw.abinit"                              
I   "/work/e89/e89/phsmea/U_det/I.PBE-paw.abinit"                               
CrU "/work/e89/e89/phsmea/U_det/Cr.PBE-paw.abinit"                              
%ENDBLOCK SPECIES_POT                                                           

--------------------------------------------------------------------------------
-------------------------------- END INPUT FILE --------------------------------
--------------------------------------------------------------------------------


 
 ESDF WARNING(1): "charge" (esdf_physical) has no units. Assume "e".
<<<<<<<<<<<<<<<<<<<<<<<<<<<<<<<<< Full system >>>>>>>>>>>>>>>>>>>>>>>>>>>>>>>>>>
<<<<<<<<<<<<<<<<<<<<<<<<<<< PAW Dataset information >>>>>>>>>>>>>>>>>>>>>>>>>>>
File: /work/e89/e89/phsmea/U_det/Cr.PBE-paw.abinit; rc = 2.11 bohr; shape type =  2; rshape = 1.80 bohr;
  Atomic number: 24;  ionic charge: 14.000000
    Partial Wave 1: l = 0
    Partial Wave 2: l = 0
    Partial Wave 3: l = 1
    Partial Wave 4: l = 1
    Partial Wave 5: l = 2
    Partial Wave 6: l = 2
  Core charge supplied for Nonlinear Core Corrections
File: /work/e89/e89/phsmea/U_det/I.PBE-paw.abinit; rc = 2.30 bohr; shape type =  2; rshape = 2.11 bohr;
  Atomic number: 53;  ionic charge:  7.000000
    Partial Wave 1: l = 0
    Partial Wave 2: l = 0
    Partial Wave 3: l = 1
    Partial Wave 4: l = 1
  Core charge supplied for Nonlinear Core Corrections
<<<<<<<<<<<<<<<<<<<<<<<<<<<<<<<<<<<<<<< >>>>>>>>>>>>>>>>>>>>>>>>>>>>>>>>>>>>>>>

-------------------------- Atom counting information ---------------------------
Symbol    Natoms    Nngwfs    Nprojs
  Cr        72       936      1296
  I        216       864      1728
.......   ......    ......    ......
Totals:    288      1800      3024
--------------------------------------------------------------------------------

=============================== PSINC grid sizes ===============================
                      Simulation cell:  175 x 175 x  75
                              FFT-box:  175 x 175 x  75
                                  PPD:    5 x   5 x   1
================================================================================

Atom SCF Calculation for Cr : Z (AE atom) =  24 : Z (PS atom) =  14
Config String: 3s2.0 3p6.0 3d5.0 4s1.0 4p0.0 INIT SPIN=3
Orbitals (num,occ):  5     2.00 6.00 5.00 1.00 0.00
Orbitals   (num,l):  5        0    1    2    0    1
Atom SCF converged after  64 iterations to a total energy of    -87.07044631
Adjusting orbital occupancies:
Orbitals (num,spin,occ):  5  1     1.00 3.00 3.50 1.00 0.00
Orbitals   (num,spin,l):  5  1        0    1    2    0    1
Orbitals (num,spin,occ):  5  2     1.00 3.00 1.00 0.50 0.00
Orbitals   (num,spin,l):  5  2        0    1    2    0    1

Atom SCF Calculation for I  : Z (AE atom) =  53 : Z (PS atom) =   7
Config String: 5s2.0 5p5.0
Orbitals (num,occ):  2     2.00 5.00
Orbitals   (num,l):  2        0    1
Atom SCF converged after  28 iterations to a total energy of    -11.61352964

Atom SCF Calculation for Cr : Z (AE atom) =  24 : Z (PS atom) =  14
Config String: 3s2.0 3p6.0 3d5.0 4s1.0 4p0.0 INIT SPIN=3
Orbitals (num,occ):  5     2.00 6.00 5.00 1.00 0.00
Orbitals   (num,l):  5        0    1    2    0    1
Atom SCF converged after  64 iterations to a total energy of    -87.07044631
Adjusting orbital occupancies:
Orbitals (num,spin,occ):  5  1     1.00 3.00 3.50 1.00 0.00
Orbitals   (num,spin,l):  5  1        0    1    2    0    1
Orbitals (num,spin,occ):  5  2     1.00 3.00 1.00 0.50 0.00
Orbitals   (num,spin,l):  5  2        0    1    2    0    1

Atom SCF Calculation for Cr : Z (AE atom) =  24 : Z (PS atom) =  14
Config String: 3s2.0 3p6.0 3d5.0 4s1.0 4p0.0 INIT SPIN=3
Orbitals (num,occ):  5     2.00 6.00 5.00 1.00 0.00
Orbitals   (num,l):  5        0    1    2    0    1
Atom SCF converged after  64 iterations to a total energy of    -87.07044631

Atom SCF Calculation for I  : Z (AE atom) =  53 : Z (PS atom) =   7
Config String: 5s2.0 5p5.0
Orbitals (num,occ):  2     2.00 5.00
Orbitals   (num,l):  2        0    1
Atom SCF converged after  28 iterations to a total energy of    -11.61352964

Atom SCF Calculation for Cr : Z (AE atom) =  24 : Z (PS atom) =  14
Config String: 3s2.0 3p6.0 3d5.0 4s1.0 4p0.0 INIT SPIN=3
Orbitals (num,occ):  5     2.00 6.00 5.00 1.00 0.00
Orbitals   (num,l):  5        0    1    2    0    1
Atom SCF converged after  64 iterations to a total energy of    -87.07044631
Calculating Ewald energy ...             6126.916246 Hartree

============================= Charge Augmentation ==============================
                           Aug box size:   49 x  49 x  45
================================================================================

================================= Core Density =================================
               Core den box size:  125 x 125 x 117
================================================================================
Density kernel initialisation

################################################################################
###################### NGWF self-consistent optimisation #######################
################################################################################
|ITER|    RMS GRADIENT   |     TOTAL ENERGY    |   step   |     Epredicted      
   0     0.00009869513585  -8812.32535258582539   2.349231  -8816.23462612542789        
   1     0.00006752550144  -8816.45442127171009   1.629019  -8817.79327911280234        
   2     0.00004161017543  -8817.82919198322270   1.808402  -8818.37829707107267        
   3     0.00002883677923  -8818.40253340294294   1.957517  -8818.69295376994523        
   4     0.00002026893972  -8818.69423181500315   1.138407  -8818.77413025407986        
   5     0.00001353463579  -8818.77428710795721   1.990693  -8818.83636336925156        
   6     0.00001150412191  -8818.83526932786117   1.752240  -8818.87403670487947        
   7     0.00000899039792  -8818.87259481458386   1.585215  -8818.89364188945729        
   8     0.00000729384639  -8818.89263640624449   0.929208  -8818.90108150942797        
   9     0.00000478625958  -8818.90100413836990   2.197575  -8818.90961039330250        
  10     0.00000446816509  -8818.90927095562620   1.620692  -8818.91462458808019        
  11     0.00000318789223  -8818.91425293174143   2.346023  -8818.91813700062448        
  12     0.00000406490590  -8818.91704353088244   0.953618  -8818.91973540284744        
  13     0.00000215382812  -8818.91970499212403   2.457271  -8818.92162588865358        
  14     0.00000235127951  -8818.92135423493892   2.401161  -8818.92331117610593        
  15     0.00000231280416  -8818.92218990823312   1.820861  -8818.92308738877909        
  16     0.00000276066382  -8818.92206188736782   0.971579  -8818.92332686845111        
  17     0.00000195821605  -8818.92331891341382   1.978718  -8818.92461262626421        
  18     0.00000142081056  -8818.92453460081015   1.516089  -8818.92505150589568        
  19     0.00000087349644  -8818.92495430714553   2.644967  -8818.92526417066256        
  20     0.00000135416429  -8818.92504687043220   0.798928  -8818.92529715220007        
  21     0.00000050897423  -8818.92528300423692   2.563696  -8818.92538931594390        
  22     0.00000074572299  -8818.92530739433641   1.231053  -8818.92542434719326        
  23     0.00000052798082  -8818.92540474200905   2.064189  -8818.92548309354970        
  24     0.00000066607980  -8818.92543540495535   0.100000  -8818.92583667191138        

================================================================================
           ---------------- ENERGY COMPONENTS (Eh) ----------------
           | Kinetic                    :     1819.33997289778813 |
           | Core Hartree               :   -28372.50080737713140 |
           | CoreHart (non-coul chg cor):        0.00000000000000
           | Hartree                    :    13503.94618504189570 |
           | Exchange-correlation       :    -1248.29625326423570 |
           | Hubbard DFT+U correction   :       -0.00268720170058 |
           | Ewald                      :     6126.91624599049464 |
           | Dij0                       :     -555.69397436738586 |
           | Dijhartree                 :      248.94178259524077 |
           | Exc [AE core]              :   -42415.11649132220190 |
           | Exc DC [AE core]           :    -1638.59003939771264 |
           | Exc [PS core]              :    -1032.30065040651448 |
           | Exc DC [PS core]           :     -982.37616003737423 |
           | Exc [Core]                 :   -41041.23993575423080 |
           | Total [Sphere]             :     -648.32809693360468 |
           | Total                      :    -8818.92544084649307 |
           --------------------------------------------------------
           Integrated compensation chrg.:      189.13656273447987
           Integrated density           :     2519.99993595137539
           Integrated spin density      :      215.99995947967739
           Integrated |spin density|    :      164.24926964445621
================================================================================

  25     0.00000062004450  -8818.92544084649489  <-- CG                                 

################################################################################
DFT+U information on atom      1 of Hubbard species CrU 
################################################################################
Occupancy matrix of Hubbard site      1 and spin      1 is 
  m_l =   -2          -1           0           1           2
  0.89079992  0.14850401  0.00000140  0.00000059  0.00000279
  0.14854089  0.77443301 -0.00000226  0.00000324 -0.00000231
  0.00000001 -0.00000020  0.99119800  0.00000011  0.00000008
  0.00000178  0.00000319 -0.00000103  0.77442996 -0.14853866
  0.00000273 -0.00000107 -0.00000069 -0.14850316  0.89080260
WARNING: DFT+U ENERGY of Hubbard site      1 and spin      1 is negative.
################################################################################
Occupancy matrix of Hubbard site      1 and spin      2 is 
  m_l =   -2          -1           0           1           2
  0.25762660 -0.13226857 -0.00000079  0.00000238  0.00000124
 -0.13230014  0.36215119  0.00000283  0.00000228 -0.00000108
  0.00000060  0.00000099  0.15720944  0.00000052 -0.00000031
  0.00000134  0.00000233  0.00000153  0.36214840  0.13230176
  0.00000129 -0.00000217  0.00000046  0.13227139  0.25762871
################################################################################
Total occupancy of Hubbard site      1 is         5.71842783 e
Local magnetic moment of Hubbard site      1 is   2.92489916 mu_B
DFT+U energy of Hubbard site      1 is           -0.00268720 Ha
################################################################################

##### For calculating the Hubbard U and Hund J #################################
DFT+U information on Hubbard site      1 of species CrU  and spin      1
The average Hxc+local potential is            -19.02245819 eV.
The average Hubbard potential is               -0.02500000 eV.
The average non-local PAW contribution is     -10.95573872 eV.
################################################################################
DFT+U information on Hubbard site      1 of species CrU  and spin      2
The average Hxc+local potential is            -17.94451874 eV.
The average Hubbard potential is                0.02500000 eV.
The average non-local PAW contribution is      -9.49830151 eV.
################################################################################

======================== Writing density and potential =========================
Writing "U_0_0.05_ps_density.cube" ... done
Writing "U_0_0.05_ps_spindensity.cube" ... done
Writing "U_0_0.05_ae_density.cube" ... done
Writing "U_0_0.05_ae_spindensity.cube" ... done
Writing "U_0_0.05_potential.cube" ... done
Writing "U_0_0.05_electrostatic_potential.cube" ... done
================================================================================

    Mulliken Atomic Populations
    ---------------------------
Species  Ion    Total   Charge (e)    Spin (hbar)
=================================================
  Cr     1      13.843      0.157      1.68
  Cr     2      13.841      0.159      1.68
  I      3       7.053     -0.053     -0.06
  I      4       7.053     -0.053     -0.06
  I      5       7.053     -0.053     -0.06
  I      6       7.053     -0.053     -0.06
  I      7       7.053     -0.053     -0.06
  I      8       7.053     -0.053     -0.06
  Cr     9      13.843      0.157      1.68
  Cr    10      13.841      0.159      1.68
  I     11       7.053     -0.053     -0.06
  I     12       7.053     -0.053     -0.06
  I     13       7.053     -0.053     -0.06
  I     14       7.053     -0.053     -0.06
  I     15       7.053     -0.053     -0.06
  I     16       7.053     -0.053     -0.06
  Cr    17      13.843      0.157      1.68
  Cr    18      13.842      0.158      1.68
  I     19       7.053     -0.053     -0.06
  I     20       7.053     -0.053     -0.06
  I     21       7.053     -0.053     -0.06
  I     22       7.053     -0.053     -0.06
  I     23       7.053     -0.053     -0.06
  I     24       7.053     -0.053     -0.06
  Cr    25      13.843      0.157      1.68
  Cr    26      13.842      0.158      1.68
  I     27       7.053     -0.053     -0.06
  I     28       7.053     -0.053     -0.06
  I     29       7.053     -0.053     -0.06
  I     30       7.053     -0.053     -0.06
  I     31       7.053     -0.053     -0.06
  I     32       7.053     -0.053     -0.06
  Cr    33      13.843      0.157      1.68
  Cr    34      13.841      0.159      1.68
  I     35       7.053     -0.053     -0.06
  I     36       7.053     -0.053     -0.06
  I     37       7.053     -0.053     -0.06
  I     38       7.053     -0.053     -0.06
  I     39       7.053     -0.053     -0.06
  I     40       7.053     -0.053     -0.06
  Cr    41      13.842      0.158      1.68
  Cr    42      13.841      0.159      1.68
  I     43       7.053     -0.053     -0.06
  I     44       7.053     -0.053     -0.06
  I     45       7.053     -0.053     -0.06
  I     46       7.053     -0.053     -0.06
  I     47       7.053     -0.053     -0.06
  I     48       7.053     -0.053     -0.06
  Cr    49      13.842      0.158      1.68
  Cr    50      13.842      0.158      1.68
  I     51       7.053     -0.053     -0.06
  I     52       7.053     -0.053     -0.06
  I     53       7.053     -0.053     -0.06
  I     54       7.053     -0.053     -0.06
  I     55       7.053     -0.053     -0.06
  I     56       7.053     -0.053     -0.06
  Cr    57      13.842      0.158      1.68
  Cr    58      13.841      0.159      1.68
  I     59       7.053     -0.053     -0.06
  I     60       7.053     -0.053     -0.06
  I     61       7.053     -0.053     -0.06
  I     62       7.053     -0.053     -0.06
  I     63       7.053     -0.053     -0.06
  I     64       7.053     -0.053     -0.06
  Cr    65      13.842      0.158      1.68
  Cr    66      13.841      0.159      1.68
  I     67       7.053     -0.053     -0.06
  I     68       7.053     -0.053     -0.06
  I     69       7.053     -0.053     -0.06
  I     70       7.053     -0.053     -0.06
  I     71       7.053     -0.053     -0.06
  I     72       7.053     -0.053     -0.06
  Cr    73      13.841      0.159      1.68
  Cr    74      13.842      0.158      1.68
  I     75       7.053     -0.053     -0.06
  I     76       7.053     -0.053     -0.06
  I     77       7.053     -0.053     -0.06
  I     78       7.053     -0.053     -0.06
  I     79       7.053     -0.053     -0.06
  I     80       7.053     -0.053     -0.06
  Cr    81      13.843      0.157      1.68
  Cr    82      13.841      0.159      1.68
  I     83       7.053     -0.053     -0.06
  I     84       7.053     -0.053     -0.06
  I     85       7.053     -0.053     -0.06
  I     86       7.053     -0.053     -0.06
  I     87       7.053     -0.053     -0.06
  I     88       7.053     -0.053     -0.06
  Cr    89      13.843      0.157      1.68
  Cr    90      13.841      0.159      1.68
  I     91       7.053     -0.053     -0.06
  I     92       7.053     -0.053     -0.06
  I     93       7.053     -0.053     -0.06
  I     94       7.053     -0.053     -0.06
  I     95       7.053     -0.053     -0.06
  I     96       7.053     -0.053     -0.06
  Cr    97      13.842      0.158      1.68
  Cr    98      13.842      0.158      1.68
  I     99       7.053     -0.053     -0.06
  I    100       7.053     -0.053     -0.06
  I    101       7.053     -0.053     -0.06
  I    102       7.053     -0.053     -0.06
  I    103       7.053     -0.053     -0.06
  I    104       7.053     -0.053     -0.06
  Cr   105      13.842      0.158      1.68
  Cr   106      13.841      0.159      1.68
  I    107       7.053     -0.053     -0.06
  I    108       7.053     -0.053     -0.06
  I    109       7.053     -0.053     -0.06
  I    110       7.053     -0.053     -0.06
  I    111       7.053     -0.053     -0.06
  I    112       7.053     -0.053     -0.06
  Cr   113      13.843      0.157      1.68
  Cr   114      13.841      0.159      1.68
  I    115       7.053     -0.053     -0.06
  I    116       7.053     -0.053     -0.06
  I    117       7.053     -0.053     -0.06
  I    118       7.053     -0.053     -0.06
  I    119       7.053     -0.053     -0.06
  I    120       7.053     -0.053     -0.06
  Cr   121      13.840      0.160      1.69
  Cr   122      13.840      0.160      1.68
  I    123       7.053     -0.053     -0.06
  I    124       7.053     -0.053     -0.06
  I    125       7.053     -0.053     -0.06
  I    126       7.053     -0.053     -0.06
  I    127       7.053     -0.053     -0.06
  I    128       7.053     -0.053     -0.06
  Cr   129      13.842      0.158      1.68
  Cr   130      13.842      0.158      1.68
  I    131       7.053     -0.053     -0.06
  I    132       7.053     -0.053     -0.06
  I    133       7.053     -0.053     -0.06
  I    134       7.053     -0.053     -0.06
  I    135       7.053     -0.053     -0.06
  I    136       7.053     -0.053     -0.06
  Cr   137      13.841      0.159      1.68
  Cr   138      13.842      0.158      1.68
  I    139       7.053     -0.053     -0.06
  I    140       7.053     -0.053     -0.06
  I    141       7.053     -0.053     -0.06
  I    142       7.053     -0.053     -0.06
  I    143       7.053     -0.053     -0.06
  I    144       7.053     -0.053     -0.06
  Cr   145      13.842      0.158      1.68
  Cr   146      13.841      0.159      1.68
  I    147       7.053     -0.053     -0.06
  I    148       7.053     -0.053     -0.06
  I    149       7.053     -0.053     -0.06
  I    150       7.053     -0.053     -0.06
  I    151       7.053     -0.053     -0.06
  I    152       7.053     -0.053     -0.06
  Cr   153      13.843      0.157      1.68
  Cr   154      13.841      0.159      1.68
  I    155       7.053     -0.053     -0.06
  I    156       7.053     -0.053     -0.06
  I    157       7.053     -0.053     -0.06
  I    158       7.053     -0.053     -0.06
  I    159       7.053     -0.053     -0.06
  I    160       7.053     -0.053     -0.06
  Cr   161      13.843      0.157      1.68
  Cr   162      13.841      0.159      1.68
  I    163       7.053     -0.053     -0.06
  I    164       7.053     -0.053     -0.06
  I    165       7.053     -0.053     -0.06
  I    166       7.053     -0.053     -0.06
  I    167       7.053     -0.053     -0.06
  I    168       7.053     -0.053     -0.06
  Cr   169      13.843      0.157      1.68
  Cr   170      13.842      0.158      1.68
  I    171       7.053     -0.053     -0.06
  I    172       7.053     -0.053     -0.06
  I    173       7.053     -0.053     -0.06
  I    174       7.053     -0.053     -0.06
  I    175       7.053     -0.053     -0.06
  I    176       7.053     -0.053     -0.06
  Cr   177      13.842      0.158      1.68
  Cr   178      13.841      0.159      1.68
  I    179       7.053     -0.053     -0.06
  I    180       7.053     -0.053     -0.06
  I    181       7.053     -0.053     -0.06
  I    182       7.053     -0.053     -0.06
  I    183       7.053     -0.053     -0.06
  I    184       7.053     -0.053     -0.06
  Cr   185      13.843      0.157      1.68
  Cr   186      13.841      0.159      1.68
  I    187       7.053     -0.053     -0.06
  I    188       7.053     -0.053     -0.06
  I    189       7.053     -0.053     -0.06
  I    190       7.053     -0.053     -0.06
  I    191       7.053     -0.053     -0.06
  I    192       7.053     -0.053     -0.06
  Cr   193      13.843      0.157      1.68
  Cr   194      13.842      0.158      1.68
  I    195       7.053     -0.053     -0.06
  I    196       7.053     -0.053     -0.06
  I    197       7.053     -0.053     -0.06
  I    198       7.053     -0.053     -0.06
  I    199       7.053     -0.053     -0.06
  I    200       7.053     -0.053     -0.06
  Cr   201      13.843      0.157      1.68
  Cr   202      13.842      0.158      1.68
  I    203       7.053     -0.053     -0.06
  I    204       7.053     -0.053     -0.06
  I    205       7.053     -0.053     -0.06
  I    206       7.053     -0.053     -0.06
  I    207       7.053     -0.053     -0.06
  I    208       7.053     -0.053     -0.06
  Cr   209      13.842      0.158      1.68
  Cr   210      13.841      0.159      1.68
  I    211       7.053     -0.053     -0.06
  I    212       7.053     -0.053     -0.06
  I    213       7.053     -0.053     -0.06
  I    214       7.053     -0.053     -0.06
  I    215       7.053     -0.053     -0.06
  I    216       7.053     -0.053     -0.06
  Cr   217      13.842      0.158      1.68
  Cr   218      13.841      0.159      1.68
  I    219       7.053     -0.053     -0.06
  I    220       7.053     -0.053     -0.06
  I    221       7.053     -0.053     -0.06
  I    222       7.053     -0.053     -0.06
  I    223       7.053     -0.053     -0.06
  I    224       7.053     -0.053     -0.06
  Cr   225      13.842      0.158      1.68
  Cr   226      13.841      0.159      1.68
  I    227       7.053     -0.053     -0.06
  I    228       7.053     -0.053     -0.06
  I    229       7.053     -0.053     -0.06
  I    230       7.053     -0.053     -0.06
  I    231       7.053     -0.053     -0.06
  I    232       7.053     -0.053     -0.06
  Cr   233      13.843      0.157      1.68
  Cr   234      13.842      0.158      1.68
  I    235       7.053     -0.053     -0.06
  I    236       7.053     -0.053     -0.06
  I    237       7.053     -0.053     -0.06
  I    238       7.053     -0.053     -0.06
  I    239       7.053     -0.053     -0.06
  I    240       7.053     -0.053     -0.06
  Cr   241      13.842      0.158      1.68
  Cr   242      13.842      0.158      1.68
  I    243       7.053     -0.053     -0.06
  I    244       7.053     -0.053     -0.06
  I    245       7.053     -0.053     -0.06
  I    246       7.053     -0.053     -0.06
  I    247       7.053     -0.053     -0.06
  I    248       7.053     -0.053     -0.06
  Cr   249      13.843      0.157      1.68
  Cr   250      13.841      0.159      1.68
  I    251       7.053     -0.053     -0.06
  I    252       7.053     -0.053     -0.06
  I    253       7.053     -0.053     -0.06
  I    254       7.053     -0.053     -0.06
  I    255       7.053     -0.053     -0.06
  I    256       7.053     -0.053     -0.06
  Cr   257      13.843      0.157      1.68
  Cr   258      13.841      0.159      1.68
  I    259       7.053     -0.053     -0.06
  I    260       7.053     -0.053     -0.06
  I    261       7.053     -0.053     -0.06
  I    262       7.053     -0.053     -0.06
  I    263       7.053     -0.053     -0.06
  I    264       7.053     -0.053     -0.06
  Cr   265      13.842      0.158      1.68
  Cr   266      13.842      0.158      1.68
  I    267       7.053     -0.053     -0.06
  I    268       7.053     -0.053     -0.06
  I    269       7.053     -0.053     -0.06
  I    270       7.053     -0.053     -0.06
  I    271       7.053     -0.053     -0.06
  I    272       7.053     -0.053     -0.06
  Cr   273      13.843      0.157      1.68
  Cr   274      13.842      0.158      1.68
  I    275       7.053     -0.053     -0.06
  I    276       7.053     -0.053     -0.06
  I    277       7.053     -0.053     -0.06
  I    278       7.053     -0.053     -0.06
  I    279       7.053     -0.053     -0.06
  I    280       7.053     -0.053     -0.06
  Cr   281      13.843      0.157      1.68
  Cr   282      13.841      0.159      1.68
  I    283       7.053     -0.053     -0.06
  I    284       7.053     -0.053     -0.06
  I    285       7.053     -0.053     -0.06
  I    286       7.053     -0.053     -0.06
  I    287       7.053     -0.053     -0.06
  I    288       7.053     -0.053     -0.06
=================================================

        Bond         Population      Spin       Length (bohr)
=============================================================
 Cr  186 -- I   191        0.31     -0.03      4.86412
 Cr  178 -- I   183        0.31     -0.03      4.86412
 Cr  154 -- I   159        0.31     -0.03      4.86412
 Cr  162 -- I   167        0.31     -0.03      4.86412
 Cr  146 -- I   151        0.31     -0.03      4.86412
 Cr   82 -- I    87        0.31     -0.03      4.86412
 Cr  250 -- I   255        0.31     -0.03      4.86412
 Cr  226 -- I   231        0.31     -0.03      4.86412
 Cr   74 -- I    79        0.31     -0.03      4.86412
 Cr   10 -- I    15        0.31     -0.03      4.86412
 Cr  106 -- I   111        0.31     -0.03      4.86412
 Cr   34 -- I    39        0.31     -0.03      4.86412
 Cr   42 -- I    47        0.31     -0.03      4.86412
 Cr   18 -- I    23        0.31     -0.03      4.86412
 Cr  114 -- I   119        0.31     -0.03      4.86412
 Cr    2 -- I     7        0.31     -0.03      4.86412
 Cr   90 -- I    95        0.31     -0.03      4.86412
 Cr  218 -- I   223        0.31     -0.03      4.86412
 Cr  258 -- I   263        0.31     -0.03      4.86412
 Cr  234 -- I   239        0.31     -0.03      4.86412
 Cr  274 -- I   279        0.31     -0.03      4.86412
 Cr  130 -- I   135        0.31     -0.03      4.86412
 Cr   98 -- I   103        0.31     -0.03      4.86412
 Cr   66 -- I    71        0.31     -0.03      4.86412
 Cr  242 -- I   247        0.31     -0.03      4.86412
 Cr   50 -- I    55        0.31     -0.03      4.86412
 Cr   26 -- I    31        0.31     -0.03      4.86412
 Cr   58 -- I    63        0.31     -0.03      4.86412
 Cr  210 -- I   215        0.31     -0.03      4.86412
 Cr  170 -- I   175        0.31     -0.03      4.86412
 Cr  122 -- I   127        0.31     -0.03      4.86412
 Cr  266 -- I   271        0.31     -0.03      4.86412
 Cr  282 -- I   287        0.31     -0.03      4.86412
 Cr  138 -- I   143        0.31     -0.03      4.86412
 Cr  202 -- I   207        0.31     -0.03      4.86412
 Cr  194 -- I   199        0.31     -0.03      4.86412
 Cr  210 -- I   212        0.31     -0.03      4.86413
 Cr  138 -- I   140        0.31     -0.03      4.86413
 Cr   90 -- I    92        0.31     -0.03      4.86413
 Cr  258 -- I   260        0.31     -0.03      4.86413
 Cr  234 -- I   236        0.31     -0.03      4.86413
 Cr   42 -- I    44        0.31     -0.03      4.86413
 Cr   66 -- I    68        0.31     -0.03      4.86413
 Cr  114 -- I   116        0.31     -0.03      4.86413
 Cr   18 -- I    20        0.31     -0.03      4.86413
 Cr  162 -- I   164        0.31     -0.03      4.86413
 Cr  282 -- I   284        0.31     -0.03      4.86413
 Cr  186 -- I   188        0.31     -0.03      4.86413
 Cr  194 -- I   196        0.31     -0.03      4.86413
 Cr  202 -- I   204        0.31     -0.03      4.86413
 Cr   50 -- I    52        0.31     -0.03      4.86413
 Cr   58 -- I    60        0.31     -0.03      4.86413
 Cr  122 -- I   124        0.31     -0.03      4.86413
 Cr  266 -- I   268        0.31     -0.03      4.86413
 Cr  274 -- I   276        0.31     -0.03      4.86413
 Cr  130 -- I   132        0.31     -0.03      4.86413
 Cr  154 -- I   156        0.31     -0.03      4.86413
 Cr  170 -- I   172        0.31     -0.03      4.86413
 Cr   34 -- I    36        0.31     -0.03      4.86413
 Cr   10 -- I    12        0.31     -0.03      4.86413
 Cr  146 -- I   148        0.31     -0.03      4.86413
 Cr    2 -- I     4        0.31     -0.03      4.86413
 Cr   26 -- I    28        0.31     -0.03      4.86413
 Cr  242 -- I   244        0.31     -0.03      4.86413
 Cr  218 -- I   220        0.31     -0.03      4.86413
 Cr  178 -- I   180        0.31     -0.03      4.86413
 Cr   74 -- I    76        0.31     -0.03      4.86413
 Cr   98 -- I   100        0.31     -0.03      4.86413
 Cr  250 -- I   252        0.31     -0.03      4.86413
 Cr  226 -- I   228        0.31     -0.03      4.86413
 Cr  106 -- I   108        0.31     -0.03      4.86413
 Cr   82 -- I    84        0.31     -0.03      4.86413
 Cr  153 -- I   159        0.31     -0.03      4.86414
 Cr  177 -- I   183        0.31     -0.03      4.86414
 Cr   41 -- I    47        0.31     -0.03      4.86414
 Cr  161 -- I   167        0.31     -0.03      4.86414
 Cr    9 -- I    15        0.31     -0.03      4.86414
 Cr  185 -- I   191        0.31     -0.03      4.86414
 Cr   33 -- I    39        0.31     -0.03      4.86414
 Cr   17 -- I    23        0.31     -0.03      4.86414
 Cr  113 -- I   119        0.31     -0.03      4.86414
 Cr   89 -- I    95        0.31     -0.03      4.86414
 Cr  233 -- I   239        0.31     -0.03      4.86414
 Cr  257 -- I   263        0.31     -0.03      4.86414
 Cr  249 -- I   255        0.31     -0.03      4.86414
 Cr  225 -- I   231        0.31     -0.03      4.86414
 Cr   81 -- I    87        0.31     -0.03      4.86414
 Cr  105 -- I   111        0.31     -0.03      4.86414
 Cr  209 -- I   215        0.31     -0.03      4.86414
 Cr   65 -- I    71        0.31     -0.03      4.86414
 Cr   57 -- I    63        0.31     -0.03      4.86414
 Cr  137 -- I   143        0.31     -0.03      4.86414
 Cr  201 -- I   207        0.31     -0.03      4.86414
 Cr  281 -- I   287        0.31     -0.03      4.86414
 Cr  129 -- I   135        0.31     -0.03      4.86414
 Cr  273 -- I   279        0.31     -0.03      4.86414
 Cr   73 -- I    79        0.31     -0.03      4.86414
 Cr  217 -- I   223        0.31     -0.03      4.86414
 Cr  145 -- I   151        0.31     -0.03      4.86414
 Cr    1 -- I     7        0.31     -0.03      4.86414
 Cr  121 -- I   127        0.31     -0.03      4.86414
 Cr  241 -- I   247        0.31     -0.03      4.86414
 Cr   97 -- I   103        0.31     -0.03      4.86414
 Cr  265 -- I   271        0.31     -0.03      4.86414
 Cr   49 -- I    55        0.31     -0.03      4.86414
 Cr   25 -- I    31        0.31     -0.03      4.86414
 Cr  169 -- I   175        0.31     -0.03      4.86414
 Cr  193 -- I   199        0.31     -0.03      4.86414
 Cr  193 -- I   196        0.31     -0.03      4.86414
 Cr   49 -- I    52        0.31     -0.03      4.86414
 Cr  265 -- I   268        0.31     -0.03      4.86414
 Cr  121 -- I   124        0.31     -0.03      4.86414
 Cr  257 -- I   260        0.31     -0.03      4.86414
 Cr  169 -- I   172        0.31     -0.03      4.86414
 Cr  145 -- I   148        0.31     -0.03      4.86414
 Cr   65 -- I    68        0.31     -0.03      4.86414
 Cr  137 -- I   140        0.31     -0.03      4.86414
 Cr  185 -- I   188        0.31     -0.03      4.86414
 Cr  281 -- I   284        0.31     -0.03      4.86414
 Cr  209 -- I   212        0.31     -0.03      4.86414
 Cr  161 -- I   164        0.31     -0.03      4.86414
 Cr    1 -- I     4        0.31     -0.03      4.86414
 Cr   41 -- I    44        0.31     -0.03      4.86414
 Cr  113 -- I   116        0.31     -0.03      4.86414
 Cr  241 -- I   244        0.31     -0.03      4.86414
 Cr   25 -- I    28        0.31     -0.03      4.86414
 Cr   17 -- I    20        0.31     -0.03      4.86414
 Cr   89 -- I    92        0.31     -0.03      4.86414
 Cr  217 -- I   220        0.31     -0.03      4.86414
 Cr  233 -- I   236        0.31     -0.03      4.86414
 Cr   97 -- I   100        0.31     -0.03      4.86414
 Cr   73 -- I    76        0.31     -0.03      4.86414
 Cr  273 -- I   276        0.31     -0.03      4.86414
 Cr  201 -- I   204        0.31     -0.03      4.86414
 Cr  129 -- I   132        0.31     -0.03      4.86414
 Cr   57 -- I    60        0.31     -0.03      4.86414
 Cr   81 -- I    84        0.31     -0.03      4.86414
 Cr  105 -- I   108        0.31     -0.03      4.86414
 Cr  249 -- I   252        0.31     -0.03      4.86414
 Cr  225 -- I   228        0.31     -0.03      4.86414
 Cr  153 -- I   156        0.31     -0.03      4.86414
 Cr   33 -- I    36        0.31     -0.03      4.86414
 Cr  177 -- I   180        0.31     -0.03      4.86414
 Cr    9 -- I    12        0.31     -0.03      4.86414
 I    27 -- Cr  114        0.31     -0.03      5.11128
 I     3 -- Cr   90        0.31     -0.03      5.11128
 I    51 -- Cr  138        0.31     -0.03      5.11128
 Cr  266 -- I   275        0.31     -0.03      5.11128
 Cr  122 -- I   131        0.31     -0.03      5.11128
 Cr   74 -- I    83        0.31     -0.03      5.11128
 Cr   98 -- I   107        0.31     -0.03      5.11128
 Cr  242 -- I   251        0.31     -0.03      5.11128
 Cr  218 -- I   227        0.31     -0.03      5.11128
 Cr  146 -- I   155        0.31     -0.03      5.11128
 Cr  170 -- I   179        0.31     -0.03      5.11128
 Cr   50 -- I    59        0.31     -0.03      5.11128
 Cr    2 -- I    11        0.31     -0.03      5.11128
 Cr   26 -- I    35        0.31     -0.03      5.11128
 Cr  194 -- I   203        0.31     -0.03      5.11128
 I   171 -- Cr  258        0.31     -0.03      5.11128
 I   195 -- Cr  282        0.31     -0.03      5.11128
 I   147 -- Cr  234        0.31     -0.03      5.11128
 Cr  194 -- I   197        0.31     -0.03      5.11128
 Cr  210 -- I   213        0.31     -0.03      5.11128
 Cr  250 -- I   253        0.31     -0.03      5.11128
 Cr  242 -- I   245        0.31     -0.03      5.11128
 Cr   50 -- I    53        0.31     -0.03      5.11128
 Cr  234 -- I   237        0.31     -0.03      5.11128
 Cr  226 -- I   229        0.31     -0.03      5.11128
 Cr  218 -- I   221        0.31     -0.03      5.11128
 Cr   26 -- I    29        0.31     -0.03      5.11128
 Cr  154 -- I   157        0.31     -0.03      5.11128
 Cr  146 -- I   149        0.31     -0.03      5.11128
 Cr  106 -- I   109        0.31     -0.03      5.11128
 Cr  282 -- I   285        0.31     -0.03      5.11128
 Cr    2 -- I     5        0.31     -0.03      5.11128
 Cr  122 -- I   125        0.31     -0.03      5.11128
 Cr  130 -- I   133        0.31     -0.03      5.11128
 Cr   10 -- I    13        0.31     -0.03      5.11128
 Cr   58 -- I    61        0.31     -0.03      5.11128
 Cr   42 -- I    45        0.31     -0.03      5.11128
 Cr   82 -- I    85        0.31     -0.03      5.11128
 Cr   34 -- I    37        0.31     -0.03      5.11128
 Cr   18 -- I    21        0.31     -0.03      5.11128
 Cr  138 -- I   141        0.31     -0.03      5.11128
 Cr   98 -- I   101        0.31     -0.03      5.11128
 Cr   90 -- I    93        0.31     -0.03      5.11128
 Cr  114 -- I   117        0.31     -0.03      5.11128
 Cr   66 -- I    69        0.31     -0.03      5.11128
 Cr  202 -- I   205        0.31     -0.03      5.11128
 Cr  170 -- I   173        0.31     -0.03      5.11128
 Cr   74 -- I    77        0.31     -0.03      5.11128
 Cr  274 -- I   277        0.31     -0.03      5.11128
 Cr  162 -- I   165        0.31     -0.03      5.11128
 Cr  266 -- I   269        0.31     -0.03      5.11128
 Cr  178 -- I   181        0.31     -0.03      5.11128
 Cr  258 -- I   261        0.31     -0.03      5.11128
 Cr  186 -- I   189        0.31     -0.03      5.11128
 Cr  186 -- I   243        0.31     -0.03      5.11128
 Cr  210 -- I   267        0.31     -0.03      5.11128
 Cr  162 -- I   219        0.31     -0.03      5.11128
 Cr  274 -- I   283        0.31     -0.03      5.11128
 Cr  130 -- I   139        0.31     -0.03      5.11128
 Cr   82 -- I    91        0.31     -0.03      5.11128
 Cr  106 -- I   115        0.31     -0.03      5.11128
 Cr   34 -- I    43        0.31     -0.03      5.11128
 Cr   58 -- I    67        0.31     -0.03      5.11128
 Cr  226 -- I   235        0.31     -0.03      5.11128
 Cr  202 -- I   211        0.31     -0.03      5.11128
 Cr  178 -- I   187        0.31     -0.03      5.11128
 Cr   10 -- I    19        0.31     -0.03      5.11128
 Cr  154 -- I   163        0.31     -0.03      5.11128
 Cr  250 -- I   259        0.31     -0.03      5.11128
 Cr   18 -- I    75        0.31     -0.03      5.11128
 Cr   66 -- I   123        0.31     -0.03      5.11128
 Cr   42 -- I    99        0.31     -0.03      5.11128
 Cr  234 -- I   240        0.31     -0.03      5.11128
 Cr  138 -- I   144        0.31     -0.03      5.11128
 Cr  282 -- I   288        0.31     -0.03      5.11128
 Cr  258 -- I   264        0.31     -0.03      5.11128
 Cr  114 -- I   120        0.31     -0.03      5.11128
 Cr   90 -- I    96        0.31     -0.03      5.11128
 Cr  242 -- I   248        0.31     -0.03      5.11128
 Cr  122 -- I   128        0.31     -0.03      5.11128
 Cr  218 -- I   224        0.31     -0.03      5.11128
 Cr  194 -- I   200        0.31     -0.03      5.11128
 Cr   98 -- I   104        0.31     -0.03      5.11128
 Cr   74 -- I    80        0.31     -0.03      5.11128
 Cr  210 -- I   216        0.31     -0.03      5.11128
 Cr   42 -- I    48        0.31     -0.03      5.11128
 Cr   66 -- I    72        0.31     -0.03      5.11128
 Cr   50 -- I    56        0.31     -0.03      5.11128
 Cr   18 -- I    24        0.31     -0.03      5.11128
 Cr   26 -- I    32        0.31     -0.03      5.11128
 Cr   10 -- I    16        0.31     -0.03      5.11128
 Cr  250 -- I   256        0.31     -0.03      5.11128
 Cr    2 -- I     8        0.31     -0.03      5.11128
 Cr   34 -- I    40        0.31     -0.03      5.11128
 Cr  146 -- I   152        0.31     -0.03      5.11128
 Cr  266 -- I   272        0.31     -0.03      5.11128
 Cr  154 -- I   160        0.31     -0.03      5.11128
 Cr   58 -- I    64        0.31     -0.03      5.11128
 Cr  202 -- I   208        0.31     -0.03      5.11128
 Cr  162 -- I   168        0.31     -0.03      5.11128
 Cr  170 -- I   176        0.31     -0.03      5.11128
 Cr  178 -- I   184        0.31     -0.03      5.11128
 Cr  130 -- I   136        0.31     -0.03      5.11128
 Cr  226 -- I   232        0.31     -0.03      5.11128
 Cr  106 -- I   112        0.31     -0.03      5.11128
 Cr   82 -- I    88        0.31     -0.03      5.11128
 Cr  186 -- I   192        0.31     -0.03      5.11128
 Cr  274 -- I   280        0.31     -0.03      5.11128
 Cr  130 -- I   142        0.31     -0.03      5.11128
 Cr  274 -- I   286        0.31     -0.03      5.11128
 Cr  250 -- I   262        0.31     -0.03      5.11128
 Cr  226 -- I   238        0.31     -0.03      5.11128
 Cr  106 -- I   118        0.31     -0.03      5.11128
 Cr   82 -- I    94        0.31     -0.03      5.11128
 Cr  266 -- I   278        0.31     -0.03      5.11128
 Cr  242 -- I   254        0.31     -0.03      5.11128
 Cr  218 -- I   230        0.31     -0.03      5.11128
 Cr  194 -- I   206        0.31     -0.03      5.11128
 Cr  122 -- I   134        0.31     -0.03      5.11128
 Cr   34 -- I    46        0.31     -0.03      5.11128
 Cr  154 -- I   166        0.31     -0.03      5.11128
 Cr   26 -- I    38        0.31     -0.03      5.11128
 Cr   10 -- I    22        0.31     -0.03      5.11128
 Cr   58 -- I    70        0.31     -0.03      5.11128
 Cr   50 -- I    62        0.31     -0.03      5.11128
 Cr    2 -- I    14        0.31     -0.03      5.11128
 Cr  170 -- I   182        0.31     -0.03      5.11128
 Cr   74 -- I    86        0.31     -0.03      5.11128
 Cr   98 -- I   110        0.31     -0.03      5.11128
 Cr  146 -- I   158        0.31     -0.03      5.11128
 Cr  202 -- I   214        0.31     -0.03      5.11128
 Cr  178 -- I   190        0.31     -0.03      5.11128
 I   198 -- Cr  282        0.31     -0.03      5.11128
 I   150 -- Cr  234        0.31     -0.03      5.11128
 I   174 -- Cr  258        0.31     -0.03      5.11128
 I    54 -- Cr  138        0.31     -0.03      5.11128
 I     6 -- Cr   90        0.31     -0.03      5.11128
 I    30 -- Cr  114        0.31     -0.03      5.11128
 Cr   18 -- I    78        0.31     -0.03      5.11128
 Cr   42 -- I   102        0.31     -0.03      5.11128
 Cr   66 -- I   126        0.31     -0.03      5.11128
 Cr  210 -- I   270        0.31     -0.03      5.11128
 Cr  162 -- I   222        0.31     -0.03      5.11128
 Cr  186 -- I   246        0.31     -0.03      5.11128
 Cr  265 -- I   270        0.31     -0.03      5.11131
 Cr  241 -- I   246        0.31     -0.03      5.11131
 Cr  217 -- I   222        0.31     -0.03      5.11131
 Cr   97 -- I   102        0.31     -0.03      5.11131
 Cr   73 -- I    78        0.31     -0.03      5.11131
 Cr  121 -- I   126        0.31     -0.03      5.11131
 Cr  249 -- I   280        0.31     -0.03      5.11131
 Cr  185 -- I   216        0.31     -0.03      5.11131
 Cr  161 -- I   192        0.31     -0.03      5.11131
 Cr  153 -- I   184        0.31     -0.03      5.11131
 Cr  177 -- I   208        0.31     -0.03      5.11131
 Cr   89 -- I   120        0.31     -0.03      5.11131
 Cr   33 -- I    64        0.31     -0.03      5.11131
 Cr  129 -- I   232        0.31     -0.03      5.11131
 Cr  113 -- I   144        0.31     -0.03      5.11131
 Cr  233 -- I   264        0.31     -0.03      5.11131
 Cr   41 -- I    72        0.31     -0.03      5.11131
 Cr   17 -- I    48        0.31     -0.03      5.11131
 Cr  105 -- I   136        0.31     -0.03      5.11131
 Cr   81 -- I   112        0.31     -0.03      5.11131
 Cr  137 -- I   240        0.31     -0.03      5.11131
 Cr    9 -- I    40        0.31     -0.03      5.11131
 Cr  225 -- I   256        0.31     -0.03      5.11131
 Cr  257 -- I   288        0.31     -0.03      5.11131
 Cr  145 -- I   176        0.31     -0.03      5.11131
 Cr  121 -- I   224        0.31     -0.03      5.11131
 Cr  241 -- I   272        0.31     -0.03      5.11131
 Cr   73 -- I   104        0.31     -0.03      5.11131
 Cr    1 -- I    32        0.31     -0.03      5.11131
 Cr   97 -- I   128        0.31     -0.03      5.11131
 Cr   25 -- I    56        0.31     -0.03      5.11131
 Cr  169 -- I   200        0.31     -0.03      5.11131
 Cr  217 -- I   248        0.31     -0.03      5.11131
 Cr  273 -- I   278        0.31     -0.03      5.11131
 Cr   81 -- I    86        0.31     -0.03      5.11131
 Cr  105 -- I   110        0.31     -0.03      5.11131
 Cr  281 -- I   286        0.31     -0.03      5.11131
 Cr  129 -- I   134        0.31     -0.03      5.11131
 Cr  249 -- I   254        0.31     -0.03      5.11131
 Cr  225 -- I   230        0.31     -0.03      5.11131
 Cr  137 -- I   142        0.31     -0.03      5.11131
 Cr  257 -- I   262        0.31     -0.03      5.11131
 Cr   65 -- I    70        0.31     -0.03      5.11131
 Cr   57 -- I    62        0.31     -0.03      5.11131
 Cr  113 -- I   118        0.31     -0.03      5.11131
 Cr   41 -- I    46        0.31     -0.03      5.11131
 Cr   17 -- I    22        0.31     -0.03      5.11131
 Cr  233 -- I   238        0.31     -0.03      5.11131
 Cr    9 -- I    14        0.31     -0.03      5.11131
 Cr  201 -- I   206        0.31     -0.03      5.11131
 Cr   89 -- I    94        0.31     -0.03      5.11131
 Cr  177 -- I   182        0.31     -0.03      5.11131
 Cr  161 -- I   166        0.31     -0.03      5.11131
 Cr   33 -- I    38        0.31     -0.03      5.11131
 Cr  153 -- I   158        0.31     -0.03      5.11131
 Cr  185 -- I   190        0.31     -0.03      5.11131
 Cr  209 -- I   214        0.31     -0.03      5.11131
[...]
*    I     148     -0.00130903  -0.00229188  -0.00477846 *
*    I     149     -0.00133619   0.00231452  -0.00477429 *
*    I     150     -0.00267223   0.00000187   0.00477441 *
*    I     151      0.00133134   0.00228004   0.00477823 *
*    I     152      0.00131654  -0.00232631   0.00477442 *
*    Cr    153      0.00001049  -0.00000163   0.00000037 *
*    Cr    154     -0.00002120  -0.00000595  -0.00000063 *
*    I     155      0.00267342   0.00002730  -0.00477481 *
*    I     156     -0.00130880  -0.00229158  -0.00477707 *
*    I     157     -0.00133510   0.00231433  -0.00477591 *
*    I     158     -0.00267185   0.00000321   0.00477366 *
*    I     159      0.00133055   0.00227885   0.00477746 *
*    I     160      0.00131502  -0.00232384   0.00477435 *
*    Cr    161      0.00001094  -0.00000740   0.00000005 *
*    Cr    162     -0.00002595   0.00001393   0.00000064 *
*    I     163      0.00267112   0.00002651  -0.00477439 *
*    I     164     -0.00130793  -0.00229390  -0.00477748 *
*    I     165     -0.00133676   0.00231236  -0.00477483 *
*    I     166     -0.00267320  -0.00000087   0.00477498 *
*    I     167      0.00133247   0.00228033   0.00477727 *
*    I     168      0.00131295  -0.00232756   0.00477565 *
*    Cr    169     -0.00000776  -0.00000164  -0.00000128 *
*    Cr    170     -0.00001947   0.00000469  -0.00000145 *
*    I     171      0.00267389   0.00002748  -0.00477660 *
*    I     172     -0.00130779  -0.00229110  -0.00477737 *
*    I     173     -0.00133624   0.00231544  -0.00477583 *
*    I     174     -0.00266829   0.00000180   0.00477320 *
*    I     175      0.00133050   0.00227787   0.00477779 *
*    I     176      0.00131581  -0.00232449   0.00477446 *
*    Cr    177     -0.00002229   0.00001270  -0.00000184 *
*    Cr    178      0.00000952  -0.00000561  -0.00000184 *
*    I     179      0.00267259   0.00002454  -0.00477514 *
*    I     180     -0.00130817  -0.00229108  -0.00477822 *
*    I     181     -0.00133665   0.00231248  -0.00477461 *
*    I     182     -0.00267211  -0.00000013   0.00477528 *
*    I     183      0.00132967   0.00227879   0.00477831 *
*    I     184      0.00131389  -0.00232912   0.00477491 *
*    Cr    185      0.00000633  -0.00000899   0.00000023 *
*    Cr    186     -0.00000533   0.00002013  -0.00000060 *
*    I     187      0.00267084   0.00002255  -0.00477287 *
*    I     188     -0.00130650  -0.00229127  -0.00477738 *
*    I     189     -0.00133627   0.00231376  -0.00477385 *
*    I     190     -0.00267420  -0.00000119   0.00477555 *
*    I     191      0.00133101   0.00228006   0.00477778 *
*    I     192      0.00131395  -0.00232885   0.00477543 *
*    Cr    193      0.00000471  -0.00000434   0.00000033 *
*    Cr    194     -0.00001777   0.00000826  -0.00000039 *
*    I     195      0.00267172   0.00002267  -0.00477533 *
*    I     196     -0.00130778  -0.00229245  -0.00477866 *
*    I     197     -0.00133586   0.00231160  -0.00477509 *
*    I     198     -0.00267186  -0.00000104   0.00477752 *
*    I     199      0.00133112   0.00227894   0.00477802 *
*    I     200      0.00131401  -0.00232711   0.00477591 *
*    Cr    201     -0.00000198   0.00000863  -0.00000220 *
*    Cr    202     -0.00001399   0.00001538  -0.00000151 *
*    I     203      0.00267078   0.00002304  -0.00477382 *
*    I     204     -0.00130763  -0.00229051  -0.00477767 *
*    I     205     -0.00133859   0.00231137  -0.00477371 *
*    I     206     -0.00267146  -0.00000329   0.00477663 *
*    I     207      0.00133083   0.00227899   0.00477716 *
*    I     208      0.00131443  -0.00232747   0.00477548 *
*    Cr    209     -0.00001446   0.00001348   0.00000107 *
*    Cr    210      0.00001076   0.00001334   0.00000062 *
*    I     211      0.00267026   0.00002280  -0.00477300 *
*    I     212     -0.00130933  -0.00229226  -0.00477711 *
*    I     213     -0.00133835   0.00231349  -0.00477361 *
*    I     214     -0.00267183   0.00000082   0.00477409 *
*    I     215      0.00133066   0.00228165   0.00477791 *
*    I     216      0.00131484  -0.00232672   0.00477426 *
*    Cr    217      0.00000380  -0.00002886   0.00000048 *
*    Cr    218     -0.00004414  -0.00001864   0.00000089 *
*    I     219      0.00267087   0.00002308  -0.00477398 *
*    I     220     -0.00131176  -0.00228363  -0.00476864 *
*    I     221     -0.00124595   0.00242466  -0.00484621 *
*    I     222     -0.00267288   0.00000012   0.00477520 *
*    I     223      0.00131931   0.00228151   0.00476895 *
*    I     224      0.00145784  -0.00230461   0.00484787 *
*    Cr    225      0.00000433  -0.00001568  -0.00000133 *
*    Cr    226     -0.00003349  -0.00001063  -0.00000111 *
*    I     227      0.00266308   0.00001309  -0.00476369 *
*    I     228     -0.00131003  -0.00229147  -0.00477692 *
*    I     229     -0.00133659   0.00231175  -0.00477379 *
*    I     230     -0.00266224  -0.00000670   0.00476518 *
*    I     231      0.00133043   0.00228088   0.00477735 *
*    I     232      0.00131314  -0.00232598   0.00477482 *
*    Cr    233     -0.00000324  -0.00000341  -0.00000059 *
*    Cr    234     -0.00003176  -0.00000398  -0.00000043 *
*    I     235      0.00267240   0.00002355  -0.00477382 *
*    I     236     -0.00130898  -0.00229099  -0.00477839 *
*    I     237     -0.00133074   0.00232232  -0.00478288 *
*    I     238     -0.00267067   0.00000100   0.00477417 *
*    I     239      0.00133087   0.00227937   0.00477763 *
*    I     240      0.00132884  -0.00232228   0.00478269 *
*    Cr    241      0.00000826  -0.00003373  -0.00000122 *
*    Cr    242     -0.00001464  -0.00000256  -0.00000149 *
*    I     243      0.00267048   0.00002389  -0.00477370 *
*    I     244     -0.00130709  -0.00229306  -0.00477735 *
*    I     245     -0.00133571   0.00231112  -0.00477280 *
*    I     246     -0.00267099  -0.00000031   0.00477536 *
*    I     247      0.00133171   0.00228019   0.00477733 *
*    I     248      0.00131414  -0.00232501   0.00477428 *
*    Cr    249      0.00000548  -0.00001658  -0.00000146 *
*    Cr    250     -0.00001729  -0.00000384  -0.00000107 *
*    I     251      0.00266924   0.00002531  -0.00477378 *
*    I     252     -0.00130788  -0.00229067  -0.00477649 *
*    I     253     -0.00133458   0.00231184  -0.00477399 *
*    I     254     -0.00266837   0.00000345   0.00477281 *
*    I     255      0.00133152   0.00228118   0.00477941 *
*    I     256      0.00131579  -0.00232120   0.00477275 *
*    Cr    257     -0.00000016  -0.00001191   0.00000049 *
*    Cr    258     -0.00002291   0.00000168  -0.00000021 *
*    I     259      0.00267156   0.00002459  -0.00477440 *
*    I     260     -0.00130863  -0.00229039  -0.00477797 *
*    I     261     -0.00133455   0.00231460  -0.00477498 *
*    I     262     -0.00266928   0.00000260   0.00477431 *
*    I     263      0.00133049   0.00228095   0.00477845 *
*    I     264      0.00131586  -0.00232267   0.00477390 *
*    Cr    265      0.00001235  -0.00002948  -0.00000069 *
*    Cr    266     -0.00000111  -0.00000482  -0.00000044 *
*    I     267      0.00267155   0.00002338  -0.00477438 *
*    I     268     -0.00130787  -0.00229166  -0.00477848 *
*    I     269     -0.00133774   0.00231369  -0.00477389 *
*    I     270     -0.00267057   0.00000374   0.00477424 *
*    I     271      0.00132997   0.00227989   0.00477779 *
*    I     272      0.00131468  -0.00232492   0.00477419 *
*    Cr    273      0.00001291  -0.00001872  -0.00000038 *
*    Cr    274     -0.00001016  -0.00000620   0.00000068 *
*    I     275      0.00267173   0.00002662  -0.00477498 *
*    I     276     -0.00130746  -0.00229108  -0.00477795 *
*    I     277     -0.00133642   0.00231319  -0.00477426 *
*    I     278     -0.00266946   0.00000299   0.00477393 *
*    I     279      0.00133150   0.00228039   0.00477845 *
*    I     280      0.00131535  -0.00232276   0.00477421 *
*    Cr    281      0.00000930  -0.00000853   0.00000001 *
*    Cr    282     -0.00001209   0.00000375   0.00000020 *
*    I     283      0.00267131   0.00002758  -0.00477602 *
*    I     284     -0.00130854  -0.00229190  -0.00477796 *
*    I     285     -0.00133363   0.00231469  -0.00477613 *
*    I     286     -0.00267047   0.00000226   0.00477446 *
*    I     287      0.00132981   0.00227830   0.00477917 *
*    I     288      0.00131568  -0.00232394   0.00477448 *
*                                                        *
**********************************************************
* TOTAL:           -0.00000000  -0.00000000   0.00000000 *
**********************************************************
 
 
***********************************************************
********** Summary of Forces (values in Eh/a) *************
*                                                         *
* ---------------------- Minimum ------------------------ *
* Atom:        17, |F|min =    0.00000458                 *
* Components:     Fx|min       Fy|min       Fz|min        *
*              -0.00000056   0.00000437  -0.00000124      *
*                                                         *
* ---------------------- Maximum ------------------------ *
* Atom:       126, |F|max =    0.00556263                 *
* Components:     Fx|max       Fy|max       Fz|max        *
*              -0.00272415  -0.00013737   0.00484799      *
*                                                         *
* ---------------- Root Mean Square Force --------------- *
*                  |F|rms =    0.00473680                 *
* Components:     Fx|rms       Fy|rms       Fz|rms        *
*               0.00163150   0.00162920   0.00413778      *
***********************************************************
 

------------------------------ TIMING INFORMATION ------------------------------
AVERAGE TIME:   25803.667s on     56 proc(s)                                    
TOTAL TIME:     25803.668s on     56 proc(s)                                    
==================== AVERAGE TIMINGS FROM ALL PROCS (CUMULATIVE) =====================
|| TAG                                         #calls     cpu time   %total  Gflops ||
|| hubbard_species_proj                       :     1        0.00s   0.000%  ------ ||
|| hubbard_ngwf_on_grid                       :     1        0.00s   0.000%  ------ ||
|| hubbard_projector_character                :     1        0.00s   0.000%  ------ ||
|| sw_bessel_init_cpu                         :     1        0.01s   0.000%  ------ || (1 procs only)
|| hubbard_ngwf_select                        :     1        0.00s   0.000%  ------ ||
|| hash_table_free                            :    53        0.00s   0.000%  ------ ||
|| density_fftbox_interp_mult_imbal           : 19074        0.00s   0.000%  ------ ||
|| linalg_invert_sym_matrix                   :     4        0.16s   0.001%  ------ || (1 procs only)
|| hubbard_tensorial_correction               :     2        0.00s   0.000%  ------ ||
|| ewald_calculate_forces_realspace           :     1        0.00s   0.000%  ------ ||
|| onetep.F90 final imbalance                 :     1        0.01s   0.000%  ------ ||
|| linalg_dgemv                               :    44        0.02s   0.000%  ------ ||
|| sparse_blacstospam3_real_fast_imbal        :    96        0.03s   0.000%  ------ ||
|| ewald_calculate_energy                     :     1        0.04s   0.000%  ------ ||
|| sparse_set_to_garbage                      :  1158        0.05s   0.000%  ------ ||
|| ewald_calculate_forces_recipspace          :     1        0.08s   0.000%  ------ ||
|| paw_tcore_hartree_on_grid                  :     1        0.10s   0.000%  ------ ||
|| paw_dij_hartree                            :   320        0.14s   0.001%  ------ ||
|| sw_init                                    :   577        0.14s   0.001%  ------ ||
|| pseudo_make_structure_factor               :     1        0.15s   0.001%  ------ ||
|| restart_hamiltonian_write                  :     2        0.16s   0.001%  ------ ||
|| sparse_spam3toblacs_real_fast_B2           :  4592        0.18s   0.001%  ------ ||
|| onetep.F90 main loop imbalance             :     1        0.19s   0.001%  ------ ||
|| ewald_calculate_forces                     :     1        0.20s   0.001%  ------ ||
|| sparse_spam3toblacs_real_fast_imbal        :    82        0.33s   0.001%  ------ ||
|| augmentation_density_forces                :     1        0.37s   0.001%  ------ ||
|| hubbard_projection_mtx                     :    55        0.38s   0.001%  ------ ||
|| sparse_init                                :     1        0.38s   0.001%  ------ ||
|| basis_extract_function_from_box            :  3342        0.67s   0.003%  ------ ||
|| paw_tcore_hartree_calc_forces              :     1        0.71s   0.003%  ------ ||
|| hubbard_projector_ham                      :   137        1.05s   0.004%  ------ ||
|| hubbard_ham_matrix                         :   138        1.46s   0.006%  ------ ||
|| paw_tcore_density                          :     1        1.77s   0.007%  ------ ||
|| sparse_spam3toblacs_real_fast_B1           :  4592        1.99s   0.008%  ------ ||
|| paw_dataset_init                           :     2        2.15s   0.008%  ------ ||
|| paw_nlcc_calculate_forces                  :     1        2.35s   0.009%  ------ ||
|| paw_sphere_density_on_grid                 :     1        2.79s   0.011%  ------ ||
|| restart_kernel_write                       :    28        2.80s   0.011%  ------ ||
|| sparse_spam3toblacs_real_fast              :    82        2.87s   0.011%  ------ ||
|| nonsc_forces_ngwfs_calc                    :     1        2.98s   0.012%  ------ ||
|| hubbard_energy_total                       :   291        3.54s   0.014%  ------ ||
|| sparse_blacstospam3_real_fast              :    96        5.41s   0.021%  ------ ||
|| paw_species_calc_proj_prec_mat             :     1        5.80s   0.022%  ------ ||
|| ngwfs_initialise_from_radial               :     4        5.81s   0.023%  ------ ||
|| sparse_embed_array_hotelling_invert        :    53        7.15s   0.028%  ------ ||
|| dense_eigensolve                           :    38       10.39s   0.040%  ------ ||
|| hubbard_calculate_forces                   :     1       11.01s   0.043%  ------ ||
|| edft_diag_ngwf_ham                         :    36       12.30s   0.048%  ------ ||
|| integrals_grad_spam3                       :     4       13.91s   0.054%  ------ ||
|| sparse_trace                               :  9950       16.34s   0.063%  ------ ||
|| kernel_purify                              :   421       18.51s   0.072%  ------ ||
|| edft_apply_smearing_operator               :    18       18.67s   0.072%  ------ ||
|| energy_and_force_init_cell                 :     1       20.62s   0.080%  ------ ||
|| ngwf_gradient_coeffs                       :    26       23.16s   0.090%  ------ ||
|| lnv_gradient_norm                          :   130       24.18s   0.094%  ------ ||
|| kernel_fix                                 :   130       24.97s   0.097%  ------ ||
|| fourier_filter_cell                        :   330       26.53s   0.103% 138.089 ||
|| hubbard_projector_update                   :     1       30.68s   0.119%  ------ ||
|| eigenstates_calculate                      :     1       32.00s   0.124%  ------ ||
|| basis_copy_function_to_box                 : 33300       33.11s   0.128%  ------ ||
|| hamiltonian_energy_components              :     1       37.29s   0.144%  ------ ||
|| hartree_on_grid_single                     :   288       37.89s   0.147%  ------ ||
|| fourier_apply_box_pair                     :  5117       39.01s   0.151%  1.783k ||
|| projectors_func_grad_ovlp_box_spam3        :     6       40.92s   0.159%  ------ ||
|| aug_nl_calculate_forces                    :     1       42.04s   0.163%  ------ ||
|| fourier_interpolate_cell                   :   578       46.31s   0.179% 138.561 ||
|| density_init_guess_real                    :     2       58.20s   0.226%  ------ ||
|| augmentation_screen_dij_spam3              :   287       94.28s   0.365%  ------ ||
|| cell_grid_deposit_box_real                 : 23376      118.99s   0.461%  ------ ||
|| forces_calculate                           :     1      128.40s   0.498%  ------ ||
|| sparse_product                             : 19076      137.42s   0.533%  ------ ||
|| aug_nonlocal_mat_spam3_embed_array         :   293      149.56s   0.580%  ------ ||
|| paw_dij_xc                                 :   320      156.07s   0.605%  ------ ||
|| fourier_apply_cell_backward                :  2593      171.17s   0.663% 151.329 ||
|| restart_ngwfs_tightbox_output              :    25      189.85s   0.736%  ------ ||
|| fourier_filter                             :  6205      190.67s   0.739%  ------ ||
|| fourier_apply_cell_forward                 :  2593      194.52s   0.754% 133.157 ||
|| aug_density_on_grid_spam3                  :   289      209.31s   0.811%  ------ ||
|| projectors_init_fftbox_recip               :   693      247.42s   0.959%  ------ ||
|| cell_grid_extract_box_real                 : 14610      288.04s   1.116%  ------ ||
|| fourier_interpolate                        :  6205      295.41s   1.145%  ------ ||
|| function_ops_brappd_ketppd_spam3           :   216      338.08s   1.310%  ------ ||
|| xc_energy_potential                        :   288      403.15s   1.562%  ------ ||
|| properties_calculate                       :     1      456.56s   1.769%  ------ ||
|| density_fftbox_deposit_to_cell             : 19074      784.88s   3.042%  ------ ||
|| projectors_func_ovlp_box_spam3             :   218      837.02s   3.244%  ------ ||
|| edft_calculate                             :     1      899.04s   3.484%  ------ ||
|| integrals_kinetic_spam3                    :   106      908.94s   3.523%  ------ ||
|| basis_dot_function_with_box                : 11.59M    1274.28s   4.938%  ------ ||
|| potential_apply_to_ngwf_batch              :   830     1460.88s   5.662%  ------ ||
|| projectors_gradient_batch                  :   312     1690.94s   6.553%  ------ ||
|| fourier_apply_box                          : 102.4k    2467.41s   9.562%  1.874k ||
|| integrals_locpot_mat_els_batch             :   830     2502.71s   9.699%  ------ ||
|| fourier_interpolate_product                : 18578     2675.71s  10.369%  ------ ||
|| density_fftbox_interpolate_multiply        : 19074     2818.35s  10.922%  ------ ||
|| basis_add_function_to_box                  : 23.16M    2845.82s  11.029%  ------ ||
|| projectors_grad_precond_batch              :   156     3340.51s  12.946%  ------ ||
|| integrals_locpot_dbl_grid                  :   278     3967.24s  15.375%  ------ ||
|| density_batch_interp_deposit               :  1734     4507.41s  17.468%  ------ ||
|| density_batch_row_sums                     :  1734     5087.73s  19.717%  ------ ||
|| ngwf_gradient_build_batch                  :   156     5572.94s  21.597%  ------ ||
|| ngwf_gradient_batch                        :   156     7992.06s  30.973%  ------ ||
|| ngwf_gradient_lnv                          :    26     8119.75s  31.467%  ------ ||
|| density_on_dbl_grid                        :   578     9673.47s  37.489%  ------ ||
|| hamiltonian_lhxc_calculate                 :   285    10394.73s  40.284%  ------ ||
|| lnv_denskernel_optimise_cg                 :    26    12640.94s  48.989%  ------ ||
|| ngwf_cg_optimise                           :     1    24113.08s  93.448%  ------ ||
|| energy_and_forces                          :     1    25781.46s  99.914%  ------ ||
|| total_time                                 :     1    25803.67s 100.000%  ------ ||
======================================================================================
Overhead of generating timer report: 
- 0 ms averaging over threads,
- 5 ms ensuring consistency across MPI ranks,
- 27 ms printing in order.

Job completed: 23-10-2024 00:41 (+0100)

onetep_launcher: ONETEP seems to have finished correctly (zero exit code).
                 Brought to you by PID 200959 on nid004221.
