==================================================================================
It's Tue 22 Oct 2024 09:45:47 AM BST.
*** Starting onetep_launcher (node nid001388, PIDs 21659 21660 21661 21662 21663 21664 21665 21666)...
    - ONETEP arguments: U_0_-0.2.dat
    - Current directory: /mnt/lustre/a2fs-work3/work/e89/e89/phsmea/J_det/U_0_-0.2
    - Launcher executable directory: /mnt/lustre/a2fs-work3/work/e89/e89/phsmea/J_det/U_0_-0.2
    - (-e) ONETEP executable specified through command-line: /work/e89/e89/phsmea/onetep.archer2_2024_cray
      ... trying /work/e89/e89/phsmea/onetep.archer2_2024_cray
          -> looks OK
*** Setting up environment...
    - (-s) Process stack size: unlimited
    - (-t) OMP_NUM_THREADS: 16
    - (-o) OMP_STACKSIZE: 64M
    - (-c) Maximum core file size: 2048000
    - (-d) decfort_dump_flag: n
    - (-m) I_MPI_OFA_TRANSLATION_CACHE: 0
    - (-m) I_MPI_DAPL_TRANSLATION_CACHE: 0
    - (-m) I_MPI_DAPL_UD_TRANSLATION_CACHE: 0
*** Starting ONETEP...
    - /work/e89/e89/phsmea/onetep.archer2_2024_cray U_0_-0.2.dat
=================================================================================
_________________________________________________________________________________
 +---------------------------------------------------------------+
 |                                                               |
 |        ####### #     # ####### ####### ####### ######         |
 |        #     # ##    # #          #    #       #     #        |
 |        #     # # #   # #          #    #       #     #        |
 |        #     # #  #  # #####      #    #####   ######         |
 |        #     # #   # # #          #    #       #              |
 |        #     # #    ## #          #    #       #              |
 |        ####### #     # #######    #    ####### #              |
 |                                                               |
 |        Linear-Scaling Ab Initio Total Energy Program          |
 |                                                               |
 |          Release for academic collaborators of ODG            |
 |                                             Version 7.3.0     |
 | Remote: git@github.com:Miesaz/onetep_mea.git                  |
 | Local branch: master                                          |
 | Commit ID: 4af45e89288c8df5499704252eec3e032ee3d0c8           |
 | Date: Tue Aug 6 11:28:44 2024 +0100                           |
 | Working tree clean                                            |
 |                                                               |
 +---------------------------------------------------------------+
 |                                                               |
 |  Authors:                                                     |
 |  Jacek Dziedzic, Peter D. Haynes, Nicholas D. M. Hine,        |
 |  Arash A. Mostofi, Mike C. Payne and Chris-Kriton Skylaris    |
 |                                                               |
 |  Contributors:                                                |
 |  J. Aarons, L. Andrinopoulos, P. W. Avraam, R. A. Bell,       |
 |  A. Bhandari, G. A. Bramley, R. J. Charlton, S. J. Clark,     |
 |  R. J. Clements, G. C. Constantinescu, F. Corsetti,           |
 |  N. Corsini, O. Dieguez, S. M. M. Dubois, K. K. B. Duff,      |
 |  J. M. Escartin, M. Escobar Azor, A. Greco,                   |
 |  H. Helal, Q. O. Hill, L. P. Lee, J.-H. Li,                   |
 |  T. Li, E. B. Linscott, G. Moynihan, D. D. O`Regan,           |
 |  O. K. Okan, E. Parkinson, M. J. S. Phipps,                   |
 |  C. J. Pickard, J. C. A. Prentice, M. I. J. Probert,          |
 |  L. E. Ratcliff, M. Robinson, A. Ruiz Serrano,                |
 |  M. dos Santos Dias, J. S. Spencer, E. W. Tait,               |
 |  G. Teobaldi, D. Turban, V. Vitale, K. A. Wilkinson,          |
 |  C. Weber, J. C. Womack, Chengcheng Xiao, N. Yeung,           |
 |  and T. J. Zuehlsdorff.                                       |
 |                                                               |
 |                                   Copyright (c) 2004-2024     |
 |                                                               |
 |  Please cite:                                                 |
 |  "The ONETEP linear-scaling density functional theory program"|
 |   J. Chem. Phys. 152(17) 174111 (2020)                        |
 |                                                               |
 |          in all publications arising from your use of ONETEP. |
 |                                                               |
 +---------------------------------------------------------------+
 |                                                               |
 |   ONETEP is based on developments described in the following  |
 |   publications:                                               |
 |                                                               |
 |  "Nonorthogonal generalized Wannier function pseudopotential  |
 |   plane-wave method".                                         |
 |   C.-K. Skylaris, A. A. Mostofi, P. D. Haynes, O. Dieguez,    |
 |   M. C. Payne.                                                |
 |   Phys. Rev. B 66 035119 (2002).                              |
 |                                                               |
 |  "Preconditioned iterative minimization for linear-scaling    |
 |   electronic structure calculations".                         |
 |   A. A. Mostofi, P. D. Haynes, C.-K. Skylaris, M. C. Payne.   |
 |   J. Chem. Phys. 119(17), pp.8842-8848 (2003).                |
 |                                                               |
 |  "Total-energy calculations on a real space grid with         |
 |   localized functions and a plane-wave basis".                |
 |   A. A. Mostofi, C.-K. Skylaris, P. D. Haynes, M. C. Payne.   |
 |   Comput. Phys. Commun. 147, pp.788-802 (2002).               |
 |                                                               |
 |  "Accurate kinetic energy evaluation in electronic structure  |
 |   calculations with localized functions on real space grids"  |
 |   C.-K. Skylaris, A. A. Mostofi, P. D. Haynes, C. J. Pickard, |
 |   M. C. Payne.                                                |
 |   Comput. Phys. Commun. 140, pp.315-322 (2001).               |
 |                                                               |
 |  "Accurate ionic forces and geometry optimization in linear-  |
 |   scaling density-functional theory with local orbitals"      |
 |   N. D. M. Hine, M. Robinson, P. D. Haynes, C.-K. Skylaris,   |
 |   M. C. Payne, and A. A. Mostofi.                             |
 |   Phys. Rev. B 83 195102 (2011).                              |
 |                                                               |
 +---------------------------------------------------------------+

Job started: 22-10-2024 09:45 (+0100)
 
Reading parameters from file "U_0_-0.2.dat" ...
WARNING in get_rundat: hubbard_calculating_u is TRUE, so do_properties will be
overridden to TRUE.
... done

If your calculation crashes here, before "Checking processes and threads..."
is displayed, then your stack size is insufficient.
If so, use "ulimit -s unlimited" at runtime.
You can disable this check with "check_stack_size F".

Checking processes and threads...
   Running with 56 MPI processes.
   There are 8 MPI processes running on the same node as the root process.
   Each MPI process is using: 
               1 threads for simulation cell FFTs.
               1 threads for threaded FFT box operations.
              16 threads for loops over batched FFT box operations.
              16 threads in other parallel regions.
   MPI Interface: S1 (use mpi_f08) (-DMPI -DUSE_MPI_F08).
   MPI_ASYNC_PROTECTS_NONBLOCKING: Yes. MPI_SUBARRAYS_SUPPORTED: Yes.
   FFTW Interface: OMP-capable and MODERN. (-DUSE_MODERN_FFTW specified).
   GPU Interface: None.
   GPU FFT Backend: None.
... done

Basic input checks...... done

Reading geometry and species blocks from file "U_0_-0.2.dat" ...... done


--------------------------------------------------------------------------------
---------------------------------- INPUT FILE ----------------------------------
--------------------------------------------------------------------------------

charge : 0                                                                      
cutoff_energy : 1000 eV                                                         
do_properties : T                                                               
edft : F                                                                        
edft_init_maxit : 5                                                             
elec_energy_tol : 2e-07 Ha                                                      
fine_grid_scale : 4                                                             
forces_output_detail : VERBOSE                                                  
hubbard_calculating_u : T                                                       
maxit_ngwf_cg : 100                                                             
ngwf_threshold_orig : 1e-06                                                     
output_detail : BRIEF                                                           
paw : T                                                                         
spin_polarized : T                                                              
ngwfs_spin_polarized : T                                                        
read_denskern : F                                                               
read_hamiltonian : F                                                            
read_tightbox_ngwfs : F                                                         
spin : 216                                                                      
task : SinglePoint                                                              
write_denskern : T                                                              
write_forces : T                                                                
write_hamiltonian : T                                                           
write_tightbox_ngwfs : T                                                        
xc_functional : PBE                                                             
%BLOCK LATTICE_CART                                                             
ang                                                                             
41.261892132    0.000000000     0.000000000                                     
-20.630946066   35.733846792     0.000000000                                    
0.0000000000    0.000000000    17.192455055                                     
%ENDBLOCK LATTICE_CART                                                          
%BLOCK POSITIONS_ABS                                                            
ang                                                                             
Cr       3.43849101       1.98521371       9.03176873                           
Cr       0.00000000       3.97042742       9.03176919                           
I        4.42260340      -0.00001318       7.48054615                           
I        1.22717790       2.12556082       7.48054615                           
I       -2.21129029       3.83009349       7.48054615                           
I        2.45437873      -0.00001140      10.58299027                           
I        2.21129177       3.83009250      10.58299027                           
I       -1.22717949       2.12556004      10.58299027                           
Cr       0.00000000       7.94085485       9.03176873                           
Cr      -3.43849101       9.92606855       9.03176919                           
I        0.98411239       5.95562795       7.48054615                           
I       -2.21131311       8.08120195       7.48054615                           
I       -5.64978130       9.78573462       7.48054615                           
I       -0.98411228       5.95562973      10.58299027                           
I       -1.22719924       9.78573363      10.58299027                           
I       -4.66567050       8.08120117      10.58299027                           
Cr      -3.43849101      13.89649598       9.03176873                           
Cr      -6.87698202      15.88170968       9.03176919                           
I       -2.45437862      11.91126909       7.48054615                           
I       -5.64980412      14.03684309       7.48054615                           
I       -9.08827231      15.74137575       7.48054615                           
I       -4.42260329      11.91127086      10.58299027                           
I       -4.66569025      15.74137476      10.58299027                           
I       -8.10416151      14.03684230      10.58299027                           
Cr      10.31547303       1.98521371       9.03176873                           
Cr       6.87698202       3.97042742       9.03176919                           
I       11.29958542      -0.00001318       7.48054615                           
I        8.10415992       2.12556082       7.48054615                           
I        4.66569173       3.83009349       7.48054615                           
I        9.33136075      -0.00001140      10.58299027                           
I        9.08827380       3.83009250      10.58299027                           
I        5.64980253       2.12556004      10.58299027                           
Cr       6.87698202       7.94085485       9.03176873                           
Cr       3.43849101       9.92606855       9.03176919                           
I        7.86109441       5.95562795       7.48054615                           
I        4.66566891       8.08120195       7.48054615                           
I        1.22720072       9.78573462       7.48054615                           
I        5.89286974       5.95562973      10.58299027                           
I        5.64978278       9.78573363      10.58299027                           
I        2.21131152       8.08120117      10.58299027                           
Cr       3.43849101      13.89649598       9.03176873                           
Cr       0.00000000      15.88170968       9.03176919                           
I        4.42260340      11.91126909       7.48054615                           
I        1.22717790      14.03684309       7.48054615                           
I       -2.21129029      15.74137575       7.48054615                           
I        2.45437873      11.91127086      10.58299027                           
I        2.21129177      15.74137476      10.58299027                           
I       -1.22717949      14.03684230      10.58299027                           
Cr      17.19245505       1.98521371       9.03176873                           
Cr      13.75396404       3.97042742       9.03176919                           
I       18.17656744      -0.00001318       7.48054615                           
I       14.98114195       2.12556082       7.48054615                           
I       11.54267375       3.83009349       7.48054615                           
I       16.20834277      -0.00001140      10.58299027                           
I       15.96525582       3.83009250      10.58299027                           
I       12.52678455       2.12556004      10.58299027                           
Cr      13.75396404       7.94085485       9.03176873                           
Cr      10.31547303       9.92606855       9.03176919                           
I       14.73807643       5.95562795       7.48054615                           
I       11.54265094       8.08120195       7.48054615                           
I        8.10418274       9.78573462       7.48054615                           
I       12.76985176       5.95562973      10.58299027                           
I       12.52676481       9.78573363      10.58299027                           
I        9.08829354       8.08120117      10.58299027                           
Cr      10.31547303      13.89649598       9.03176873                           
Cr       6.87698202      15.88170968       9.03176919                           
I       11.29958542      11.91126909       7.48054615                           
I        8.10415992      14.03684309       7.48054615                           
I        4.66569173      15.74137575       7.48054615                           
I        9.33136075      11.91127086      10.58299027                           
I        9.08827380      15.74137476      10.58299027                           
I        5.64980253      14.03684230      10.58299027                           
Cr      -6.87698202      19.85213711       9.03176873                           
Cr     -10.31547303      21.83735082       9.03176919                           
I       -5.89286963      17.86691022       7.48054615                           
I       -9.08829513      19.99248422       7.48054615                           
I      -12.52676332      21.69701689       7.48054615                           
I       -7.86109430      17.86691200      10.58299027                           
I       -8.10418126      21.69701590      10.58299027                           
I      -11.54265252      19.99248344      10.58299027                           
Cr     -10.31547303      25.80777825       9.03176873                           
Cr     -13.75396404      27.79299195       9.03176919                           
I       -9.33136064      23.82255135       7.48054615                           
I      -12.52678614      25.94812535       7.48054615                           
I      -15.96525433      27.65265802       7.48054615                           
I      -11.29958531      23.82255313      10.58299027                           
I      -11.54267227      27.65265703      10.58299027                           
I      -14.98114353      25.94812457      10.58299027                           
Cr     -13.75396404      31.76341938       9.03176873                           
Cr     -17.19245505      33.74863308       9.03176919                           
I      -12.76985165      29.77819249       7.48054615                           
I      -15.96527715      31.90376649       7.48054615                           
I      -19.40374534      33.60829915       7.48054615                           
I      -14.73807632      29.77819426      10.58299027                           
I      -14.98116328      33.60829816      10.58299027                           
I      -18.41963454      31.90376570      10.58299027                           
Cr      -0.00000000      19.85213711       9.03176873                           
Cr      -3.43849101      21.83735082       9.03176919                           
I        0.98411239      17.86691022       7.48054615                           
I       -2.21131311      19.99248422       7.48054615                           
I       -5.64978130      21.69701689       7.48054615                           
I       -0.98411228      17.86691200      10.58299027                           
I       -1.22719923      21.69701590      10.58299027                           
I       -4.66567050      19.99248344      10.58299027                           
Cr      -3.43849101      25.80777825       9.03176873                           
Cr      -6.87698202      27.79299195       9.03176919                           
I       -2.45437862      23.82255135       7.48054615                           
I       -5.64980412      25.94812535       7.48054615                           
I       -9.08827231      27.65265802       7.48054615                           
I       -4.42260329      23.82255313      10.58299027                           
I       -4.66569025      27.65265703      10.58299027                           
I       -8.10416151      25.94812457      10.58299027                           
Cr      -6.87698202      31.76341938       9.03176873                           
Cr     -10.31547303      33.74863308       9.03176919                           
I       -5.89286963      29.77819249       7.48054615                           
I       -9.08829513      31.90376649       7.48054615                           
I      -12.52676332      33.60829915       7.48054615                           
I       -7.86109430      29.77819426      10.58299027                           
I       -8.10418126      33.60829816      10.58299027                           
I      -11.54265252      31.90376570      10.58299027                           
CrU       6.87698202      19.85213711       9.03176873                          
Cr       3.43849101      21.83735082       9.03176919                           
I        7.86109441      17.86691022       7.48054615                           
I        4.66566892      19.99248422       7.48054615                           
I        1.22720072      21.69701689       7.48054615                           
I        5.89286974      17.86691200      10.58299027                           
I        5.64978279      21.69701590      10.58299027                           
I        2.21131152      19.99248344      10.58299027                           
Cr       3.43849101      25.80777825       9.03176873                           
Cr      -0.00000000      27.79299195       9.03176919                           
I        4.42260340      23.82255135       7.48054615                           
I        1.22717791      25.94812535       7.48054615                           
I       -2.21129029      27.65265802       7.48054615                           
I        2.45437873      23.82255313      10.58299027                           
I        2.21129178      27.65265703      10.58299027                           
I       -1.22717949      25.94812457      10.58299027                           
Cr      -0.00000000      31.76341938       9.03176873                           
Cr      -3.43849101      33.74863308       9.03176919                           
I        0.98411239      29.77819249       7.48054615                           
I       -2.21131311      31.90376649       7.48054615                           
I       -5.64978130      33.60829915       7.48054615                           
I       -0.98411228      29.77819426      10.58299027                           
I       -1.22719923      33.60829816      10.58299027                           
I       -4.66567050      31.90376570      10.58299027                           
Cr      24.06943708       1.98521371       9.03176873                           
Cr      20.63094607       3.97042742       9.03176919                           
I       25.05354947      -0.00001318       7.48054615                           
I       21.85812397       2.12556082       7.48054615                           
I       18.41965578       3.83009349       7.48054615                           
I       23.08532480      -0.00001140      10.58299027                           
I       22.84223784       3.83009250      10.58299027                           
I       19.40376658       2.12556004      10.58299027                           
Cr      20.63094607       7.94085485       9.03176873                           
Cr      17.19245506       9.92606855       9.03176919                           
I       21.61505846       5.95562795       7.48054615                           
I       18.41963296       8.08120195       7.48054615                           
I       14.98116477       9.78573462       7.48054615                           
I       19.64683379       5.95562973      10.58299027                           
I       19.40374683       9.78573363      10.58299027                           
I       15.96527557       8.08120117      10.58299027                           
Cr      17.19245506      13.89649598       9.03176873                           
Cr      13.75396405      15.88170968       9.03176919                           
I       18.17656745      11.91126909       7.48054615                           
I       14.98114195      14.03684309       7.48054615                           
I       11.54267376      15.74137575       7.48054615                           
I       16.20834278      11.91127086      10.58299027                           
I       15.96525582      15.74137476      10.58299027                           
I       12.52678456      14.03684230      10.58299027                           
Cr      30.94641910       1.98521371       9.03176873                           
Cr      27.50792809       3.97042742       9.03176919                           
I       31.93053149      -0.00001318       7.48054615                           
I       28.73510599       2.12556082       7.48054615                           
I       25.29663780       3.83009349       7.48054615                           
I       29.96230682      -0.00001140      10.58299027                           
I       29.71921987       3.83009250      10.58299027                           
I       26.28074860       2.12556004      10.58299027                           
Cr      27.50792809       7.94085485       9.03176873                           
Cr      24.06943708       9.92606855       9.03176919                           
I       28.49204048       5.95562795       7.48054615                           
I       25.29661498       8.08120195       7.48054615                           
I       21.85814679       9.78573462       7.48054615                           
I       26.52381581       5.95562973      10.58299027                           
I       26.28072885       9.78573363      10.58299027                           
I       22.84225759       8.08120117      10.58299027                           
Cr      24.06943708      13.89649598       9.03176873                           
Cr      20.63094607      15.88170968       9.03176919                           
I       25.05354947      11.91126909       7.48054615                           
I       21.85812397      14.03684309       7.48054615                           
I       18.41965578      15.74137575       7.48054615                           
I       23.08532480      11.91127086      10.58299027                           
I       22.84223784      15.74137476      10.58299027                           
I       19.40376658      14.03684230      10.58299027                           
Cr      37.82340112       1.98521371       9.03176873                           
Cr      34.38491011       3.97042742       9.03176919                           
I       38.80751351      -0.00001318       7.48054615                           
I       35.61208802       2.12556082       7.48054615                           
I       32.17361982       3.83009349       7.48054615                           
I       36.83928884      -0.00001140      10.58299027                           
I       36.59620189       3.83009250      10.58299027                           
I       33.15773062       2.12556004      10.58299027                           
Cr      34.38491011       7.94085485       9.03176873                           
Cr      30.94641910       9.92606855       9.03176919                           
I       35.36902250       5.95562795       7.48054615                           
I       32.17359701       8.08120195       7.48054615                           
I       28.73512881       9.78573462       7.48054615                           
I       33.40079783       5.95562973      10.58299027                           
I       33.15771088       9.78573363      10.58299027                           
I       29.71923961       8.08120117      10.58299027                           
Cr      30.94641910      13.89649598       9.03176873                           
Cr      27.50792809      15.88170968       9.03176919                           
I       31.93053149      11.91126909       7.48054615                           
I       28.73510599      14.03684309       7.48054615                           
I       25.29663780      15.74137575       7.48054615                           
I       29.96230682      11.91127086      10.58299027                           
I       29.71921987      15.74137476      10.58299027                           
I       26.28074860      14.03684230      10.58299027                           
Cr      13.75396404      19.85213711       9.03176873                           
Cr      10.31547303      21.83735082       9.03176919                           
I       14.73807643      17.86691022       7.48054615                           
I       11.54265093      19.99248422       7.48054615                           
I        8.10418274      21.69701689       7.48054615                           
I       12.76985176      17.86691200      10.58299027                           
I       12.52676480      21.69701590      10.58299027                           
I        9.08829354      19.99248344      10.58299027                           
Cr      10.31547303      25.80777825       9.03176873                           
Cr       6.87698202      27.79299195       9.03176919                           
I       11.29958542      23.82255135       7.48054615                           
I        8.10415992      25.94812535       7.48054615                           
I        4.66569173      27.65265802       7.48054615                           
I        9.33136075      23.82255313      10.58299027                           
I        9.08827379      27.65265703      10.58299027                           
I        5.64980253      25.94812457      10.58299027                           
Cr       6.87698202      31.76341938       9.03176873                           
Cr       3.43849101      33.74863308       9.03176919                           
I        7.86109441      29.77819249       7.48054615                           
I        4.66566891      31.90376649       7.48054615                           
I        1.22720072      33.60829915       7.48054615                           
I        5.89286974      29.77819426      10.58299027                           
I        5.64978278      33.60829816      10.58299027                           
I        2.21131152      31.90376570      10.58299027                           
Cr      20.63094606      19.85213711       9.03176873                           
Cr      17.19245505      21.83735082       9.03176919                           
I       21.61505845      17.86691022       7.48054615                           
I       18.41963295      19.99248422       7.48054615                           
I       14.98116476      21.69701689       7.48054615                           
I       19.64683378      17.86691200      10.58299027                           
I       19.40374683      21.69701590      10.58299027                           
I       15.96527556      19.99248344      10.58299027                           
Cr      17.19245505      25.80777825       9.03176873                           
Cr      13.75396404      27.79299195       9.03176919                           
I       18.17656744      23.82255135       7.48054615                           
I       14.98114194      25.94812535       7.48054615                           
I       11.54267375      27.65265802       7.48054615                           
I       16.20834277      23.82255313      10.58299027                           
I       15.96525581      27.65265703      10.58299027                           
I       12.52678455      25.94812457      10.58299027                           
Cr      13.75396404      31.76341938       9.03176873                           
Cr      10.31547303      33.74863308       9.03176919                           
I       14.73807643      29.77819249       7.48054615                           
I       11.54265093      31.90376649       7.48054615                           
I        8.10418274      33.60829915       7.48054615                           
I       12.76985176      29.77819426      10.58299027                           
I       12.52676480      33.60829816      10.58299027                           
I        9.08829354      31.90376570      10.58299027                           
Cr      27.50792808      19.85213711       9.03176873                           
Cr      24.06943707      21.83735082       9.03176919                           
I       28.49204047      17.86691022       7.48054615                           
I       25.29661498      19.99248422       7.48054615                           
I       21.85814678      21.69701689       7.48054615                           
I       26.52381580      17.86691200      10.58299027                           
I       26.28072885      21.69701590      10.58299027                           
I       22.84225758      19.99248344      10.58299027                           
Cr      24.06943707      25.80777825       9.03176873                           
Cr      20.63094606      27.79299195       9.03176919                           
I       25.05354946      23.82255135       7.48054615                           
I       21.85812397      25.94812535       7.48054615                           
I       18.41965577      27.65265802       7.48054615                           
I       23.08532479      23.82255313      10.58299027                           
I       22.84223784      27.65265703      10.58299027                           
I       19.40376657      25.94812457      10.58299027                           
Cr      20.63094606      31.76341938       9.03176873                           
Cr      17.19245505      33.74863308       9.03176919                           
I       21.61505845      29.77819249       7.48054615                           
I       18.41963295      31.90376649       7.48054615                           
I       14.98116476      33.60829915       7.48054615                           
I       19.64683378      29.77819426      10.58299027                           
I       19.40374683      33.60829816      10.58299027                           
I       15.96527556      31.90376570      10.58299027                           
%ENDBLOCK POSITIONS_ABS                                                         
%BLOCK SPECIES                                                                  
Cr Cr 24 -1 15                                                                  
I   I  53 -1 15                                                                 
CrU Cr 24 -1 15                                                                 
%ENDBLOCK SPECIES                                                               
%BLOCK SPECIES_ATOMIC_SET                                                       
Cr  "SOLVE INIT SPIN=3"                                                         
I   "SOLVE"                                                                     
CrU "SOLVE INIT SPIN=3"                                                         
%ENDBLOCK SPECIES_ATOMIC_SET                                                    
%BLOCK HUBBARD                                                                  
CrU 2 0.0 0.0 -10.0 0.00 -0.20                                                  
%ENDBLOCK HUBBARD                                                               
%BLOCK SPECIES_LDOS_GROUPS                                                      
Cr                                                                              
I                                                                               
CrU                                                                             
%ENDBLOCK SPECIES_LDOS_GROUPS                                                   
%BLOCK SPECIES_POT                                                              
Cr  "/work/e89/e89/phsmea/U_det/Cr.PBE-paw.abinit"                              
I   "/work/e89/e89/phsmea/U_det/I.PBE-paw.abinit"                               
CrU "/work/e89/e89/phsmea/U_det/Cr.PBE-paw.abinit"                              
%ENDBLOCK SPECIES_POT                                                           

--------------------------------------------------------------------------------
-------------------------------- END INPUT FILE --------------------------------
--------------------------------------------------------------------------------


 
 ESDF WARNING(1): "charge" (esdf_physical) has no units. Assume "e".
<<<<<<<<<<<<<<<<<<<<<<<<<<<<<<<<< Full system >>>>>>>>>>>>>>>>>>>>>>>>>>>>>>>>>>
<<<<<<<<<<<<<<<<<<<<<<<<<<< PAW Dataset information >>>>>>>>>>>>>>>>>>>>>>>>>>>
File: /work/e89/e89/phsmea/U_det/Cr.PBE-paw.abinit; rc = 2.11 bohr; shape type =  2; rshape = 1.80 bohr;
  Atomic number: 24;  ionic charge: 14.000000
    Partial Wave 1: l = 0
    Partial Wave 2: l = 0
    Partial Wave 3: l = 1
    Partial Wave 4: l = 1
    Partial Wave 5: l = 2
    Partial Wave 6: l = 2
  Core charge supplied for Nonlinear Core Corrections
File: /work/e89/e89/phsmea/U_det/I.PBE-paw.abinit; rc = 2.30 bohr; shape type =  2; rshape = 2.11 bohr;
  Atomic number: 53;  ionic charge:  7.000000
    Partial Wave 1: l = 0
    Partial Wave 2: l = 0
    Partial Wave 3: l = 1
    Partial Wave 4: l = 1
  Core charge supplied for Nonlinear Core Corrections
<<<<<<<<<<<<<<<<<<<<<<<<<<<<<<<<<<<<<<< >>>>>>>>>>>>>>>>>>>>>>>>>>>>>>>>>>>>>>>

-------------------------- Atom counting information ---------------------------
Symbol    Natoms    Nngwfs    Nprojs
  Cr        72       936      1296
  I        216       864      1728
.......   ......    ......    ......
Totals:    288      1800      3024
--------------------------------------------------------------------------------

=============================== PSINC grid sizes ===============================
                      Simulation cell:  175 x 175 x  75
                              FFT-box:  175 x 175 x  75
                                  PPD:    5 x   5 x   1
================================================================================

Atom SCF Calculation for Cr : Z (AE atom) =  24 : Z (PS atom) =  14
Config String: 3s2.0 3p6.0 3d5.0 4s1.0 4p0.0 INIT SPIN=3
Orbitals (num,occ):  5     2.00 6.00 5.00 1.00 0.00
Orbitals   (num,l):  5        0    1    2    0    1
Atom SCF converged after  64 iterations to a total energy of    -87.07044631
Adjusting orbital occupancies:
Orbitals (num,spin,occ):  5  1     1.00 3.00 3.50 1.00 0.00
Orbitals   (num,spin,l):  5  1        0    1    2    0    1
Orbitals (num,spin,occ):  5  2     1.00 3.00 1.00 0.50 0.00
Orbitals   (num,spin,l):  5  2        0    1    2    0    1

Atom SCF Calculation for I  : Z (AE atom) =  53 : Z (PS atom) =   7
Config String: 5s2.0 5p5.0
Orbitals (num,occ):  2     2.00 5.00
Orbitals   (num,l):  2        0    1
Atom SCF converged after  28 iterations to a total energy of    -11.61352964

Atom SCF Calculation for Cr : Z (AE atom) =  24 : Z (PS atom) =  14
Config String: 3s2.0 3p6.0 3d5.0 4s1.0 4p0.0 INIT SPIN=3
Orbitals (num,occ):  5     2.00 6.00 5.00 1.00 0.00
Orbitals   (num,l):  5        0    1    2    0    1
Atom SCF converged after  64 iterations to a total energy of    -87.07044631
Adjusting orbital occupancies:
Orbitals (num,spin,occ):  5  1     1.00 3.00 3.50 1.00 0.00
Orbitals   (num,spin,l):  5  1        0    1    2    0    1
Orbitals (num,spin,occ):  5  2     1.00 3.00 1.00 0.50 0.00
Orbitals   (num,spin,l):  5  2        0    1    2    0    1

Atom SCF Calculation for Cr : Z (AE atom) =  24 : Z (PS atom) =  14
Config String: 3s2.0 3p6.0 3d5.0 4s1.0 4p0.0 INIT SPIN=3
Orbitals (num,occ):  5     2.00 6.00 5.00 1.00 0.00
Orbitals   (num,l):  5        0    1    2    0    1
Atom SCF converged after  64 iterations to a total energy of    -87.07044631

Atom SCF Calculation for I  : Z (AE atom) =  53 : Z (PS atom) =   7
Config String: 5s2.0 5p5.0
Orbitals (num,occ):  2     2.00 5.00
Orbitals   (num,l):  2        0    1
Atom SCF converged after  28 iterations to a total energy of    -11.61352964

Atom SCF Calculation for Cr : Z (AE atom) =  24 : Z (PS atom) =  14
Config String: 3s2.0 3p6.0 3d5.0 4s1.0 4p0.0 INIT SPIN=3
Orbitals (num,occ):  5     2.00 6.00 5.00 1.00 0.00
Orbitals   (num,l):  5        0    1    2    0    1
Atom SCF converged after  64 iterations to a total energy of    -87.07044631
Calculating Ewald energy ...             6126.916246 Hartree

============================= Charge Augmentation ==============================
                           Aug box size:   49 x  49 x  45
================================================================================

================================= Core Density =================================
               Core den box size:  125 x 125 x 117
================================================================================
Density kernel initialisation

################################################################################
###################### NGWF self-consistent optimisation #######################
################################################################################
|ITER|    RMS GRADIENT   |     TOTAL ENERGY    |   step   |     Epredicted      
   0     0.00009870068650  -8812.31243042758797   2.348962  -8816.22169605122508        
   1     0.00006751861165  -8816.44134741568087   1.629112  -8817.78008390545619        
   2     0.00004160713245  -8817.81604023186810   1.808199  -8818.36504242123374        
   3     0.00002882186109  -8818.38934545376469   1.957692  -8818.67967188373950        
   4     0.00002025200901  -8818.68102556783197   1.140073  -8818.76090731958175        
   5     0.00001352835420  -8818.76107044293531   1.994079  -8818.82319659608766        
   6     0.00001152193475  -8818.82210258083614   1.749715  -8818.86091898256018        
   7     0.00000899811206  -8818.85948614656991   1.582355  -8818.88052712070385        
   8     0.00000728117529  -8818.87952999174377   0.929829  -8818.88795140791990        
   9     0.00000481956924  -8818.88766634489548   2.215335  -8818.89646027250819        
  10     0.00000454193260  -8818.89608491490253   1.587155  -8818.90143908983191        
  11     0.00000316967686  -8818.90110105189160   2.276452  -8818.90485094686846        
  12     0.00000393892925  -8818.90390648329594   0.976335  -8818.90649430337908        
  13     0.00000212746893  -8818.90646213864056   2.540692  -8818.90840051452324        
  14     0.00000234198774  -8818.90810955637789   2.535667  -8818.91010376080158        
  15     0.00000218683323  -8818.90889525741477   3.603036  -8818.91042915805519        
  16     0.00000440006931  -8818.90700482964530   0.735380  -8818.90943708668237        
  17     0.00000196050362  -8818.90944218746154   2.030886  -8818.91077441654670        
  18     0.00000161583318  -8818.91074914202363   1.476916  -8818.91142103587117        
  19     0.00000109090123  -8818.91133785181046   1.521516  -8818.91162810462083        
  20     0.00000073055339  -8818.91155027601599   1.165196  -8818.91165651443953        
  21     0.00000053625780  -8818.91163644715016   2.506762  -8818.91173856506066        
  22     0.00000076489983  -8818.91164883712008   1.112587  -8818.91176004152476        
  23     0.00000053194970  -8818.91174569612849   3.716121  -8818.91190691661905        
  24     0.00000110267549  -8818.91173516518029   0.662056  -8818.91187268615977        
  25     0.00000032995476  -8818.91186804014433   0.949081  -8818.91188449682522        
  26     0.00000022555477  -8818.91187789008472   4.393957  -8818.91190831570384        
  27     0.00000089296895  -8818.91176741399431   1.069814  -8818.91191314762727        
  28     0.00000053756476  -8818.91190458128040   1.992038  -8818.91199548497389        
  29     0.00000069138563  -8818.91193702020973   0.001643  -8818.91193716840462        

================================================================================
           ---------------- ENERGY COMPONENTS (Eh) ----------------
           | Kinetic                    :     1819.30738731581005 |
           | Core Hartree               :   -28372.37971775889310 |
           | CoreHart (non-coul chg cor):        0.00000000000000
           | Hartree                    :    13503.85216422611300 |
           | Exchange-correlation       :    -1248.28541118098860 |
           | Hubbard DFT+U correction   :        0.01038328758893 |
           | Ewald                      :     6126.91624599049464 |
           | Dij0                       :     -555.71556226746759 |
           | Dijhartree                 :      248.95091738849658 |
           | Exc [AE core]              :   -42415.09448129873640 |
           | Exc DC [AE core]           :    -1638.56264829913107 |
           | Exc [PS core]              :    -1032.28617509173955 |
           | Exc DC [PS core]           :     -982.36287264595887 |
           | Exc [Core]                 :   -41041.23993575423080 |
           | Total [Sphere]             :     -648.33301533174381 |
           | Total                      :    -8818.91196345161734 |
           --------------------------------------------------------
           Integrated compensation chrg.:      189.13433356103309
           Integrated density           :     2519.99993595246315
           Integrated spin density      :      215.99995949252860
           Integrated |spin density|    :      164.13719477571581
================================================================================

  30     0.00000058984837  -8818.91196345162280  <-- CG                                 

################################################################################
DFT+U information on atom      1 of Hubbard species CrU 
################################################################################
Occupancy matrix of Hubbard site      1 and spin      1 is 
  m_l =   -2          -1           0           1           2
  0.88446863  0.15709662  0.00000106  0.00000116  0.00000378
  0.15713560  0.76134240 -0.00000179  0.00000352 -0.00000296
 -0.00000041  0.00000038  0.99068209  0.00000059  0.00000039
  0.00000243  0.00000345 -0.00000061  0.76133910 -0.15713263
  0.00000372 -0.00000164 -0.00000042 -0.15709512  0.88447246
################################################################################
Occupancy matrix of Hubbard site      1 and spin      2 is 
  m_l =   -2          -1           0           1           2
  0.26892226 -0.13555689 -0.00000324  0.00000229  0.00000266
 -0.13558838  0.37664480  0.00000141  0.00000160 -0.00000090
 -0.00000182 -0.00000047  0.16573232 -0.00000034  0.00000110
  0.00000122  0.00000166  0.00000070  0.37664289  0.13558986
  0.00000271 -0.00000201  0.00000189  0.13555961  0.26892610
WARNING: DFT+U ENERGY of Hubbard site      1 and spin      2 is negative.
################################################################################
Total occupancy of Hubbard site      1 is         5.73917304 e
Local magnetic moment of Hubbard site      1 is   2.82543632 mu_B
DFT+U energy of Hubbard site      1 is            0.01038329 Ha
################################################################################

##### For calculating the Hubbard U and Hund J #################################
DFT+U information on Hubbard site      1 of species CrU  and spin      1
The average Hxc+local potential is            -19.00471829 eV.
The average Hubbard potential is                0.10000000 eV.
The average non-local PAW contribution is     -10.94338077 eV.
################################################################################
DFT+U information on Hubbard site      1 of species CrU  and spin      2
The average Hxc+local potential is            -17.95912006 eV.
The average Hubbard potential is               -0.10000000 eV.
The average non-local PAW contribution is      -9.52654074 eV.
################################################################################

======================== Writing density and potential =========================
Writing "U_0_-0.2_ps_density.cube" ... done
Writing "U_0_-0.2_ps_spindensity.cube" ... done
Writing "U_0_-0.2_ae_density.cube" ... done
Writing "U_0_-0.2_ae_spindensity.cube" ... done
Writing "U_0_-0.2_potential.cube" ... done
Writing "U_0_-0.2_electrostatic_potential.cube" ... done
================================================================================

    Mulliken Atomic Populations
    ---------------------------
Species  Ion    Total   Charge (e)    Spin (hbar)
=================================================
  Cr     1      13.831      0.169      1.68
  Cr     2      13.831      0.169      1.68
  I      3       7.056     -0.056     -0.06
  I      4       7.056     -0.056     -0.06
  I      5       7.056     -0.056     -0.06
  I      6       7.056     -0.056     -0.06
  I      7       7.056     -0.056     -0.06
  I      8       7.056     -0.056     -0.06
  Cr     9      13.831      0.169      1.68
  Cr    10      13.831      0.169      1.68
  I     11       7.056     -0.056     -0.06
  I     12       7.056     -0.056     -0.06
  I     13       7.056     -0.056     -0.06
  I     14       7.056     -0.056     -0.06
  I     15       7.056     -0.056     -0.06
  I     16       7.056     -0.056     -0.06
  Cr    17      13.831      0.169      1.68
  Cr    18      13.831      0.169      1.68
  I     19       7.056     -0.056     -0.06
  I     20       7.056     -0.056     -0.06
  I     21       7.056     -0.056     -0.06
  I     22       7.056     -0.056     -0.06
  I     23       7.056     -0.056     -0.06
  I     24       7.056     -0.056     -0.06
  Cr    25      13.831      0.169      1.68
  Cr    26      13.831      0.169      1.68
  I     27       7.056     -0.056     -0.06
  I     28       7.056     -0.056     -0.06
  I     29       7.056     -0.056     -0.06
  I     30       7.056     -0.056     -0.06
  I     31       7.056     -0.056     -0.06
  I     32       7.056     -0.056     -0.06
  Cr    33      13.831      0.169      1.68
  Cr    34      13.831      0.169      1.68
  I     35       7.056     -0.056     -0.06
  I     36       7.056     -0.056     -0.06
  I     37       7.056     -0.056     -0.06
  I     38       7.056     -0.056     -0.06
  I     39       7.056     -0.056     -0.06
  I     40       7.056     -0.056     -0.06
  Cr    41      13.830      0.170      1.68
  Cr    42      13.831      0.169      1.68
  I     43       7.056     -0.056     -0.06
  I     44       7.056     -0.056     -0.06
  I     45       7.056     -0.056     -0.06
  I     46       7.056     -0.056     -0.06
  I     47       7.056     -0.056     -0.06
  I     48       7.056     -0.056     -0.06
  Cr    49      13.831      0.169      1.68
  Cr    50      13.831      0.169      1.68
  I     51       7.056     -0.056     -0.06
  I     52       7.056     -0.056     -0.06
  I     53       7.056     -0.056     -0.06
  I     54       7.056     -0.056     -0.06
  I     55       7.056     -0.056     -0.06
  I     56       7.056     -0.056     -0.06
  Cr    57      13.831      0.169      1.68
  Cr    58      13.831      0.169      1.68
  I     59       7.056     -0.056     -0.06
  I     60       7.056     -0.056     -0.06
  I     61       7.056     -0.056     -0.06
  I     62       7.056     -0.056     -0.06
  I     63       7.056     -0.056     -0.06
  I     64       7.056     -0.056     -0.06
  Cr    65      13.830      0.170      1.68
  Cr    66      13.833      0.167      1.68
  I     67       7.056     -0.056     -0.06
  I     68       7.056     -0.056     -0.06
  I     69       7.056     -0.056     -0.06
  I     70       7.056     -0.056     -0.06
  I     71       7.056     -0.056     -0.06
  I     72       7.056     -0.056     -0.06
  Cr    73      13.831      0.169      1.68
  Cr    74      13.831      0.169      1.68
  I     75       7.056     -0.056     -0.06
  I     76       7.056     -0.056     -0.06
  I     77       7.056     -0.056     -0.06
  I     78       7.056     -0.056     -0.06
  I     79       7.056     -0.056     -0.06
  I     80       7.056     -0.056     -0.06
  Cr    81      13.831      0.169      1.68
  Cr    82      13.831      0.169      1.68
  I     83       7.056     -0.056     -0.06
  I     84       7.056     -0.056     -0.06
  I     85       7.056     -0.056     -0.06
  I     86       7.056     -0.056     -0.06
  I     87       7.056     -0.056     -0.06
  I     88       7.056     -0.056     -0.06
  Cr    89      13.831      0.169      1.68
  Cr    90      13.831      0.169      1.68
  I     91       7.056     -0.056     -0.06
  I     92       7.056     -0.056     -0.06
  I     93       7.056     -0.056     -0.06
  I     94       7.056     -0.056     -0.06
  I     95       7.056     -0.056     -0.06
  I     96       7.056     -0.056     -0.06
  Cr    97      13.830      0.170      1.68
  Cr    98      13.831      0.169      1.68
  I     99       7.056     -0.056     -0.06
  I    100       7.056     -0.056     -0.06
  I    101       7.056     -0.056     -0.06
  I    102       7.056     -0.056     -0.06
  I    103       7.056     -0.056     -0.06
  I    104       7.056     -0.056     -0.06
  Cr   105      13.831      0.169      1.68
  Cr   106      13.831      0.169      1.68
  I    107       7.056     -0.056     -0.06
  I    108       7.056     -0.056     -0.06
  I    109       7.056     -0.056     -0.06
  I    110       7.056     -0.056     -0.06
  I    111       7.056     -0.056     -0.06
  I    112       7.056     -0.056     -0.06
  Cr   113      13.831      0.169      1.68
  Cr   114      13.831      0.169      1.68
  I    115       7.056     -0.056     -0.06
  I    116       7.056     -0.056     -0.06
  I    117       7.056     -0.056     -0.06
  I    118       7.056     -0.056     -0.06
  I    119       7.056     -0.056     -0.06
  I    120       7.056     -0.056     -0.06
  Cr   121      13.826      0.174      1.63
  Cr   122      13.833      0.167      1.68
  I    123       7.056     -0.056     -0.05
  I    124       7.056     -0.056     -0.05
  I    125       7.056     -0.056     -0.06
  I    126       7.056     -0.056     -0.05
  I    127       7.056     -0.056     -0.05
  I    128       7.056     -0.056     -0.06
  Cr   129      13.830      0.170      1.68
  Cr   130      13.831      0.169      1.68
  I    131       7.056     -0.056     -0.06
  I    132       7.056     -0.056     -0.06
  I    133       7.056     -0.056     -0.06
  I    134       7.056     -0.056     -0.06
  I    135       7.056     -0.056     -0.06
  I    136       7.056     -0.056     -0.06
  Cr   137      13.831      0.169      1.68
  Cr   138      13.831      0.169      1.68
  I    139       7.056     -0.056     -0.06
  I    140       7.056     -0.056     -0.06
  I    141       7.056     -0.056     -0.06
  I    142       7.056     -0.056     -0.06
  I    143       7.056     -0.056     -0.06
  I    144       7.056     -0.056     -0.06
  Cr   145      13.831      0.169      1.68
  Cr   146      13.831      0.169      1.68
  I    147       7.056     -0.056     -0.06
  I    148       7.056     -0.056     -0.06
  I    149       7.056     -0.056     -0.06
  I    150       7.056     -0.056     -0.06
  I    151       7.056     -0.056     -0.06
  I    152       7.056     -0.056     -0.06
  Cr   153      13.831      0.169      1.68
  Cr   154      13.831      0.169      1.68
  I    155       7.056     -0.056     -0.06
  I    156       7.056     -0.056     -0.06
  I    157       7.056     -0.056     -0.06
  I    158       7.056     -0.056     -0.06
  I    159       7.056     -0.056     -0.06
  I    160       7.056     -0.056     -0.06
  Cr   161      13.831      0.169      1.68
  Cr   162      13.831      0.169      1.68
  I    163       7.056     -0.056     -0.06
  I    164       7.056     -0.056     -0.06
  I    165       7.057     -0.057     -0.06
  I    166       7.056     -0.056     -0.06
  I    167       7.056     -0.056     -0.06
  I    168       7.056     -0.056     -0.06
  Cr   169      13.831      0.169      1.68
  Cr   170      13.831      0.169      1.68
  I    171       7.056     -0.056     -0.06
  I    172       7.056     -0.056     -0.06
  I    173       7.056     -0.056     -0.06
  I    174       7.056     -0.056     -0.06
  I    175       7.056     -0.056     -0.06
  I    176       7.056     -0.056     -0.06
  Cr   177      13.831      0.169      1.68
  Cr   178      13.831      0.169      1.68
  I    179       7.056     -0.056     -0.06
  I    180       7.056     -0.056     -0.06
  I    181       7.056     -0.056     -0.06
  I    182       7.056     -0.056     -0.06
  I    183       7.056     -0.056     -0.06
  I    184       7.056     -0.056     -0.06
  Cr   185      13.831      0.169      1.68
  Cr   186      13.831      0.169      1.68
  I    187       7.056     -0.056     -0.06
  I    188       7.056     -0.056     -0.06
  I    189       7.056     -0.056     -0.06
  I    190       7.056     -0.056     -0.06
  I    191       7.056     -0.056     -0.06
  I    192       7.056     -0.056     -0.06
  Cr   193      13.831      0.169      1.68
  Cr   194      13.831      0.169      1.68
  I    195       7.056     -0.056     -0.06
  I    196       7.056     -0.056     -0.06
  I    197       7.056     -0.056     -0.06
  I    198       7.056     -0.056     -0.06
  I    199       7.056     -0.056     -0.06
  I    200       7.056     -0.056     -0.06
  Cr   201      13.831      0.169      1.68
  Cr   202      13.831      0.169      1.68
  I    203       7.056     -0.056     -0.06
  I    204       7.056     -0.056     -0.06
  I    205       7.056     -0.056     -0.06
  I    206       7.056     -0.056     -0.06
  I    207       7.056     -0.056     -0.06
  I    208       7.056     -0.056     -0.06
  Cr   209      13.831      0.169      1.68
  Cr   210      13.831      0.169      1.68
  I    211       7.056     -0.056     -0.06
  I    212       7.056     -0.056     -0.06
  I    213       7.056     -0.056     -0.06
  I    214       7.056     -0.056     -0.06
  I    215       7.056     -0.056     -0.06
  I    216       7.056     -0.056     -0.06
  Cr   217      13.830      0.170      1.68
  Cr   218      13.833      0.167      1.68
  I    219       7.056     -0.056     -0.06
  I    220       7.056     -0.056     -0.06
  I    221       7.056     -0.056     -0.05
  I    222       7.057     -0.057     -0.06
  I    223       7.056     -0.056     -0.06
  I    224       7.056     -0.056     -0.05
  Cr   225      13.831      0.169      1.68
  Cr   226      13.831      0.169      1.68
  I    227       7.056     -0.056     -0.06
  I    228       7.056     -0.056     -0.06
  I    229       7.056     -0.056     -0.06
  I    230       7.056     -0.056     -0.06
  I    231       7.056     -0.056     -0.06
  I    232       7.056     -0.056     -0.06
  Cr   233      13.831      0.169      1.68
  Cr   234      13.831      0.169      1.68
  I    235       7.056     -0.056     -0.06
  I    236       7.056     -0.056     -0.06
  I    237       7.056     -0.056     -0.06
  I    238       7.056     -0.056     -0.06
  I    239       7.056     -0.056     -0.06
  I    240       7.056     -0.056     -0.06
  Cr   241      13.831      0.169      1.68
  Cr   242      13.832      0.168      1.68
  I    243       7.056     -0.056     -0.06
  I    244       7.056     -0.056     -0.06
  I    245       7.056     -0.056     -0.06
  I    246       7.056     -0.056     -0.06
  I    247       7.056     -0.056     -0.06
  I    248       7.056     -0.056     -0.06
  Cr   249      13.831      0.169      1.68
  Cr   250      13.831      0.169      1.68
  I    251       7.056     -0.056     -0.06
  I    252       7.056     -0.056     -0.06
  I    253       7.056     -0.056     -0.06
  I    254       7.056     -0.056     -0.06
  I    255       7.056     -0.056     -0.06
  I    256       7.056     -0.056     -0.06
  Cr   257      13.831      0.169      1.68
  Cr   258      13.831      0.169      1.68
  I    259       7.056     -0.056     -0.06
  I    260       7.056     -0.056     -0.06
  I    261       7.056     -0.056     -0.06
  I    262       7.056     -0.056     -0.06
  I    263       7.056     -0.056     -0.06
  I    264       7.056     -0.056     -0.06
  Cr   265      13.831      0.169      1.68
  Cr   266      13.831      0.169      1.68
  I    267       7.056     -0.056     -0.06
  I    268       7.056     -0.056     -0.06
  I    269       7.056     -0.056     -0.06
  I    270       7.056     -0.056     -0.06
  I    271       7.056     -0.056     -0.06
  I    272       7.056     -0.056     -0.06
  Cr   273      13.831      0.169      1.68
  Cr   274      13.831      0.169      1.68
  I    275       7.056     -0.056     -0.06
  I    276       7.056     -0.056     -0.06
  I    277       7.056     -0.056     -0.06
  I    278       7.056     -0.056     -0.06
  I    279       7.056     -0.056     -0.06
  I    280       7.056     -0.056     -0.06
  Cr   281      13.831      0.169      1.68
  Cr   282      13.831      0.169      1.68
  I    283       7.056     -0.056     -0.06
  I    284       7.056     -0.056     -0.06
  I    285       7.056     -0.056     -0.06
  I    286       7.056     -0.056     -0.06
  I    287       7.056     -0.056     -0.06
  I    288       7.056     -0.056     -0.06
=================================================

        Bond         Population      Spin       Length (bohr)
=============================================================
 Cr  186 -- I   191        0.31     -0.03      4.86412
 Cr  178 -- I   183        0.31     -0.03      4.86412
 Cr  154 -- I   159        0.31     -0.03      4.86412
 Cr  162 -- I   167        0.31     -0.03      4.86412
 Cr  146 -- I   151        0.31     -0.03      4.86412
 Cr   82 -- I    87        0.31     -0.03      4.86412
 Cr  250 -- I   255        0.31     -0.03      4.86412
 Cr  226 -- I   231        0.31     -0.03      4.86412
 Cr   74 -- I    79        0.31     -0.03      4.86412
 Cr   10 -- I    15        0.31     -0.03      4.86412
 Cr  106 -- I   111        0.31     -0.03      4.86412
 Cr   34 -- I    39        0.31     -0.03      4.86412
 Cr   42 -- I    47        0.31     -0.03      4.86412
 Cr   18 -- I    23        0.31     -0.03      4.86412
 Cr  114 -- I   119        0.31     -0.03      4.86412
 Cr    2 -- I     7        0.31     -0.03      4.86412
 Cr   90 -- I    95        0.31     -0.03      4.86412
 Cr  218 -- I   223        0.31     -0.03      4.86412
 Cr  258 -- I   263        0.31     -0.03      4.86412
 Cr  234 -- I   239        0.31     -0.03      4.86412
 Cr  274 -- I   279        0.31     -0.03      4.86412
 Cr  130 -- I   135        0.31     -0.03      4.86412
 Cr   98 -- I   103        0.31     -0.03      4.86412
 Cr   66 -- I    71        0.31     -0.03      4.86412
 Cr  242 -- I   247        0.31     -0.03      4.86412
 Cr   50 -- I    55        0.31     -0.03      4.86412
 Cr   26 -- I    31        0.31     -0.03      4.86412
 Cr   58 -- I    63        0.31     -0.03      4.86412
 Cr  210 -- I   215        0.31     -0.03      4.86412
 Cr  170 -- I   175        0.31     -0.03      4.86412
 Cr  122 -- I   127        0.31     -0.03      4.86412
 Cr  266 -- I   271        0.31     -0.03      4.86412
 Cr  282 -- I   287        0.31     -0.03      4.86412
 Cr  138 -- I   143        0.31     -0.03      4.86412
 Cr  202 -- I   207        0.31     -0.03      4.86412
 Cr  194 -- I   199        0.31     -0.03      4.86412
 Cr  210 -- I   212        0.31     -0.03      4.86413
 Cr  138 -- I   140        0.31     -0.03      4.86413
 Cr   90 -- I    92        0.31     -0.03      4.86413
 Cr  258 -- I   260        0.31     -0.03      4.86413
 Cr  234 -- I   236        0.31     -0.03      4.86413
 Cr   42 -- I    44        0.31     -0.03      4.86413
 Cr   66 -- I    68        0.31     -0.03      4.86413
 Cr  114 -- I   116        0.31     -0.03      4.86413
 Cr   18 -- I    20        0.31     -0.03      4.86413
 Cr  162 -- I   164        0.31     -0.03      4.86413
 Cr  282 -- I   284        0.31     -0.03      4.86413
 Cr  186 -- I   188        0.31     -0.03      4.86413
 Cr  194 -- I   196        0.31     -0.03      4.86413
 Cr  202 -- I   204        0.31     -0.03      4.86413
 Cr   50 -- I    52        0.31     -0.03      4.86413
 Cr   58 -- I    60        0.31     -0.03      4.86413
 Cr  122 -- I   124        0.31     -0.03      4.86413
 Cr  266 -- I   268        0.31     -0.03      4.86413
 Cr  274 -- I   276        0.31     -0.03      4.86413
 Cr  130 -- I   132        0.31     -0.03      4.86413
 Cr  154 -- I   156        0.31     -0.03      4.86413
 Cr  170 -- I   172        0.31     -0.03      4.86413
 Cr   34 -- I    36        0.31     -0.03      4.86413
 Cr   10 -- I    12        0.31     -0.03      4.86413
 Cr  146 -- I   148        0.31     -0.03      4.86413
 Cr    2 -- I     4        0.31     -0.03      4.86413
 Cr   26 -- I    28        0.31     -0.03      4.86413
 Cr  242 -- I   244        0.31     -0.03      4.86413
 Cr  218 -- I   220        0.31     -0.03      4.86413
 Cr  178 -- I   180        0.31     -0.03      4.86413
 Cr   74 -- I    76        0.31     -0.03      4.86413
 Cr   98 -- I   100        0.31     -0.03      4.86413
 Cr  250 -- I   252        0.31     -0.03      4.86413
 Cr  226 -- I   228        0.31     -0.03      4.86413
 Cr  106 -- I   108        0.31     -0.03      4.86413
 Cr   82 -- I    84        0.31     -0.03      4.86413
 Cr  153 -- I   159        0.31     -0.03      4.86414
 Cr  177 -- I   183        0.31     -0.03      4.86414
 Cr   41 -- I    47        0.31     -0.03      4.86414
 Cr  161 -- I   167        0.31     -0.03      4.86414
 Cr    9 -- I    15        0.31     -0.03      4.86414
 Cr  185 -- I   191        0.31     -0.03      4.86414
 Cr   33 -- I    39        0.31     -0.03      4.86414
 Cr   17 -- I    23        0.31     -0.03      4.86414
 Cr  113 -- I   119        0.31     -0.03      4.86414
 Cr   89 -- I    95        0.31     -0.03      4.86414
 Cr  233 -- I   239        0.31     -0.03      4.86414
 Cr  257 -- I   263        0.31     -0.03      4.86414
 Cr  249 -- I   255        0.31     -0.03      4.86414
 Cr  225 -- I   231        0.31     -0.03      4.86414
 Cr   81 -- I    87        0.31     -0.03      4.86414
 Cr  105 -- I   111        0.31     -0.03      4.86414
 Cr  209 -- I   215        0.31     -0.03      4.86414
 Cr   65 -- I    71        0.31     -0.03      4.86414
 Cr   57 -- I    63        0.31     -0.03      4.86414
 Cr  137 -- I   143        0.31     -0.03      4.86414
 Cr  201 -- I   207        0.31     -0.03      4.86414
 Cr  281 -- I   287        0.31     -0.03      4.86414
 Cr  129 -- I   135        0.31     -0.03      4.86414
 Cr  273 -- I   279        0.31     -0.03      4.86414
 Cr   73 -- I    79        0.31     -0.03      4.86414
 Cr  217 -- I   223        0.31     -0.03      4.86414
 Cr  145 -- I   151        0.31     -0.03      4.86414
 Cr    1 -- I     7        0.31     -0.03      4.86414
 Cr  121 -- I   127        0.31     -0.03      4.86414
 Cr  241 -- I   247        0.31     -0.03      4.86414
 Cr   97 -- I   103        0.31     -0.03      4.86414
 Cr  265 -- I   271        0.31     -0.03      4.86414
 Cr   49 -- I    55        0.31     -0.03      4.86414
 Cr   25 -- I    31        0.31     -0.03      4.86414
 Cr  169 -- I   175        0.31     -0.03      4.86414
 Cr  193 -- I   199        0.31     -0.03      4.86414
 Cr  193 -- I   196        0.31     -0.03      4.86414
 Cr   49 -- I    52        0.31     -0.03      4.86414
 Cr  265 -- I   268        0.31     -0.03      4.86414
 Cr  121 -- I   124        0.31     -0.03      4.86414
 Cr  257 -- I   260        0.31     -0.03      4.86414
 Cr  169 -- I   172        0.31     -0.03      4.86414
 Cr  145 -- I   148        0.31     -0.03      4.86414
 Cr   65 -- I    68        0.31     -0.03      4.86414
 Cr  137 -- I   140        0.31     -0.03      4.86414
 Cr  185 -- I   188        0.31     -0.03      4.86414
 Cr  281 -- I   284        0.31     -0.03      4.86414
 Cr  209 -- I   212        0.31     -0.03      4.86414
 Cr  161 -- I   164        0.31     -0.03      4.86414
 Cr    1 -- I     4        0.31     -0.03      4.86414
 Cr   41 -- I    44        0.31     -0.03      4.86414
 Cr  113 -- I   116        0.31     -0.03      4.86414
 Cr  241 -- I   244        0.31     -0.03      4.86414
 Cr   25 -- I    28        0.31     -0.03      4.86414
 Cr   17 -- I    20        0.31     -0.03      4.86414
 Cr   89 -- I    92        0.31     -0.03      4.86414
 Cr  217 -- I   220        0.31     -0.03      4.86414
 Cr  233 -- I   236        0.31     -0.03      4.86414
 Cr   97 -- I   100        0.31     -0.03      4.86414
 Cr   73 -- I    76        0.31     -0.03      4.86414
 Cr  273 -- I   276        0.31     -0.03      4.86414
 Cr  201 -- I   204        0.31     -0.03      4.86414
 Cr  129 -- I   132        0.31     -0.03      4.86414
 Cr   57 -- I    60        0.31     -0.03      4.86414
 Cr   81 -- I    84        0.31     -0.03      4.86414
 Cr  105 -- I   108        0.31     -0.03      4.86414
 Cr  249 -- I   252        0.31     -0.03      4.86414
 Cr  225 -- I   228        0.31     -0.03      4.86414
 Cr  153 -- I   156        0.31     -0.03      4.86414
 Cr   33 -- I    36        0.31     -0.03      4.86414
 Cr  177 -- I   180        0.31     -0.03      4.86414
 Cr    9 -- I    12        0.31     -0.03      4.86414
 I    27 -- Cr  114        0.31     -0.03      5.11128
 I     3 -- Cr   90        0.31     -0.03      5.11128
 I    51 -- Cr  138        0.31     -0.03      5.11128
 Cr  266 -- I   275        0.31     -0.03      5.11128
 Cr  122 -- I   131        0.31     -0.03      5.11128
 Cr   74 -- I    83        0.31     -0.03      5.11128
 Cr   98 -- I   107        0.31     -0.03      5.11128
 Cr  242 -- I   251        0.31     -0.03      5.11128
 Cr  218 -- I   227        0.31     -0.03      5.11128
 Cr  146 -- I   155        0.31     -0.03      5.11128
 Cr  170 -- I   179        0.31     -0.03      5.11128
 Cr   50 -- I    59        0.31     -0.03      5.11128
 Cr    2 -- I    11        0.31     -0.03      5.11128
 Cr   26 -- I    35        0.31     -0.03      5.11128
 Cr  194 -- I   203        0.31     -0.03      5.11128
 I   171 -- Cr  258        0.31     -0.03      5.11128
 I   195 -- Cr  282        0.31     -0.03      5.11128
 I   147 -- Cr  234        0.31     -0.03      5.11128
 Cr  194 -- I   197        0.31     -0.03      5.11128
 Cr  210 -- I   213        0.31     -0.03      5.11128
 Cr  250 -- I   253        0.31     -0.03      5.11128
 Cr  242 -- I   245        0.31     -0.03      5.11128
 Cr   50 -- I    53        0.31     -0.03      5.11128
 Cr  234 -- I   237        0.31     -0.03      5.11128
 Cr  226 -- I   229        0.31     -0.03      5.11128
 Cr  218 -- I   221        0.31     -0.03      5.11128
 Cr   26 -- I    29        0.31     -0.03      5.11128
 Cr  154 -- I   157        0.31     -0.03      5.11128
 Cr  146 -- I   149        0.31     -0.03      5.11128
 Cr  106 -- I   109        0.31     -0.03      5.11128
 Cr  282 -- I   285        0.31     -0.03      5.11128
 Cr    2 -- I     5        0.31     -0.03      5.11128
 Cr  122 -- I   125        0.31     -0.03      5.11128
 Cr  130 -- I   133        0.31     -0.03      5.11128
 Cr   10 -- I    13        0.31     -0.03      5.11128
 Cr   58 -- I    61        0.31     -0.03      5.11128
 Cr   42 -- I    45        0.31     -0.03      5.11128
 Cr   82 -- I    85        0.31     -0.03      5.11128
 Cr   34 -- I    37        0.31     -0.03      5.11128
 Cr   18 -- I    21        0.31     -0.03      5.11128
 Cr  138 -- I   141        0.31     -0.03      5.11128
 Cr   98 -- I   101        0.31     -0.03      5.11128
 Cr   90 -- I    93        0.31     -0.03      5.11128
 Cr  114 -- I   117        0.31     -0.03      5.11128
 Cr   66 -- I    69        0.31     -0.03      5.11128
 Cr  202 -- I   205        0.31     -0.03      5.11128
 Cr  170 -- I   173        0.31     -0.03      5.11128
 Cr   74 -- I    77        0.31     -0.03      5.11128
 Cr  274 -- I   277        0.31     -0.03      5.11128
 Cr  162 -- I   165        0.31     -0.03      5.11128
 Cr  266 -- I   269        0.31     -0.03      5.11128
 Cr  178 -- I   181        0.31     -0.03      5.11128
 Cr  258 -- I   261        0.31     -0.03      5.11128
 Cr  186 -- I   189        0.31     -0.03      5.11128
 Cr  186 -- I   243        0.31     -0.03      5.11128
 Cr  210 -- I   267        0.31     -0.03      5.11128
 Cr  162 -- I   219        0.31     -0.03      5.11128
 Cr  274 -- I   283        0.31     -0.03      5.11128
 Cr  130 -- I   139        0.31     -0.03      5.11128
 Cr   82 -- I    91        0.31     -0.03      5.11128
 Cr  106 -- I   115        0.31     -0.03      5.11128
 Cr   34 -- I    43        0.31     -0.03      5.11128
 Cr   58 -- I    67        0.31     -0.03      5.11128
 Cr  226 -- I   235        0.31     -0.03      5.11128
 Cr  202 -- I   211        0.31     -0.03      5.11128
 Cr  178 -- I   187        0.31     -0.03      5.11128
 Cr   10 -- I    19        0.31     -0.03      5.11128
 Cr  154 -- I   163        0.31     -0.03      5.11128
 Cr  250 -- I   259        0.31     -0.03      5.11128
 Cr   18 -- I    75        0.31     -0.03      5.11128
 Cr   66 -- I   123        0.31     -0.03      5.11128
 Cr   42 -- I    99        0.31     -0.03      5.11128
 Cr  234 -- I   240        0.31     -0.03      5.11128
 Cr  138 -- I   144        0.31     -0.03      5.11128
 Cr  282 -- I   288        0.31     -0.03      5.11128
 Cr  258 -- I   264        0.31     -0.03      5.11128
 Cr  114 -- I   120        0.31     -0.03      5.11128
 Cr   90 -- I    96        0.31     -0.03      5.11128
 Cr  242 -- I   248        0.31     -0.03      5.11128
 Cr  122 -- I   128        0.31     -0.03      5.11128
 Cr  218 -- I   224        0.31     -0.03      5.11128
 Cr  194 -- I   200        0.31     -0.03      5.11128
 Cr   98 -- I   104        0.31     -0.03      5.11128
 Cr   74 -- I    80        0.31     -0.03      5.11128
 Cr  210 -- I   216        0.31     -0.03      5.11128
 Cr   42 -- I    48        0.31     -0.03      5.11128
 Cr   66 -- I    72        0.31     -0.03      5.11128
 Cr   50 -- I    56        0.31     -0.03      5.11128
 Cr   18 -- I    24        0.31     -0.03      5.11128
 Cr   26 -- I    32        0.31     -0.03      5.11128
 Cr   10 -- I    16        0.31     -0.03      5.11128
 Cr  250 -- I   256        0.31     -0.03      5.11128
 Cr    2 -- I     8        0.31     -0.03      5.11128
 Cr   34 -- I    40        0.31     -0.03      5.11128
 Cr  146 -- I   152        0.31     -0.03      5.11128
 Cr  266 -- I   272        0.31     -0.03      5.11128
 Cr  154 -- I   160        0.31     -0.03      5.11128
 Cr   58 -- I    64        0.31     -0.03      5.11128
 Cr  202 -- I   208        0.31     -0.03      5.11128
 Cr  162 -- I   168        0.31     -0.03      5.11128
 Cr  170 -- I   176        0.31     -0.03      5.11128
 Cr  178 -- I   184        0.31     -0.03      5.11128
 Cr  130 -- I   136        0.31     -0.03      5.11128
 Cr  226 -- I   232        0.31     -0.03      5.11128
 Cr  106 -- I   112        0.31     -0.03      5.11128
 Cr   82 -- I    88        0.31     -0.03      5.11128
 Cr  186 -- I   192        0.31     -0.03      5.11128
 Cr  274 -- I   280        0.31     -0.03      5.11128
 Cr  130 -- I   142        0.31     -0.03      5.11128
 Cr  274 -- I   286        0.31     -0.03      5.11128
 Cr  250 -- I   262        0.31     -0.03      5.11128
 Cr  226 -- I   238        0.31     -0.03      5.11128
 Cr  106 -- I   118        0.31     -0.03      5.11128
 Cr   82 -- I    94        0.31     -0.03      5.11128
 Cr  266 -- I   278        0.31     -0.03      5.11128
 Cr  242 -- I   254        0.31     -0.03      5.11128
 Cr  218 -- I   230        0.31     -0.03      5.11128
 Cr  194 -- I   206        0.31     -0.03      5.11128
 Cr  122 -- I   134        0.31     -0.03      5.11128
 Cr   34 -- I    46        0.31     -0.03      5.11128
 Cr  154 -- I   166        0.31     -0.03      5.11128
 Cr   26 -- I    38        0.31     -0.03      5.11128
 Cr   10 -- I    22        0.31     -0.03      5.11128
 Cr   58 -- I    70        0.31     -0.03      5.11128
 Cr   50 -- I    62        0.31     -0.03      5.11128
 Cr    2 -- I    14        0.31     -0.03      5.11128
 Cr  170 -- I   182        0.31     -0.03      5.11128
 Cr   74 -- I    86        0.31     -0.03      5.11128
 Cr   98 -- I   110        0.31     -0.03      5.11128
 Cr  146 -- I   158        0.31     -0.03      5.11128
 Cr  202 -- I   214        0.31     -0.03      5.11128
 Cr  178 -- I   190        0.31     -0.03      5.11128
 I   198 -- Cr  282        0.31     -0.03      5.11128
 I   150 -- Cr  234        0.31     -0.03      5.11128
 I   174 -- Cr  258        0.31     -0.03      5.11128
 I    54 -- Cr  138        0.31     -0.03      5.11128
 I     6 -- Cr   90        0.31     -0.03      5.11128
 I    30 -- Cr  114        0.31     -0.03      5.11128
 Cr   18 -- I    78        0.31     -0.03      5.11128
 Cr   42 -- I   102        0.31     -0.03      5.11128
 Cr   66 -- I   126        0.31     -0.03      5.11128
 Cr  210 -- I   270        0.31     -0.03      5.11128
 Cr  162 -- I   222        0.31     -0.03      5.11128
 Cr  186 -- I   246        0.31     -0.03      5.11128
 Cr  265 -- I   270        0.31     -0.03      5.11131
 Cr  241 -- I   246        0.31     -0.03      5.11131
 Cr  217 -- I   222        0.31     -0.03      5.11131
 Cr   97 -- I   102        0.31     -0.03      5.11131
 Cr   73 -- I    78        0.31     -0.03      5.11131
 Cr  121 -- I   126        0.31     -0.03      5.11131
 Cr  249 -- I   280        0.31     -0.03      5.11131
 Cr  185 -- I   216        0.31     -0.03      5.11131
 Cr  161 -- I   192        0.31     -0.03      5.11131
 Cr  153 -- I   184        0.31     -0.03      5.11131
 Cr  177 -- I   208        0.31     -0.03      5.11131
 Cr   89 -- I   120        0.31     -0.03      5.11131
 Cr   33 -- I    64        0.31     -0.03      5.11131
 Cr  129 -- I   232        0.31     -0.03      5.11131
 Cr  113 -- I   144        0.31     -0.03      5.11131
 Cr  233 -- I   264        0.31     -0.03      5.11131
 Cr   41 -- I    72        0.31     -0.03      5.11131
 Cr   17 -- I    48        0.31     -0.03      5.11131
 Cr  105 -- I   136        0.31     -0.03      5.11131
 Cr   81 -- I   112        0.31     -0.03      5.11131
 Cr  137 -- I   240        0.31     -0.03      5.11131
 Cr    9 -- I    40        0.31     -0.03      5.11131
 Cr  225 -- I   256        0.31     -0.03      5.11131
 Cr  257 -- I   288        0.31     -0.03      5.11131
 Cr  145 -- I   176        0.31     -0.03      5.11131
 Cr  121 -- I   224        0.31     -0.03      5.11131
 Cr  241 -- I   272        0.31     -0.03      5.11131
 Cr   73 -- I   104        0.31     -0.03      5.11131
 Cr    1 -- I    32        0.31     -0.03      5.11131
 Cr   97 -- I   128        0.31     -0.03      5.11131
 Cr   25 -- I    56        0.31     -0.03      5.11131
 Cr  169 -- I   200        0.31     -0.03      5.11131
 Cr  217 -- I   248        0.31     -0.03      5.11131
 Cr  273 -- I   278        0.31     -0.03      5.11131
 Cr   81 -- I    86        0.31     -0.03      5.11131
 Cr  105 -- I   110        0.31     -0.03      5.11131
 Cr  281 -- I   286        0.31     -0.03      5.11131
 Cr  129 -- I   134        0.31     -0.03      5.11131
 Cr  249 -- I   254        0.31     -0.03      5.11131
 Cr  225 -- I   230        0.31     -0.03      5.11131
 Cr  137 -- I   142        0.31     -0.03      5.11131
 Cr  257 -- I   262        0.31     -0.03      5.11131
 Cr   65 -- I    70        0.31     -0.03      5.11131
 Cr   57 -- I    62        0.31     -0.03      5.11131
 Cr  113 -- I   118        0.31     -0.03      5.11131
 Cr   41 -- I    46        0.31     -0.03      5.11131
 Cr   17 -- I    22        0.31     -0.03      5.11131
 Cr  233 -- I   238        0.31     -0.03      5.11131
[...]
*    I     148     -0.00132301  -0.00229438  -0.00478502 *
*    I     149     -0.00133125   0.00233483  -0.00478181 *
*    I     150     -0.00268773  -0.00001288   0.00478129 *
*    I     151      0.00132682   0.00229376   0.00478500 *
*    I     152      0.00133069  -0.00233556   0.00478213 *
*    Cr    153      0.00001156  -0.00000046   0.00000054 *
*    Cr    154     -0.00001888  -0.00000430  -0.00000066 *
*    I     155      0.00268926   0.00002272  -0.00478171 *
*    I     156     -0.00132163  -0.00229444  -0.00478261 *
*    I     157     -0.00132956   0.00233499  -0.00478428 *
*    I     158     -0.00268702  -0.00000969   0.00478018 *
*    I     159      0.00132660   0.00229090   0.00478334 *
*    I     160      0.00132857  -0.00233309   0.00478212 *
*    Cr    161      0.00001345  -0.00000873   0.00000025 *
*    Cr    162     -0.00002302   0.00001164   0.00000090 *
*    I     163      0.00268627   0.00002036  -0.00478223 *
*    I     164     -0.00132250  -0.00229793  -0.00478456 *
*    I     165     -0.00133087   0.00233108  -0.00478091 *
*    I     166     -0.00268880  -0.00001577   0.00478279 *
*    I     167      0.00132869   0.00229536   0.00478437 *
*    I     168      0.00132277  -0.00233724   0.00477993 *
*    Cr    169     -0.00001084  -0.00000036  -0.00000159 *
*    Cr    170     -0.00002165   0.00000353  -0.00000172 *
*    I     171      0.00268876   0.00002071  -0.00478392 *
*    I     172     -0.00131971  -0.00229703  -0.00478719 *
*    I     173     -0.00133571   0.00233596  -0.00478653 *
*    I     174     -0.00268273  -0.00001327   0.00478108 *
*    I     175      0.00132969   0.00229162   0.00478753 *
*    I     176      0.00132710  -0.00233756   0.00478488 *
*    Cr    177     -0.00002085   0.00001131  -0.00000259 *
*    Cr    178      0.00000528  -0.00000304  -0.00000202 *
*    I     179      0.00269006   0.00002212  -0.00478567 *
*    I     180     -0.00132240  -0.00229379  -0.00478526 *
*    I     181     -0.00133193   0.00233189  -0.00478142 *
*    I     182     -0.00268954  -0.00001073   0.00478601 *
*    I     183      0.00132493   0.00229209   0.00478516 *
*    I     184      0.00132595  -0.00233974   0.00478188 *
*    Cr    185      0.00000599  -0.00001055   0.00000042 *
*    Cr    186     -0.00000579   0.00001722  -0.00000080 *
*    I     187      0.00268553   0.00001652  -0.00477920 *
*    I     188     -0.00131895  -0.00229389  -0.00478327 *
*    I     189     -0.00133158   0.00233393  -0.00478112 *
*    I     190     -0.00268915  -0.00001540   0.00478267 *
*    I     191      0.00132713   0.00229247   0.00478362 *
*    I     192      0.00132678  -0.00233961   0.00478363 *
*    Cr    193      0.00000522  -0.00000473   0.00000063 *
*    Cr    194     -0.00001967   0.00000903  -0.00000057 *
*    I     195      0.00268602   0.00001486  -0.00478249 *
*    I     196     -0.00132257  -0.00229455  -0.00478524 *
*    I     197     -0.00133008   0.00233167  -0.00478298 *
*    I     198     -0.00268666  -0.00001659   0.00478558 *
*    I     199      0.00132528   0.00229314   0.00478461 *
*    I     200      0.00132715  -0.00233632   0.00478310 *
*    Cr    201     -0.00000449   0.00001025  -0.00000242 *
*    Cr    202     -0.00001395   0.00001773  -0.00000162 *
*    I     203      0.00268506   0.00001547  -0.00478076 *
*    I     204     -0.00132246  -0.00229252  -0.00478382 *
*    I     205     -0.00133355   0.00233132  -0.00478047 *
*    I     206     -0.00268646  -0.00001867   0.00478459 *
*    I     207      0.00132514   0.00229246   0.00478342 *
*    I     208      0.00132755  -0.00233757   0.00478289 *
*    Cr    209     -0.00001237   0.00001135   0.00000112 *
*    Cr    210      0.00000778   0.00001383   0.00000092 *
*    I     211      0.00268464   0.00001491  -0.00477962 *
*    I     212     -0.00132345  -0.00229518  -0.00478368 *
*    I     213     -0.00133491   0.00233308  -0.00478013 *
*    I     214     -0.00268646  -0.00001374   0.00478080 *
*    I     215      0.00132592   0.00229550   0.00478473 *
*    I     216      0.00132724  -0.00233738   0.00478093 *
*    Cr    217      0.00001566  -0.00002957   0.00000170 *
*    Cr    218      0.00004043   0.00003147   0.00000093 *
*    I     219      0.00268374   0.00001876  -0.00477786 *
*    I     220     -0.00134104  -0.00230193  -0.00478215 *
*    I     221     -0.00164650   0.00188907  -0.00446198 *
*    I     222     -0.00268625  -0.00001441   0.00478176 *
*    I     223      0.00133280   0.00229756   0.00478276 *
*    I     224      0.00078693  -0.00238746   0.00446429 *
*    Cr    225      0.00000949  -0.00000922  -0.00000254 *
*    Cr    226     -0.00003437  -0.00000699  -0.00000174 *
*    I     227      0.00268759   0.00001949  -0.00477843 *
*    I     228     -0.00132405  -0.00229178  -0.00478150 *
*    I     229     -0.00133264   0.00232740  -0.00477729 *
*    I     230     -0.00269701  -0.00002670   0.00477989 *
*    I     231      0.00132568   0.00229149   0.00477985 *
*    I     232      0.00132565  -0.00233292   0.00478035 *
*    Cr    233     -0.00000440  -0.00000214  -0.00000094 *
*    Cr    234     -0.00003122  -0.00000304  -0.00000084 *
*    I     235      0.00268768   0.00001457  -0.00478104 *
*    I     236     -0.00132370  -0.00229301  -0.00478446 *
*    I     237     -0.00133183   0.00233284  -0.00478109 *
*    I     238     -0.00268597  -0.00001495   0.00478140 *
*    I     239      0.00132535   0.00229266   0.00478386 *
*    I     240      0.00133123  -0.00233200   0.00478114 *
*    Cr    241      0.00000957  -0.00003396  -0.00000191 *
*    Cr    242     -0.00001822  -0.00000289  -0.00000084 *
*    I     243      0.00268523   0.00001608  -0.00478164 *
*    I     244     -0.00132096  -0.00229575  -0.00478353 *
*    I     245     -0.00133467   0.00232786  -0.00477560 *
*    I     246     -0.00268576  -0.00001484   0.00478326 *
*    I     247      0.00132636   0.00229321   0.00478363 *
*    I     248      0.00132295  -0.00233393   0.00477695 *
*    Cr    249      0.00000615  -0.00002052  -0.00000165 *
*    Cr    250     -0.00002161  -0.00000549  -0.00000204 *
*    I     251      0.00268312   0.00001642  -0.00478088 *
*    I     252     -0.00132181  -0.00229235  -0.00478280 *
*    I     253     -0.00133167   0.00232679  -0.00477683 *
*    I     254     -0.00268219  -0.00001086   0.00477960 *
*    I     255      0.00132561   0.00229462   0.00478544 *
*    I     256      0.00132536  -0.00233107   0.00477588 *
*    Cr    257     -0.00000015  -0.00001308   0.00000026 *
*    Cr    258     -0.00002685   0.00000073  -0.00000053 *
*    I     259      0.00268546   0.00001589  -0.00478146 *
*    I     260     -0.00132317  -0.00229197  -0.00478494 *
*    I     261     -0.00132896   0.00233452  -0.00478256 *
*    I     262     -0.00268366  -0.00001338   0.00478187 *
*    I     263      0.00132466   0.00229487   0.00478461 *
*    I     264      0.00132938  -0.00233171   0.00478112 *
*    Cr    265      0.00001274  -0.00002805  -0.00000102 *
*    Cr    266      0.00000037  -0.00000484  -0.00000071 *
*    I     267      0.00268664   0.00001622  -0.00478174 *
*    I     268     -0.00131906  -0.00229815  -0.00478796 *
*    I     269     -0.00133740   0.00233356  -0.00478425 *
*    I     270     -0.00268551  -0.00001028   0.00478175 *
*    I     271      0.00132953   0.00229286   0.00478727 *
*    I     272      0.00132614  -0.00233803   0.00478462 *
*    Cr    273      0.00001409  -0.00002318  -0.00000069 *
*    Cr    274     -0.00001144  -0.00000680   0.00000052 *
*    I     275      0.00268851   0.00002312  -0.00478595 *
*    I     276     -0.00132110  -0.00229312  -0.00478488 *
*    I     277     -0.00133099   0.00233302  -0.00478146 *
*    I     278     -0.00268615  -0.00000813   0.00478460 *
*    I     279      0.00132693   0.00229353   0.00478460 *
*    I     280      0.00132853  -0.00233183   0.00478185 *
*    Cr    281      0.00001037  -0.00000963   0.00000018 *
*    Cr    282     -0.00001340   0.00000415   0.00000037 *
*    I     283      0.00268618   0.00002030  -0.00478368 *
*    I     284     -0.00132301  -0.00229396  -0.00478458 *
*    I     285     -0.00132772   0.00233510  -0.00478371 *
*    I     286     -0.00268489  -0.00001304   0.00478211 *
*    I     287      0.00132407   0.00229130   0.00478557 *
*    I     288      0.00132935  -0.00233276   0.00478203 *
*                                                        *
**********************************************************
* TOTAL:            0.00000000   0.00000000   0.00000000 *
**********************************************************
 
 
***********************************************************
********** Summary of Forces (values in Eh/a) *************
*                                                         *
* ---------------------- Minimum ------------------------ *
* Atom:       266, |F|min =    0.00000490                 *
* Components:     Fx|min       Fy|min       Fz|min        *
*               0.00000037  -0.00000484  -0.00000071      *
*                                                         *
* ---------------------- Maximum ------------------------ *
* Atom:        69, |F|max =    0.00549395                 *
* Components:     Fx|max       Fy|max       Fz|max        *
*              -0.00132299   0.00235570  -0.00478371      *
*                                                         *
* ---------------- Root Mean Square Force --------------- *
*                  |F|rms =    0.00473683                 *
* Components:     Fx|rms       Fy|rms       Fz|rms        *
*               0.00163574   0.00163365   0.00413438      *
***********************************************************
 

------------------------------ TIMING INFORMATION ------------------------------
AVERAGE TIME:   30307.712s on     56 proc(s)                                    
TOTAL TIME:     30307.713s on     56 proc(s)                                    
==================== AVERAGE TIMINGS FROM ALL PROCS (CUMULATIVE) =====================
|| TAG                                         #calls     cpu time   %total  Gflops ||
|| hubbard_species_proj                       :     1        0.00s   0.000%  ------ ||
|| hubbard_ngwf_on_grid                       :     1        0.00s   0.000%  ------ ||
|| sw_bessel_init_cpu                         :     1        0.01s   0.000%  ------ || (1 procs only)
|| hubbard_projector_character                :     1        0.00s   0.000%  ------ ||
|| hash_table_free                            :    63        0.00s   0.000%  ------ ||
|| hubbard_ngwf_select                        :     1        0.00s   0.000%  ------ ||
|| density_fftbox_interp_mult_imbal           : 22308        0.00s   0.000%  ------ ||
|| linalg_invert_sym_matrix                   :     4        0.16s   0.001%  ------ || (1 procs only)
|| hubbard_tensorial_correction               :     2        0.00s   0.000%  ------ ||
|| ewald_calculate_forces_realspace           :     1        0.01s   0.000%  ------ ||
|| onetep.F90 final imbalance                 :     1        0.02s   0.000%  ------ ||
|| linalg_dgemv                               :    44        0.02s   0.000%  ------ ||
|| sparse_blacstospam3_real_fast_imbal        :    96        0.03s   0.000%  ------ ||
|| ewald_calculate_energy                     :     1        0.04s   0.000%  ------ ||
|| sparse_set_to_garbage                      :  1378        0.06s   0.000%  ------ ||
|| ewald_calculate_forces_recipspace          :     1        0.08s   0.000%  ------ ||
|| paw_tcore_hartree_on_grid                  :     1        0.10s   0.000%  ------ ||
|| onetep.F90 main loop imbalance             :     1        0.13s   0.000%  ------ ||
|| pseudo_make_structure_factor               :     1        0.15s   0.000%  ------ ||
|| sw_init                                    :   675        0.15s   0.001%  ------ ||
|| paw_dij_hartree                            :   374        0.16s   0.001%  ------ ||
|| sparse_spam3toblacs_real_fast_B2           :  4592        0.18s   0.001%  ------ ||
|| restart_hamiltonian_write                  :     2        0.19s   0.001%  ------ ||
|| ewald_calculate_forces                     :     1        0.19s   0.001%  ------ ||
|| sparse_spam3toblacs_real_fast_imbal        :    82        0.33s   0.001%  ------ ||
|| hubbard_projection_mtx                     :    65        0.36s   0.001%  ------ ||
|| augmentation_density_forces                :     1        0.37s   0.001%  ------ ||
|| sparse_init                                :     1        0.40s   0.001%  ------ ||
|| paw_tcore_hartree_calc_forces              :     1        0.70s   0.002%  ------ ||
|| basis_extract_function_from_box            :  3985        0.79s   0.003%  ------ ||
|| hubbard_projector_ham                      :   162        1.22s   0.004%  ------ ||
|| hubbard_ham_matrix                         :   163        1.71s   0.006%  ------ ||
|| paw_tcore_density                          :     1        1.75s   0.006%  ------ ||
|| sparse_spam3toblacs_real_fast_B1           :  4592        1.98s   0.007%  ------ ||
|| paw_dataset_init                           :     2        2.15s   0.007%  ------ ||
|| paw_nlcc_calculate_forces                  :     1        2.39s   0.008%  ------ ||
|| paw_sphere_density_on_grid                 :     1        2.79s   0.009%  ------ ||
|| sparse_spam3toblacs_real_fast              :    82        2.86s   0.009%  ------ ||
|| nonsc_forces_ngwfs_calc                    :     1        2.98s   0.010%  ------ ||
|| restart_kernel_write                       :    33        3.00s   0.010%  ------ ||
|| hubbard_energy_total                       :   340        3.70s   0.012%  ------ ||
|| sparse_blacstospam3_real_fast              :    96        5.45s   0.018%  ------ ||
|| paw_species_calc_proj_prec_mat             :     1        5.80s   0.019%  ------ ||
|| ngwfs_initialise_from_radial               :     4        5.81s   0.019%  ------ ||
|| sparse_embed_array_hotelling_invert        :    63        8.44s   0.028%  ------ ||
|| dense_eigensolve                           :    38       10.54s   0.035%  ------ ||
|| hubbard_calculate_forces                   :     1       10.82s   0.036%  ------ ||
|| edft_diag_ngwf_ham                         :    36       12.44s   0.041%  ------ ||
|| integrals_grad_spam3                       :     4       13.75s   0.045%  ------ ||
|| edft_apply_smearing_operator               :    18       18.81s   0.062%  ------ ||
|| sparse_trace                               : 11594       18.94s   0.062%  ------ ||
|| energy_and_force_init_cell                 :     1       20.85s   0.069%  ------ ||
|| kernel_purify                              :   500       22.09s   0.073%  ------ ||
|| ngwf_gradient_coeffs                       :    31       27.58s   0.091%  ------ ||
|| kernel_fix                                 :   155       28.74s   0.095%  ------ ||
|| lnv_gradient_norm                          :   155       28.86s   0.095%  ------ ||
|| hubbard_projector_update                   :     1       30.60s   0.101%  ------ ||
|| fourier_filter_cell                        :   390       31.16s   0.103% 138.944 ||
|| eigenstates_calculate                      :     1       32.09s   0.106%  ------ ||
|| hamiltonian_energy_components              :     1       37.18s   0.123%  ------ ||
|| basis_copy_function_to_box                 : 39021       38.57s   0.127%  ------ ||
|| projectors_func_grad_ovlp_box_spam3        :     6       40.42s   0.133%  ------ ||
|| aug_nl_calculate_forces                    :     1       41.49s   0.137%  ------ ||
|| hartree_on_grid_single                     :   337       44.23s   0.146%  ------ ||
|| fourier_apply_box_pair                     :  6088       46.48s   0.153%  1.780k ||
|| fourier_interpolate_cell                   :   676       54.04s   0.178% 138.876 ||
|| density_init_guess_real                    :     2       58.10s   0.192%  ------ ||
|| augmentation_screen_dij_spam3              :   336      110.35s   0.364%  ------ ||
|| forces_calculate                           :     1      127.33s   0.420%  ------ ||
|| cell_grid_deposit_box_real                 : 27198      136.87s   0.452%  ------ ||
|| sparse_product                             : 22438      161.19s   0.532%  ------ ||
|| aug_nonlocal_mat_spam3_embed_array         :   342      174.52s   0.576%  ------ ||
|| paw_dij_xc                                 :   374      182.40s   0.602%  ------ ||
|| fourier_apply_cell_backward                :  3034      199.38s   0.658% 152.008 ||
|| fourier_filter                             :  7348      226.20s   0.746%  ------ ||
|| fourier_apply_cell_forward                 :  3034      227.81s   0.752% 133.037 ||
|| restart_ngwfs_tightbox_output              :    30      231.81s   0.765%  ------ ||
|| aug_density_on_grid_spam3                  :   338      244.40s   0.806%  ------ ||
|| projectors_init_fftbox_recip               :   823      293.62s   0.969%  ------ ||
|| cell_grid_extract_box_real                 : 17228      298.26s   0.984%  ------ ||
|| fourier_interpolate                        :  7348      349.41s   1.153%  ------ ||
|| function_ops_brappd_ketppd_spam3           :   256      400.29s   1.321%  ------ ||
|| properties_calculate                       :     1      457.36s   1.509%  ------ ||
|| xc_energy_potential                        :   337      471.19s   1.555%  ------ ||
|| edft_calculate                             :     1      896.04s   2.956%  ------ ||
|| density_fftbox_deposit_to_cell             : 22308      915.80s   3.022%  ------ ||
|| projectors_func_ovlp_box_spam3             :   258      986.38s   3.255%  ------ ||
|| integrals_kinetic_spam3                    :   126     1078.10s   3.557%  ------ ||
|| basis_dot_function_with_box                : 13.69M    1501.48s   4.954%  ------ ||
|| potential_apply_to_ngwf_batch              :   980     1725.66s   5.694%  ------ ||
|| projectors_gradient_batch                  :   372     2018.15s   6.659%  ------ ||
|| fourier_apply_box                          : 120.5k    2893.80s   9.548%  1.879k ||
|| integrals_locpot_mat_els_batch             :   980     2935.91s   9.687%  ------ ||
|| fourier_interpolate_product                : 21728     3130.43s  10.329%  ------ ||
|| density_fftbox_interpolate_multiply        : 22308     3297.40s  10.880%  ------ ||
|| basis_add_function_to_box                  : 27.23M    3342.17s  11.027%  ------ ||
|| projectors_grad_precond_batch              :   186     3980.29s  13.133%  ------ ||
|| integrals_locpot_dbl_grid                  :   328     4665.54s  15.394%  ------ ||
|| density_batch_interp_deposit               :  2028     5269.12s  17.385%  ------ ||
|| density_batch_row_sums                     :  2028     5923.28s  19.544%  ------ ||
|| ngwf_gradient_build_batch                  :   186     6641.84s  21.915%  ------ ||
|| ngwf_gradient_batch                        :   186     9521.44s  31.416%  ------ ||
|| ngwf_gradient_lnv                          :    31     9673.09s  31.916%  ------ ||
|| density_on_dbl_grid                        :   676    11284.63s  37.234%  ------ ||
|| hamiltonian_lhxc_calculate                 :   334    12153.86s  40.102%  ------ ||
|| lnv_denskernel_optimise_cg                 :    31    14967.03s  49.384%  ------ ||
|| ngwf_cg_optimise                           :     1    28620.93s  94.434%  ------ ||
|| energy_and_forces                          :     1    30285.40s  99.926%  ------ ||
|| total_time                                 :     1    30307.71s 100.000%  ------ ||
======================================================================================
Overhead of generating timer report: 
- 0 ms averaging over threads,
- 5 ms ensuring consistency across MPI ranks,
- 61 ms printing in order.

Job completed: 22-10-2024 18:10 (+0100)

onetep_launcher: ONETEP seems to have finished correctly (zero exit code).
                 Brought to you by PID 21659 on nid001388.
