==================================================================================
It's Fri 22 Dec 2023 03:41:56 PM GMT.
*** Starting onetep_launcher (node nid006634, PIDs 143989 143990 143991 143992 143993 143994 143995 143996 143997 143998 143999 144000 144001 144002 144003 144004)...
    - ONETEP arguments: Co_cluster2_nspF.dat
    - Current directory: /mnt/lustre/a2fs-work3/work/e89/e89/ndmh3/Co_NPs/Co_cluster2_nspF
    - Launcher executable directory: /mnt/lustre/a2fs-work3/work/e89/e89/ndmh3/onetep_mea/utils
    - (-e) ONETEP executable specified through command-line: /work/e89/e89/ndmh3/onetep_mea/bin/onetep.archer2_2023_cray
      ... trying /work/e89/e89/ndmh3/onetep_mea/bin/onetep.archer2_2023_cray
          -> looks OK
*** Setting up environment...
    - (-s) Process stack size: unlimited
    - (-t) OMP_NUM_THREADS: 8
    - (-o) OMP_STACKSIZE: 64M
    - (-c) Maximum core file size: 2048000
    - (-d) decfort_dump_flag: n
    - (-m) I_MPI_OFA_TRANSLATION_CACHE: 0
    - (-m) I_MPI_DAPL_TRANSLATION_CACHE: 0
    - (-m) I_MPI_DAPL_UD_TRANSLATION_CACHE: 0
*** Starting ONETEP...
    - /work/e89/e89/ndmh3/onetep_mea/bin/onetep.archer2_2023_cray Co_cluster2_nspF.dat
=================================================================================
_________________________________________________________________________________
 +---------------------------------------------------------------+
 |                                                               |
 |        ####### #     # ####### ####### ####### ######         |
 |        #     # ##    # #          #    #       #     #        |
 |        #     # # #   # #          #    #       #     #        |
 |        #     # #  #  # #####      #    #####   ######         |
 |        #     # #   # # #          #    #       #              |
 |        #     # #    ## #          #    #       #              |
 |        ####### #     # #######    #    ####### #              |
 |                                                               |
 |        Linear-Scaling Ab Initio Total Energy Program          |
 |                                                               |
 |          Release for academic collaborators of ODG            |
 |                                             Version 7.1.2     |
 | Remote: git@github.com:Miesaz/onetep_mea.git                  |
 | Local branch: spin_polarised_ngwfs                            |
 | Commit ID: 7c696c95508db11e862ad6ab7bb9dc094f19dd1c           |
 | Date: Sun Dec 17 13:55:03 2023 +0000                          |
 | Locally modified files:                                       |
 |   config/conf.archer2_2023_cray                               |
 |                                                               |
 +---------------------------------------------------------------+
 |                                                               |
 |  Authors:                                                     |
 |  Jacek Dziedzic, Peter D. Haynes, Nicholas D. M. Hine,        |
 |  Arash A. Mostofi, Mike C. Payne and Chris-Kriton Skylaris    |
 |                                                               |
 |  Contributors:                                                |
 |  J. Aarons, L. Andrinopoulos, P. W. Avraam, R. A. Bell,       |
 |  A. Bhandari, G. A. Bramley, R. J. Charlton, S. J. Clark,     |
 |  R. J. Clements, G. C. Constantinescu, F. Corsetti,           |
 |  N. Corsini, O. Dieguez, S. M. M. Dubois, K. K. B. Duff,      |
 |  J. M. Escartin, M. Escobar Azor, A. Greco,                   |
 |  H. Helal, Q. O. Hill, L. P. Lee, J.-H. Li,                   |
 |  E. B. Linscott, G. Moynihan, D. D. O`Regan,                  |
 |  O. K. Okan, M. J. S. Phipps, C. J. Pickard,                  |
 |  J. C. A. Prentice, M. I. J. Probert, L. E. Ratcliff,         |
 |  M. Robinson, A. Ruiz Serrano, M. dos Santos Dias,            |
 |  J. S. Spencer, E. W. Tait, G. Teobaldi, D. Turban,           |
 |  V. Vitale, K. A. Wilkinson, C. Weber, J. C. Womack,          |
 |  N. Yeung and T. J. Zuehlsdorff                               |
 |                                                               |
 |                                   Copyright (c) 2004-2023     |
 |                                                               |
 |  Please cite:                                                 |
 |  "The ONETEP linear-scaling density functional theory program"|
 |   J. Chem. Phys. 152(17) 174111 (2020)                        |
 |                                                               |
 |          in all publications arising from your use of ONETEP. |
 |                                                               |
 +---------------------------------------------------------------+
 |                                                               |
 |   ONETEP is based on developments described in the following  |
 |   publications:                                               |
 |                                                               |
 |  "Nonorthogonal generalized Wannier function pseudopotential  |
 |   plane-wave method".                                         |
 |   C.-K. Skylaris, A. A. Mostofi, P. D. Haynes, O. Dieguez,    |
 |   M. C. Payne.                                                |
 |   Phys. Rev. B 66 035119 (2002).                              |
 |                                                               |
 |  "Preconditioned iterative minimization for linear-scaling    |
 |   electronic structure calculations".                         |
 |   A. A. Mostofi, P. D. Haynes, C.-K. Skylaris, M. C. Payne.   |
 |   J. Chem. Phys. 119(17), pp.8842-8848 (2003).                |
 |                                                               |
 |  "Total-energy calculations on a real space grid with         |
 |   localized functions and a plane-wave basis".                |
 |   A. A. Mostofi, C.-K. Skylaris, P. D. Haynes, M. C. Payne.   |
 |   Comput. Phys. Commun. 147, pp.788-802 (2002).               |
 |                                                               |
 |  "Accurate kinetic energy evaluation in electronic structure  |
 |   calculations with localized functions on real space grids"  |
 |   C.-K. Skylaris, A. A. Mostofi, P. D. Haynes, C. J. Pickard, |
 |   M. C. Payne.                                                |
 |   Comput. Phys. Commun. 140, pp.315-322 (2001).               |
 |                                                               |
 |  "Accurate ionic forces and geometry optimization in linear-  |
 |   scaling density-functional theory with local orbitals"      |
 |   N. D. M. Hine, M. Robinson, P. D. Haynes, C.-K. Skylaris,   |
 |   M. C. Payne, and A. A. Mostofi.                             |
 |   Phys. Rev. B 83 195102 (2011).                              |
 |                                                               |
 +---------------------------------------------------------------+

Job started: 22-12-2023 15:41 (+0000)
 
Reading parameters from file "Co_cluster2_nspF.dat" ...... done

If your calculation crashes here, before "Checking processes and threads..."
is displayed, then your stack size is insufficient.
If so, use "ulimit -s unlimited" at runtime.
You can disable this check with "check_stack_size F".

Checking processes and threads...
   Running with 32 MPI processes.
   There are 16 MPI processes running on the same node as the root process.
   Each MPI process is using: 
               1 threads for simulation cell FFTs.
               1 threads for parallel FFT box operations.
               8 threads for loops over batched FFT box operations.
               8 threads in other parallel regions.
   MPI Interface: S1 (use mpi_f08) (-DMPI -DUSE_MPI_F08).
   MPI_ASYNC_PROTECTS_NONBLOCKING: Yes. MPI_SUBARRAYS_SUPPORTED: Yes.
   GPU Interface: None.
... done

Basic input checks...
Resetting ngwf_cg_rotate to TRUE for EDFT calculations
... done

Reading geometry and species blocks from file "Co_cluster2_nspF.dat" ...... done


--------------------------------------------------------------------------------
---------------------------------- INPUT FILE ----------------------------------
--------------------------------------------------------------------------------

charge : 0                                                                      
cutoff_energy : 600 eV                                                          
do_properties : T                                                               
edft : T                                                                        
edft_spin_fix : 0                                                               
fine_grid_scale : 4                                                             
forces_output_detail : VERBOSE                                                  
maxit_ngwf_cg : 30                                                              
ngwf_threshold_orig : 1e-06                                                     
ngwfs_spin_polarized : F                                                        
output_detail : BRIEF                                                           
paw : T                                                                         
pseudo_path : .                                                                 
read_denskern : F                                                               
read_hamiltonian : F                                                            
read_tightbox_ngwfs : F                                                         
spin : 165                                                                      
task : GEOMETRYOPTIMIZATION                                                     
write_denskern : T                                                              
write_forces : T                                                                
write_hamiltonian : T                                                           
write_tightbox_ngwfs : T                                                        
xc_functional : PBE                                                             
%BLOCK LATTICE_CART                                                             
ang                                                                             
18.46913345       0.00000000       0.00000000                                   
0.00000000      18.46913345       0.00000000                                    
0.00000000       0.00000000      18.46913345                                    
%ENDBLOCK LATTICE_CART                                                          
%BLOCK POSITIONS_ABS                                                            
ang                                                                             
Co1     9.234567     9.234567     9.234567                                      
Co2    11.351850     9.234567     7.926014                                      
Co2    11.351850     9.234567    10.543120                                      
Co2     7.117283     9.234567     7.926014                                      
Co2     7.117283     9.234567    10.543120                                      
Co2     7.926014    11.351850     9.234567                                      
Co2    10.543120    11.351850     9.234567                                      
Co2     7.926014     7.117283     9.234567                                      
Co2    10.543120     7.117283     9.234567                                      
Co2     9.234567     7.926014    11.351850                                      
Co2     9.234567    10.543120    11.351850                                      
Co2     9.234567     7.926014     7.117283                                      
Co2     9.234567    10.543120     7.117283                                      
Co3    13.469133     9.234567     6.617461                                      
Co3    13.469133     9.234567     9.234567                                      
Co3    13.469133     9.234567    11.851673                                      
Co3     5.000000     9.234567     6.617461                                      
Co3     5.000000     9.234567     9.234567                                      
Co3     5.000000     9.234567    11.851673                                      
Co3     6.617461    13.469133     9.234567                                      
Co3     9.234567    13.469133     9.234567                                      
Co3    11.851673    13.469133     9.234567                                      
Co3     6.617461     5.000000     9.234567                                      
Co3     9.234567     5.000000     9.234567                                      
Co3    11.851673     5.000000     9.234567                                      
Co3     9.234567     6.617461    13.469133                                      
Co3     9.234567     9.234567    13.469133                                      
Co3     9.234567    11.851673    13.469133                                      
Co3     9.234567     6.617461     5.000000                                      
Co3     9.234567     9.234567     5.000000                                      
Co3     9.234567    11.851673     5.000000                                      
Co3    11.351850     7.926014    12.660403                                      
Co3    11.351850    10.543120    12.660403                                      
Co3    11.351850     7.926014     5.808730                                      
Co3    11.351850    10.543120     5.808730                                      
Co3     7.117283     7.926014    12.660403                                      
Co3     7.117283    10.543120    12.660403                                      
Co3     7.117283     7.926014     5.808730                                      
Co3     7.117283    10.543120     5.808730                                      
Co3    12.660403    11.351850     7.926014                                      
Co3    12.660403    11.351850    10.543120                                      
Co3     5.808730    11.351850     7.926014                                      
Co3     5.808730    11.351850    10.543120                                      
Co3    12.660403     7.117283     7.926014                                      
Co3    12.660403     7.117283    10.543120                                      
Co3     5.808730     7.117283     7.926014                                      
Co3     5.808730     7.117283    10.543120                                      
Co3     7.926014    12.660403    11.351850                                      
Co3    10.543120    12.660403    11.351850                                      
Co3     7.926014     5.808730    11.351850                                      
Co3    10.543120     5.808730    11.351850                                      
Co3     7.926014    12.660403     7.117283                                      
Co3    10.543120    12.660403     7.117283                                      
Co3     7.926014     5.808730     7.117283                                      
Co3    10.543120     5.808730     7.117283                                      
%ENDBLOCK POSITIONS_ABS                                                         
%BLOCK SPECIES                                                                  
Co1 Co 27 -1 10.0                                                               
Co2 Co 27 -1 10.0                                                               
Co3 Co 27 -1 10.0                                                               
%ENDBLOCK SPECIES                                                               
%BLOCK SPECIES_ATOMIC_SET                                                       
Co1 "SOLVE INIT SPIN=3"                                                         
Co2 "SOLVE INIT SPIN=3"                                                         
Co3 "SOLVE INIT SPIN=3"                                                         
%ENDBLOCK SPECIES_ATOMIC_SET                                                    
%BLOCK SPECIES_LDOS_GROUPS                                                      
Co1                                                                             
Co2                                                                             
Co3                                                                             
%ENDBLOCK SPECIES_LDOS_GROUPS                                                   
%BLOCK SPECIES_POT                                                              
Co1 Co.PBE-paw.abinit                                                           
Co2 Co.PBE-paw.abinit                                                           
Co3 Co.PBE-paw.abinit                                                           
%ENDBLOCK SPECIES_POT                                                           

--------------------------------------------------------------------------------
-------------------------------- END INPUT FILE --------------------------------
--------------------------------------------------------------------------------


 
<<<<<<<<<<<<<<<<<<<<<<<<<<<<<<<<< Full system >>>>>>>>>>>>>>>>>>>>>>>>>>>>>>>>>>
<<<<<<<<<<<<<<<<<<<<<<<<<<< PAW Dataset information >>>>>>>>>>>>>>>>>>>>>>>>>>>
File: Co.PBE-paw.abinit; rc = 2.11 bohr; shape type =  2; rshape = 1.60 bohr;
  Atomic number: 27;  ionic charge: 17.000000
    Partial Wave 1: l = 0
    Partial Wave 2: l = 0
    Partial Wave 3: l = 1
    Partial Wave 4: l = 1
    Partial Wave 5: l = 2
    Partial Wave 6: l = 2
  Core charge supplied for Nonlinear Core Corrections
<<<<<<<<<<<<<<<<<<<<<<<<<<<<<<<<<<<<<<< >>>>>>>>>>>>>>>>>>>>>>>>>>>>>>>>>>>>>>>

-------------------------- Atom counting information ---------------------------
Symbol    Natoms    Nngwfs    Nprojs
  Co        55       715       990
.......   ......    ......    ......
Totals:     55       715       990
--------------------------------------------------------------------------------

=============================== PSINC grid sizes ===============================
                      Simulation cell:   63 x  63 x  63
                              FFT-box:   63 x  63 x  63
                                  PPD:    7 x   7 x   1
================================================================================

Atom SCF Calculation for Co : Z (AE atom) =  27 : Z (PS atom) =  17
Config String: 3s2.0 3p6.0 3d7.0 4s2.0 4p0.0 INIT SPIN=3
Orbitals (num,occ):  5     2.00 6.00 7.00 2.00 0.00
Orbitals   (num,l):  5        0    1    2    0    1
Atom SCF converged after  37 iterations to a total energy of   -146.10251041
Adjusting orbital occupancies:
Orbitals (num,spin,occ):  5  1     1.00 3.00 5.00 1.00 0.00
Orbitals   (num,spin,l):  5  1        0    1    2    0    1
Orbitals (num,spin,occ):  5  2     1.00 3.00 3.00 0.00 0.00
Orbitals   (num,spin,l):  5  2        0    1    2    0    1

Atom SCF Calculation for Co : Z (AE atom) =  27 : Z (PS atom) =  17
Config String: 3s2.0 3p6.0 3d7.0 4s2.0 4p0.0 INIT SPIN=3
Orbitals (num,occ):  5     2.00 6.00 7.00 2.00 0.00
Orbitals   (num,l):  5        0    1    2    0    1
Atom SCF converged after  37 iterations to a total energy of   -146.10251041
Adjusting orbital occupancies:
Orbitals (num,spin,occ):  5  1     1.00 3.00 5.00 1.00 0.00
Orbitals   (num,spin,l):  5  1        0    1    2    0    1
Orbitals (num,spin,occ):  5  2     1.00 3.00 3.00 0.00 0.00
Orbitals   (num,spin,l):  5  2        0    1    2    0    1

Atom SCF Calculation for Co : Z (AE atom) =  27 : Z (PS atom) =  17
Config String: 3s2.0 3p6.0 3d7.0 4s2.0 4p0.0 INIT SPIN=3
Orbitals (num,occ):  5     2.00 6.00 7.00 2.00 0.00
Orbitals   (num,l):  5        0    1    2    0    1
Atom SCF converged after  37 iterations to a total energy of   -146.10251041
Adjusting orbital occupancies:
Orbitals (num,spin,occ):  5  1     1.00 3.00 5.00 1.00 0.00
Orbitals   (num,spin,l):  5  1        0    1    2    0    1
Orbitals (num,spin,occ):  5  2     1.00 3.00 3.00 0.00 0.00
Orbitals   (num,spin,l):  5  2        0    1    2    0    1

================================================================================
<<<<<<<<<<<<<<<<<<<< Starting ONETEP Geometry Optimisation >>>>>>>>>>>>>>>>>>>>>
================================================================================

 Geometry Optimisation: output file is "Co_cluster2_nspF.geom"
 
Calculating Ewald energy ...            14670.441138 Hartree

============================= Charge Augmentation ==============================
                           Aug box size:   33 x  33 x  33
================================================================================

================================= Core Density =================================
               Core den box size:   33 x  33 x  33
================================================================================
Density kernel initialisation

################################################################################
###################### NGWF self-consistent optimisation #######################
################################################################################
|ITER|    RMS GRADIENT   |     TOTAL ENERGY    |   step   |     Epredicted      
(P)DSYGVX in subroutine dense_eigensolve returned info=    2
 ifail= 2*0
 iclustr= 107,  154
 gap= 2.9466178359758036E-5,  1.97449790413688121E-5
(P)DSYGVX in subroutine dense_eigensolve returned info=    2
 ifail= 2*0
 iclustr= 107,  144
 gap= 1.81120562702545611E-5,  4.39324513510991877E-5
(P)DSYGVX in subroutine dense_eigensolve returned info=    2
 ifail= 2*0
 iclustr= 97,  151
 gap= 1.15510554287940213E-5,  1.21660732173858964E-5
(P)DSYGVX in subroutine dense_eigensolve returned info=    2
 ifail= 2*0
 iclustr= 177,  214
 gap= 6.4437289647785025E-5,  3.65086972013431774E-5
(P)DSYGVX in subroutine dense_eigensolve returned info=    2
 ifail= 2*0
 iclustr= 131,  176
 gap= 1.01661637479984935E-5,  7.20827381921994575E-5
(P)DSYGVX in subroutine dense_eigensolve returned info=    2
 ifail= 2*0
 iclustr= 131,  167
 gap= 1.22860552311634662E-5,  7.03957914158572797E-5
(P)DSYGVX in subroutine dense_eigensolve returned info=    2
 ifail= 2*0
 iclustr= 79,  137
 gap= 2.43262724142209354E-5,  6.51565512214042258E-5
(P)DSYGVX in subroutine dense_eigensolve returned info=    2
 ifail= 2*0
 iclustr= 79,  128
 gap= 1.99293099660286762E-5,  8.07630481501742629E-5
(P)DSYGVX in subroutine dense_eigensolve returned info=    2
 ifail= 2*0
 iclustr= 162,  208
 gap= 7.93383964488650882E-5,  2.83767927415292615E-5
(P)DSYGVX in subroutine dense_eigensolve returned info=    2
 ifail= 2*0
 iclustr= 131,  208
 gap= 2.06483844742021154E-5,  2.38446769200360708E-5
(P)DSYGVX in subroutine dense_eigensolve returned info=    2
 ifail= 2*0
 iclustr= 95,  140
 gap= 1.44432765340041802E-5,  2.6459441951531695E-5
(P)DSYGVX in subroutine dense_eigensolve returned info=    2
 ifail= 2*0
 iclustr= 106,  157
 gap= 1.08134099215647859E-5,  1.22636092482442812E-5
(P)DSYGVX in subroutine dense_eigensolve returned info=    2
 ifail= 2*0
 iclustr= 92,  137
 gap= 2.61087313530552089E-5,  9.20624169792095978E-5
(P)DSYGVX in subroutine dense_eigensolve returned info=    2
 ifail= 2*0
 iclustr= 92,  132
 gap= 1.80273361903503137E-5,  9.21547154462893422E-5
(P)DSYGVX in subroutine dense_eigensolve returned info=    2
 ifail= 2*0
 iclustr= 92,  137
 gap= 1.27337290777948101E-5,  8.58689631936276519E-5
(P)DSYGVX in subroutine dense_eigensolve returned info=    2
 ifail= 2*0
 iclustr= 92,  184
 gap= 1.26096306300709406E-5,  3.8376740811691613E-5
(P)DSYGVX in subroutine dense_eigensolve returned info=    2
 ifail= 2*0
 iclustr= 92,  135
 gap= 1.49079706800468695E-5,  1.63471886131331799E-5
(P)DSYGVX in subroutine dense_eigensolve returned info=    2
 ifail= 2*0
 iclustr= 138,  220
 gap= 1.37084108046325055E-5,  3.78564544048254313E-5
(P)DSYGVX in subroutine dense_eigensolve returned info=    2
 ifail= 2*0
 iclustr= 95,  141
 gap= 2.42498567934188408E-5,  1.03626698241578689E-5
(P)DSYGVX in subroutine dense_eigensolve returned info=    2
 ifail= 2*0
 iclustr= 14,  55
 gap= 1.93057746959135073E-5,  1.18141020954627203E-5
(P)DSYGVX in subroutine dense_eigensolve returned info=    2
 ifail= 2*0
 iclustr= 68,  181
 gap= 1.18471933001898248E-5,  1.23750325012380012E-5
(P)DSYGVX in subroutine dense_eigensolve returned info=    2
 ifail= 2*0
 iclustr= 106,  164
 gap= 1.23069079303572688E-5,  2.94944517324117098E-5
(P)DSYGVX in subroutine dense_eigensolve returned info=    2
 ifail= 2*0
 iclustr= 92,  145
 gap= 2.37613880254629248E-5,  2.60379929043434762E-5
(P)DSYGVX in subroutine dense_eigensolve returned info=    2
 ifail= 2*0
 iclustr= 56,  145
 gap= 1.11513007916699839E-5,  3.02263739291226832E-5
(P)DSYGVX in subroutine dense_eigensolve returned info=    2
 ifail= 2*0
 iclustr= 92,  184
 gap= 1.44045659354459297E-5,  3.55822638393437705E-5
(P)DSYGVX in subroutine dense_eigensolve returned info=    2
 ifail= 2*0
 iclustr= 99,  184
 gap= 1.54801565730916646E-5,  2.91015038954398305E-5
(P)DSYGVX in subroutine dense_eigensolve returned info=    2
 ifail= 2*0
 iclustr= 112,  196
 gap= 1.58946385868073692E-5,  3.58797961695491729E-5
(P)DSYGVX in subroutine dense_eigensolve returned info=    2
 ifail= 2*0
 iclustr= 14,  55
 gap= 1.64914824716236086E-5,  6.11073613010111458E-5
(P)DSYGVX in subroutine dense_eigensolve returned info=    2
 ifail= 2*0
 iclustr= 107,  220
 gap= 1.32651450815314893E-5,  3.40789537685196354E-5
(P)DSYGVX in subroutine dense_eigensolve returned info=    2
 ifail= 2*0
 iclustr= 14,  52
 gap= 1.93804940986262044E-5,  1.24342250784715568E-5
(P)DSYGVX in subroutine dense_eigensolve returned info=    2
 ifail= 2*0
 iclustr= 71,  134
 gap= 1.28461927902978543E-5,  1.35412738699949785E-5
(P)DSYGVX in subroutine dense_eigensolve returned info=    2
 ifail= 2*0
 iclustr= 68,  111
 gap= 1.37761312170267884E-5,  1.58399902935620294E-5
(P)DSYGVX in subroutine dense_eigensolve returned info=    2
 ifail= 2*0
 iclustr= 99,  150
 gap= 1.19078909659615087E-5,  1.94747856676723867E-5
(P)DSYGVX in subroutine dense_eigensolve returned info=    2
 ifail= 2*0
 iclustr= 65,  154
 gap= 3.75533993770185552E-5,  7.95138117134514411E-5
(P)DSYGVX in subroutine dense_eigensolve returned info=    2
 ifail= 2*0
 iclustr= 56,  155
 gap= 1.45074502381089959E-5,  9.28363724501489863E-5
(P)DSYGVX in subroutine dense_eigensolve returned info=    2
 ifail= 2*0
 iclustr= 71,  196
 gap= 1.01036015976540288E-5,  3.36048487797427578E-5
(P)DSYGVX in subroutine dense_eigensolve returned info=    2
 ifail= 2*0
 iclustr= 14,  55
 gap= 6.86101230017029074E-5,  1.81989093778494927E-5
(P)DSYGVX in subroutine dense_eigensolve returned info=    2
 ifail= 2*0
 iclustr= 135,  220
 gap= 1.21688700833149883E-5,  2.5949468873535675E-5
(P)DSYGVX in subroutine dense_eigensolve returned info=    2
 ifail= 2*0
 iclustr= 95,  191
 gap= 1.18694864227708547E-5,  1.52578502865357114E-5
(P)DSYGVX in subroutine dense_eigensolve returned info=    2
 ifail= 2*0
 iclustr= 95,  196
 gap= 1.25242784022389411E-5,  2.59015809395006828E-5
(P)DSYGVX in subroutine dense_eigensolve returned info=    2
 ifail= 2*0
 iclustr= 98,  196
 gap= 1.877671080300203E-5,  6.37989993909555183E-5
(P)DSYGVX in subroutine dense_eigensolve returned info=    2
 ifail= 2*0
 iclustr= 107,  220
 gap= 1.1557789992935424E-5,  2.51749748195229105E-5
(P)DSYGVX in subroutine dense_eigensolve returned info=    2
 ifail= 2*0
 iclustr= 95,  220
 gap= 1.30957147885967784E-5,  3.02049778715076865E-5
   0     0.00036622523704  -8048.11833220699918   0.604265  -8048.83212871159867        
(P)DSYGVX in subroutine dense_eigensolve returned info=    2
 ifail= 2*0
 iclustr= 105,  157
 gap= 2.19000340891748901E-5,  1.65627616903948171E-5
(P)DSYGVX in subroutine dense_eigensolve returned info=    2
 ifail= 2*0
 iclustr= 102,  175
 gap= 1.46661396408660597E-5,  8.83208800444917154E-5
(P)DSYGVX in subroutine dense_eigensolve returned info=    2
 ifail= 2*0
 iclustr= 92,  181
 gap= 1.30027039316217976E-5,  5.18081263999107096E-5
(P)DSYGVX in subroutine dense_eigensolve returned info=    2
 ifail= 2*0
 iclustr= 92,  184
 gap= 1.47545822305408367E-5,  5.20884806844876429E-5
(P)DSYGVX in subroutine dense_eigensolve returned info=    2
 ifail= 2*0
 iclustr= 14,  55
 gap= 1.02392076403960149E-5,  1.58918816081314964E-5
(P)DSYGVX in subroutine dense_eigensolve returned info=    2
 ifail= 2*0
 iclustr= 107,  220
 gap= 1.04711228654541204E-5,  1.41667865230900921E-5
(P)DSYGVX in subroutine dense_eigensolve returned info=    2
 ifail= 2*0
 iclustr= 95,  220
 gap= 1.17964861482474926E-5,  2.92435431339691125E-5
(P)DSYGVX in subroutine dense_eigensolve returned info=    2
 ifail= 2*0
 iclustr= 14,  55
 gap= 1.09470330668007729E-5,  1.94203913432508794E-5
(P)DSYGVX in subroutine dense_eigensolve returned info=    2
 ifail= 2*0
 iclustr= 135,  220
 gap= 1.1758084338658241E-5,  2.70324762334546234E-5
(P)DSYGVX in subroutine dense_eigensolve returned info=    2
 ifail= 2*0
 iclustr= 107,  220
 gap= 1.04833029035213243E-5,  2.57473781979732703E-5
(P)DSYGVX in subroutine dense_eigensolve returned info=    2
 ifail= 2*0
 iclustr= 95,  220
 gap= 1.48393836395292222E-5,  3.02967829856206039E-5
(P)DSYGVX in subroutine dense_eigensolve returned info=    2
 ifail= 2*0
 iclustr= 14,  55
 gap= 1.02392076403960149E-5,  1.58918816081314964E-5
(P)DSYGVX in subroutine dense_eigensolve returned info=    2
 ifail= 2*0
 iclustr= 107,  220
 gap= 1.33745132470403331E-5,  1.85490470181844997E-5
(P)DSYGVX in subroutine dense_eigensolve returned info=    2
 ifail= 2*0
 iclustr= 14,  55
 gap= 1.24948121282693829E-5,  1.43580065624537618E-5
(P)DSYGVX in subroutine dense_eigensolve returned info=    2
 ifail= 2*0
 iclustr= 107,  220
 gap= 1.3213756851366888E-5,  1.8536638122169563E-5
(P)DSYGVX in subroutine dense_eigensolve returned info=    2
 ifail= 2*0
 iclustr= 14,  55
 gap= 1.03594747584420985E-5,  1.56946857104966162E-5
(P)DSYGVX in subroutine dense_eigensolve returned info=    2
 ifail= 2*0
 iclustr= 107,  220
 gap= 1.35757046514408056E-5,  1.8560414442044907E-5
(P)DSYGVX in subroutine dense_eigensolve returned info=    2
 ifail= 2*0
 iclustr= 14,  55
 gap= 1.28791520752847888E-5,  1.39591023709331379E-5
(P)DSYGVX in subroutine dense_eigensolve returned info=    2
 ifail= 2*0
 iclustr= 107,  220
 gap= 1.24284192829110726E-5,  7.8239557759623475E-5
(P)DSYGVX in subroutine dense_eigensolve returned info=    2
 ifail= 2*0
 iclustr= 14,  55
 gap= 1.5763922618153183E-5,  1.00809694922493085E-5
(P)DSYGVX in subroutine dense_eigensolve returned info=    2
 ifail= 2*0
 iclustr= 107,  220
 gap= 1.20032904021718059E-5,  7.0469861496491392E-5
(P)DSYGVX in subroutine dense_eigensolve returned info=    2
 ifail= 2*0
 iclustr= 14,  55
 gap= 1.12538802430076245E-5,  1.6472758506223245E-5
(P)DSYGVX in subroutine dense_eigensolve returned info=    2
 ifail= 2*0
 iclustr= 107,  220
 gap= 1.05466589754799612E-5,  8.00753650972711495E-5
(P)DSYGVX in subroutine dense_eigensolve returned info=    2
 ifail= 2*0
 iclustr= 14,  55
 gap= 1.68213437406826129E-5,  1.04501603635059809E-5
(P)DSYGVX in subroutine dense_eigensolve returned info=    2
 ifail= 2*0
 iclustr= 107,  220
 gap= 1.06909842591185469E-5,  1.70938803067032926E-5
(P)DSYGVX in subroutine dense_eigensolve returned info=    2
 ifail= 2*0
 iclustr= 14,  55
 gap= 2.47346991429110731E-5,  9.14062185285993082E-5
(P)DSYGVX in subroutine dense_eigensolve returned info=    2
 ifail= 2*0
 iclustr= 107,  220
 gap= 1.19317029375461427E-5,  1.68804816324030656E-5
(P)DSYGVX in subroutine dense_eigensolve returned info=    2
 ifail= 2*0
 iclustr= 14,  55
 gap= 2.21456004909717485E-5,  9.56008161915301939E-5
(P)DSYGVX in subroutine dense_eigensolve returned info=    2
 ifail= 2*0
 iclustr= 107,  220
 gap= 1.0905328604407563E-5,  1.65444646870425643E-5
(P)DSYGVX in subroutine dense_eigensolve returned info=    2
 ifail= 2*0
 iclustr= 14,  55
 gap= 1.52137374361163285E-5,  1.73839151611102938E-5
(P)DSYGVX in subroutine dense_eigensolve returned info=    2
 ifail= 2*0
 iclustr= 14,  55
 gap= 1.41275571207321011E-5,  9.51106685655192735E-5
(P)DSYGVX in subroutine dense_eigensolve returned info=    2
 ifail= 2*0
 iclustr= 14,  55
 gap= 2.26269377721412414E-5,  1.01220336589085095E-5
(P)DSYGVX in subroutine dense_eigensolve returned info=    2
 ifail= 2*0
 iclustr= 17,  55
 gap= 3.06231041021409444E-5,  1.99216735029937297E-5
(P)DSYGVX in subroutine dense_eigensolve returned info=    2
 ifail= 2*0
 iclustr= 14,  55
 gap= 1.66313054551220425E-5,  1.06578372621077279E-5
(P)DSYGVX in subroutine dense_eigensolve returned info=    2
 ifail= 2*0
 iclustr= 14,  55
 gap= 1.99913207510532969E-5,  4.25830971226122482E-5
(P)DSYGVX in subroutine dense_eigensolve returned info=    2
 ifail= 2*0
 iclustr= 14,  55
 gap= 1.27230846163878084E-5,  1.09636238453300188E-5
(P)DSYGVX in subroutine dense_eigensolve returned info=    2
 ifail= 2*0
 iclustr= 17,  55
 gap= 3.08757128015045326E-5,  2.32152543262257021E-5
(P)DSYGVX in subroutine dense_eigensolve returned info=    2
 ifail= 2*0
 iclustr= 14,  55
 gap= 1.03814953632120884E-5,  1.08907383087726857E-5
(P)DSYGVX in subroutine dense_eigensolve returned info=    2
 ifail= 2*0
 iclustr= 14,  55
 gap= 1.52178041555712256E-5,  1.10353780521055376E-5
(P)DSYGVX in subroutine dense_eigensolve returned info=    2
 ifail= 2*0
 iclustr= 14,  55
 gap= 1.57116085702081592E-5,  1.01187087918471503E-5
(P)DSYGVX in subroutine dense_eigensolve returned info=    2
 ifail= 2*0
 iclustr= 14,  55
 gap= 1.53973196186630131E-5,  1.45324294786408587E-5
(P)DSYGVX in subroutine dense_eigensolve returned info=    2
 ifail= 2*0
 iclustr= 14,  55
 gap= 1.5041151348536333E-5,  1.07912140591002696E-5
(P)DSYGVX in subroutine dense_eigensolve returned info=    2
 ifail= 2*0
 iclustr= 14,  55
 gap= 2.46350239004314425E-5,  1.70682958678016532E-5
(P)DSYGVX in subroutine dense_eigensolve returned info=    2
 ifail= 2*0
 iclustr= 14,  55
 gap= 1.46747992596121198E-5,  1.00570989769419349E-5
(P)DSYGVX in subroutine dense_eigensolve returned info=    2
 ifail= 2*0
 iclustr= 14,  55
 gap= 1.90045700693898493E-5,  1.24652023398654286E-5
(P)DSYGVX in subroutine dense_eigensolve returned info=    2
 ifail= 2*0
 iclustr= 14,  55
 gap= 1.18817194018777807E-5,  1.04680280001271993E-5
(P)DSYGVX in subroutine dense_eigensolve returned info=    2
 ifail= 2*0
 iclustr= 14,  55
 gap= 1.55569862330248916E-5,  1.72512268241925441E-5
(P)DSYGVX in subroutine dense_eigensolve returned info=    2
 ifail= 2*0
 iclustr= 14,  55
 gap= 1.00476991540856211E-5,  1.19918177144969269E-5
(P)DSYGVX in subroutine dense_eigensolve returned info=    2
 ifail= 2*0
 iclustr= 14,  55
 gap= 2.45431254231554586E-5,  1.73008814312200184E-5
(P)DSYGVX in subroutine dense_eigensolve returned info=    2
 ifail= 2*0
 iclustr= 14,  55
 gap= 1.16424065047205265E-5,  1.33414223336629908E-5
(P)DSYGVX in subroutine dense_eigensolve returned info=    2
 ifail= 2*0
 iclustr= 14,  55
 gap= 1.88881177627011064E-5,  7.03600952185408129E-5
(P)DSYGVX in subroutine dense_eigensolve returned info=    2
 ifail= 2*0
 iclustr= 14,  55
 gap= 1.09516715177294407E-5,  1.50555261399895583E-5
(P)DSYGVX in subroutine dense_eigensolve returned info=    2
 ifail= 2*0
 iclustr= 14,  55
 gap= 1.16775834614295599E-5,  5.54690863367532106E-5
(P)DSYGVX in subroutine dense_eigensolve returned info=    2
 ifail= 2*0
 iclustr= 14,  55
 gap= 1.73391120569919521E-5,  1.0237246579143836E-5
(P)DSYGVX in subroutine dense_eigensolve returned info=    2
 ifail= 2*0
 iclustr= 14,  55
 gap= 1.55025468614495516E-5,  6.31957861750632625E-5
(P)DSYGVX in subroutine dense_eigensolve returned info=    2
 ifail= 2*0
 iclustr= 14,  55
 gap= 1.06798668294996527E-5,  1.81861248506801636E-5
(P)DSYGVX in subroutine dense_eigensolve returned info=    2
 ifail= 2*0
 iclustr= 14,  55
 gap= 1.04460083085016863E-5,  9.98557017563337734E-5
(P)DSYGVX in subroutine dense_eigensolve returned info=    2
 ifail= 2*0
 iclustr= 14,  55
 gap= 1.13219452531034622E-5,  1.96065382129582487E-5
(P)DSYGVX in subroutine dense_eigensolve returned info=    2
 ifail= 2*0
 iclustr= 14,  55
 gap= 1.09435739192748822E-5,  9.67335498308762872E-5
(P)DSYGVX in subroutine dense_eigensolve returned info=    2
 ifail= 2*0
 iclustr= 14,  55
 gap= 1.25378096034111217E-5,  1.46954357510781571E-5
(P)DSYGVX in subroutine dense_eigensolve returned info=    2
 ifail= 2*0
 iclustr= 14,  55
 gap= 1.13191708788108837E-5,  1.05900268181586458E-5
(P)DSYGVX in subroutine dense_eigensolve returned info=    2
 ifail= 2*0
 iclustr= 14,  55
 gap= 1.68909088233922574E-5,  1.67391007934665637E-5
   1     0.00023404784838  -8049.28041694753301   0.754982  -8049.62445976719118        
(P)DSYGVX in subroutine dense_eigensolve returned info=    2
 ifail= 2*0
 iclustr= 114,  187
 gap= 1.88553925350438522E-5,  1.30498604009364514E-5
(P)DSYGVX in subroutine dense_eigensolve returned info=    2
 ifail= 2*0
 iclustr= 98,  200
 gap= 1.38719289771185885E-5,  1.68007193608653482E-5
(P)DSYGVX in subroutine dense_eigensolve returned info=    2
 ifail= 2*0
 iclustr= 107,  196
 gap= 1.84728727580200174E-5,  1.00937995798811634E-5
(P)DSYGVX in subroutine dense_eigensolve returned info=    2
 ifail= 2*0
 iclustr= 95,  156
 gap= 1.1355332987363676E-5,  2.07541024684524563E-5
(P)DSYGVX in subroutine dense_eigensolve returned info=    2
 ifail= 2*0
 iclustr= 14,  55
 gap= 1.25941585681201907E-5,  7.28915672252813837E-5
(P)DSYGVX in subroutine dense_eigensolve returned info=    2
 ifail= 2*0
 iclustr= 95,  220
 gap= 1.20007225317593479E-5,  1.98059124256304873E-5
(P)DSYGVX in subroutine dense_eigensolve returned info=    2
 ifail= 2*0
 iclustr= 98,  202
 gap= 3.44548174702918495E-5,  1.49641662148290956E-5
(P)DSYGVX in subroutine dense_eigensolve returned info=    2
 ifail= 2*0
 iclustr= 98,  202
 gap= 1.06951898306364041E-5,  1.75165512483216408E-5
(P)DSYGVX in subroutine dense_eigensolve returned info=    2
 ifail= 2*0
 iclustr= 14,  55
 gap= 1.68961199367022007E-5,  3.57807459573381966E-5
(P)DSYGVX in subroutine dense_eigensolve returned info=    2
 ifail= 2*0
 iclustr= 14,  55
 gap= 2.03857835091380612E-5,  1.05869339041384623E-5
(P)DSYGVX in subroutine dense_eigensolve returned info=    2
 ifail= 2*0
 iclustr= 107,  196
 gap= 1.84728727580200174E-5,  1.00937995798811634E-5
(P)DSYGVX in subroutine dense_eigensolve returned info=    2
 ifail= 2*0
 iclustr= 95,  156
 gap= 1.1355332987363676E-5,  2.07541024684524563E-5
(P)DSYGVX in subroutine dense_eigensolve returned info=    2
 ifail= 2*0
 iclustr= 14,  55
 gap= 1.00290780026149365E-5,  8.50407974722027068E-5
(P)DSYGVX in subroutine dense_eigensolve returned info=    2
 ifail= 2*0
 iclustr= 95,  196
 gap= 1.44162621879002178E-5,  2.38778187032498257E-5
(P)DSYGVX in subroutine dense_eigensolve returned info=    2
 ifail= 2*0
 iclustr= 102,  145
 gap= 2.41336061353167848E-5,  1.52105732797500856E-5
(P)DSYGVX in subroutine dense_eigensolve returned info=    2
 ifail= 2*0
 iclustr= 14,  52
 gap= 6.85244454342424388E-5,  1.50725590514733687E-5
(P)DSYGVX in subroutine dense_eigensolve returned info=    2
 ifail= 2*0
 iclustr= 14,  46
 gap= 7.3365338199511866E-5,  1.14266858538530338E-5
(P)DSYGVX in subroutine dense_eigensolve returned info=    2
 ifail= 2*0
 iclustr= 14,  46
 gap= 8.64182687541521099E-5,  4.84889245236621563E-5
(P)DSYGVX in subroutine dense_eigensolve returned info=    2
 ifail= 2*0
 iclustr= 14,  46
 gap= 7.66754199940412477E-5,  1.95198285834543179E-5
(P)DSYGVX in subroutine dense_eigensolve returned info=    2
 ifail= 2*0
 iclustr= 144,  196
 gap= 1.0413442065268914E-5,  1.13113625877188597E-5
(P)DSYGVX in subroutine dense_eigensolve returned info=    2
 ifail= 2*0
 iclustr= 95,  196
 gap= 1.2070453483512121E-5,  1.48112041739141624E-5
(P)DSYGVX in subroutine dense_eigensolve returned info=    2
 ifail= 2*0
 iclustr= 144,  196
 gap= 1.93357673538424184E-5,  1.84688067485882521E-5
(P)DSYGVX in subroutine dense_eigensolve returned info=    2
 ifail= 2*0
 iclustr= 95,  196
 gap= 1.27286679129487314E-5,  1.43249058312110318E-5
(P)DSYGVX in subroutine dense_eigensolve returned info=    2
 ifail= 2*0
 iclustr= 107,  196
 gap= 1.22884058412915558E-5,  2.18814179230458196E-5
(P)DSYGVX in subroutine dense_eigensolve returned info=    2
 ifail= 2*0
 iclustr= 95,  196
 gap= 1.01830682083251072E-5,  2.22944992478032279E-5
(P)DSYGVX in subroutine dense_eigensolve returned info=    2
 ifail= 2*0
 iclustr= 14,  46
 gap= 5.42062443596630608E-5,  1.96080699166280454E-5
(P)DSYGVX in subroutine dense_eigensolve returned info=    2
 ifail= 2*0
 iclustr= 95,  196
 gap= 1.92574818754013863E-5,  4.01103193418666512E-5
(P)DSYGVX in subroutine dense_eigensolve returned info=    2
 ifail= 2*0
 iclustr= 137,  196
 gap= 2.2252150854364546E-5,  2.37788925907962532E-5
(P)DSYGVX in subroutine dense_eigensolve returned info=    2
 ifail= 2*0
 iclustr= 95,  196
 gap= 1.11431716229826269E-5,  2.17273544880793126E-5
(P)DSYGVX in subroutine dense_eigensolve returned info=    2
 ifail= 2*0
 iclustr= 144,  196
 gap= 1.82803324788170247E-5,  1.83818501235158326E-5
(P)DSYGVX in subroutine dense_eigensolve returned info=    2
 ifail= 2*0
 iclustr= 95,  196
 gap= 1.24897800439522844E-5,  1.54218109079636721E-5
(P)DSYGVX in subroutine dense_eigensolve returned info=    2
 ifail= 2*0
 iclustr= 107,  196
 gap= 1.39963684672532667E-5,  2.12935991413039297E-5
(P)DSYGVX in subroutine dense_eigensolve returned info=    2
 ifail= 2*0
 iclustr= 95,  196
 gap= 1.00167359430555677E-5,  2.42830366480671877E-5
(P)DSYGVX in subroutine dense_eigensolve returned info=    2
 ifail= 2*0
 iclustr= 107,  196
 gap= 1.47141842604445167E-5,  3.28252517534761236E-5
(P)DSYGVX in subroutine dense_eigensolve returned info=    2
 ifail= 2*0
 iclustr= 95,  196
 gap= 2.20038123457528187E-5,  3.92150046569325644E-5
(P)DSYGVX in subroutine dense_eigensolve returned info=    2
 ifail= 2*0
 iclustr= 144,  196
 gap= 1.0376328782718182E-5,  1.55152365274800764E-5
(P)DSYGVX in subroutine dense_eigensolve returned info=    2
 ifail= 2*0
 iclustr= 95,  196
 gap= 1.02722619762112297E-5,  1.4828658401702725E-5
(P)DSYGVX in subroutine dense_eigensolve returned info=    2
 ifail= 2*0
 iclustr= 144,  196
 gap= 1.35911444953608559E-5,  1.07680280620833485E-5
(P)DSYGVX in subroutine dense_eigensolve returned info=    2
 ifail= 2*0
 iclustr= 95,  196
 gap= 1.09874656104692239E-5,  1.14154128832375413E-5
(P)DSYGVX in subroutine dense_eigensolve returned info=    2
 ifail= 2*0
 iclustr= 107,  196
 gap= 1.44053498621280568E-5,  2.1393582084584126E-5
(P)DSYGVX in subroutine dense_eigensolve returned info=    2
 ifail= 2*0
 iclustr= 95,  196
 gap= 1.18260426655526704E-5,  2.60363941219955843E-5
(P)DSYGVX in subroutine dense_eigensolve returned info=    2
 ifail= 2*0
 iclustr= 95,  196
 gap= 1.23700710421959214E-5,  3.10664927549670757E-5
(P)DSYGVX in subroutine dense_eigensolve returned info=    2
 ifail= 2*0
 iclustr= 95,  196
 gap= 1.01485219685634594E-5,  3.87867944961300566E-5
(P)DSYGVX in subroutine dense_eigensolve returned info=    2
 ifail= 2*0
 iclustr= 144,  196
 gap= 1.52417065774423703E-5,  1.19195363047688666E-5
(P)DSYGVX in subroutine dense_eigensolve returned info=    2
 ifail= 2*0
 iclustr= 95,  196
 gap= 1.29407534894500616E-5,  1.29142889588045078E-5
(P)DSYGVX in subroutine dense_eigensolve returned info=    2
 ifail= 2*0
 iclustr= 144,  196
 gap= 3.13016075063736137E-5,  1.1428150081157298E-5
(P)DSYGVX in subroutine dense_eigensolve returned info=    2
 ifail= 2*0
 iclustr= 95,  196
 gap= 1.30731694095112199E-5,  1.68651979448757601E-5
(P)DSYGVX in subroutine dense_eigensolve returned info=    2
 ifail= 2*0
 iclustr= 137,  196
 gap= 1.11105027239377489E-5,  2.17250177063518566E-5
(P)DSYGVX in subroutine dense_eigensolve returned info=    2
 ifail= 2*0
 iclustr= 95,  196
 gap= 1.55604349076033524E-5,  2.77150210740588948E-5
(P)DSYGVX in subroutine dense_eigensolve returned info=    2
 ifail= 2*0
 iclustr= 95,  196
 gap= 1.06639612987213645E-5,  3.01896825905919106E-5
(P)DSYGVX in subroutine dense_eigensolve returned info=    2
 ifail= 2*0
 iclustr= 95,  196
 gap= 1.00288044686297607E-5,  3.84353896046310959E-5
   2     0.00019440799102  -8049.69025297153257   0.530161  -8049.81526022150319        
(P)DSYGVX in subroutine dense_eigensolve returned info=    2
 ifail= 2*0
 iclustr= 126,  187
 gap= 1.00457396674426021E-5,  4.46761094068085746E-5
(P)DSYGVX in subroutine dense_eigensolve returned info=    2
 ifail= 2*0
 iclustr= 95,  200
 gap= 1.64733206206220756E-5,  1.40603987247968379E-5
(P)DSYGVX in subroutine dense_eigensolve returned info=    2
 ifail= 2*0
 iclustr= 144,  196
 gap= 1.6892292289717854E-5,  1.68904171902868562E-5
(P)DSYGVX in subroutine dense_eigensolve returned info=    2
 ifail= 2*0
 iclustr= 95,  196
 gap= 1.7643242209070895E-5,  1.53550005246752955E-5
(P)DSYGVX in subroutine dense_eigensolve returned info=    2
 ifail= 2*0
 iclustr= 137,  196
 gap= 1.37754761533295414E-5,  1.87871128988609532E-5
(P)DSYGVX in subroutine dense_eigensolve returned info=    2
 ifail= 2*0
 iclustr= 95,  196
 gap= 1.63176382346313875E-5,  2.1019351216495045E-5
(P)DSYGVX in subroutine dense_eigensolve returned info=    2
 ifail= 2*0
 iclustr= 140,  196
 gap= 1.02591906536509184E-5,  7.86178218179596277E-5
(P)DSYGVX in subroutine dense_eigensolve returned info=    2
 ifail= 2*0
 iclustr= 95,  196
 gap= 1.06258501126805889E-5,  6.78314931434713386E-5
(P)DSYGVX in subroutine dense_eigensolve returned info=    2
 ifail= 2*0
 iclustr= 95,  196
 gap= 1.07020967462623687E-5,  3.03419263525053338E-5
(P)DSYGVX in subroutine dense_eigensolve returned info=    2
 ifail= 2*0
 iclustr= 95,  196
 gap= 1.03503778076220497E-5,  3.86768865044971643E-5
(P)DSYGVX in subroutine dense_eigensolve returned info=    2
 ifail= 2*0
 iclustr= 144,  196
 gap= 1.6892292289717854E-5,  1.68904171902868562E-5
(P)DSYGVX in subroutine dense_eigensolve returned info=    2
 ifail= 2*0
 iclustr= 95,  196
 gap= 1.7643242209070895E-5,  1.53550005246752955E-5
(P)DSYGVX in subroutine dense_eigensolve returned info=    2
 ifail= 2*0
 iclustr= 140,  196
 gap= 3.19631244942979666E-5,  4.3665467606318693E-5
(P)DSYGVX in subroutine dense_eigensolve returned info=    2
 ifail= 2*0
 iclustr= 95,  196
 gap= 1.28552958418722517E-5,  5.46263567015554542E-5
(P)DSYGVX in subroutine dense_eigensolve returned info=    2
 ifail= 2*0
 iclustr= 137,  196
 gap= 3.07459743431060526E-5,  3.08981106338847655E-5
(P)DSYGVX in subroutine dense_eigensolve returned info=    2
 ifail= 2*0
 iclustr= 95,  196
 gap= 1.8158847871698528E-5,  4.03563281224777337E-5
(P)DSYGVX in subroutine dense_eigensolve returned info=    2
 ifail= 2*0
 iclustr= 144,  196
 gap= 1.06887471112170185E-5,  1.12257712990801415E-5
(P)DSYGVX in subroutine dense_eigensolve returned info=    2
 ifail= 2*0
 iclustr= 95,  196
 gap= 1.27355481543121607E-5,  1.6662678187380136E-5
(P)DSYGVX in subroutine dense_eigensolve returned info=    2
 ifail= 2*0
 iclustr= 144,  196
 gap= 1.5544557068692379E-5,  1.6622232093160955E-5
(P)DSYGVX in subroutine dense_eigensolve returned info=    2
 ifail= 2*0
 iclustr= 95,  196
 gap= 1.04497236684352919E-5,  1.08557160337287542E-5
(P)DSYGVX in subroutine dense_eigensolve returned info=    2
 ifail= 2*0
 iclustr= 137,  196
 gap= 3.0676392488443712E-5,  3.34185751936249322E-5
(P)DSYGVX in subroutine dense_eigensolve returned info=    2
 ifail= 2*0
 iclustr= 95,  196
 gap= 1.24980681145149842E-5,  4.37800110717610254E-5
(P)DSYGVX in subroutine dense_eigensolve returned info=    2
 ifail= 2*0
 iclustr= 137,  196
 gap= 2.785062858501182E-5,  2.77893464771979058E-5
(P)DSYGVX in subroutine dense_eigensolve returned info=    2
 ifail= 2*0
 iclustr= 95,  196
 gap= 1.64039360369207287E-5,  3.75998042911704586E-5
(P)DSYGVX in subroutine dense_eigensolve returned info=    2
 ifail= 2*0
 iclustr= 137,  196
 gap= 3.00420695863522017E-5,  3.1990170641687809E-5
(P)DSYGVX in subroutine dense_eigensolve returned info=    2
 ifail= 2*0
 iclustr= 95,  196
 gap= 1.13817699309574852E-5,  4.22138155339441183E-5
(P)DSYGVX in subroutine dense_eigensolve returned info=    2
 ifail= 2*0
 iclustr= 144,  196
 gap= 1.64315661859797452E-5,  1.60694692708955203E-5
(P)DSYGVX in subroutine dense_eigensolve returned info=    2
 ifail= 2*0
 iclustr= 95,  196
 gap= 1.12102223294584895E-5,  1.11316902610341954E-5
(P)DSYGVX in subroutine dense_eigensolve returned info=    2
 ifail= 2*0
 iclustr= 144,  196
 gap= 2.97972628912338127E-5,  1.12826880995852927E-5
(P)DSYGVX in subroutine dense_eigensolve returned info=    2
 ifail= 2*0
 iclustr= 95,  196
 gap= 1.0701657081135577E-5,  1.82228786663583E-5
(P)DSYGVX in subroutine dense_eigensolve returned info=    2
 ifail= 2*0
 iclustr= 137,  196
 gap= 1.96621625834039634E-5,  2.14638727809850616E-5
(P)DSYGVX in subroutine dense_eigensolve returned info=    2
 ifail= 2*0
 iclustr= 95,  196
 gap= 1.15313379991265022E-5,  3.11617437965386378E-5
(P)DSYGVX in subroutine dense_eigensolve returned info=    2
 ifail= 2*0
 iclustr= 137,  196
 gap= 2.74903493666196145E-5,  2.90299012789940493E-5
(P)DSYGVX in subroutine dense_eigensolve returned info=    2
 ifail= 2*0
 iclustr= 95,  196
 gap= 1.00542346431700459E-5,  4.00185421173511612E-5
(P)DSYGVX in subroutine dense_eigensolve returned info=    2
 ifail= 2*0
 iclustr= 144,  196
 gap= 1.73229636070492844E-5,  1.48449760569416174E-5
(P)DSYGVX in subroutine dense_eigensolve returned info=    2
 ifail= 2*0
 iclustr= 95,  196
 gap= 1.11117958511705852E-5,  1.32182098398053468E-5
(P)DSYGVX in subroutine dense_eigensolve returned info=    2
 ifail= 2*0
 iclustr= 144,  196
 gap= 3.02613290882292223E-5,  1.12670868823901905E-5
(P)DSYGVX in subroutine dense_eigensolve returned info=    2
 ifail= 2*0
 iclustr= 95,  196
 gap= 1.66812852871316005E-5,  1.95219064606057187E-5
(P)DSYGVX in subroutine dense_eigensolve returned info=    2
 ifail= 2*0
 iclustr= 137,  196
 gap= 1.25058985919928764E-5,  2.01864710711133537E-5
(P)DSYGVX in subroutine dense_eigensolve returned info=    2
 ifail= 2*0
 iclustr= 95,  196
 gap= 1.10357890659233852E-5,  3.09802106563500889E-5
(P)DSYGVX in subroutine dense_eigensolve returned info=    2
 ifail= 2*0
 iclustr= 137,  196
 gap= 2.50210892530332205E-5,  2.61837717540929709E-5
(P)DSYGVX in subroutine dense_eigensolve returned info=    2
 ifail= 2*0
 iclustr= 95,  196
 gap= 1.59325313600217033E-5,  3.80174263542170464E-5
(P)DSYGVX in subroutine dense_eigensolve returned info=    2
 ifail= 2*0
 iclustr= 144,  196
 gap= 1.69840032477994822E-5,  1.51138485646377214E-5
(P)DSYGVX in subroutine dense_eigensolve returned info=    2
 ifail= 2*0
 iclustr= 95,  196
 gap= 1.17842719774330518E-5,  1.44675003799603759E-5
(P)DSYGVX in subroutine dense_eigensolve returned info=    2
 ifail= 2*0
 iclustr= 144,  196
 gap= 3.00293705680713659E-5,  1.08705225580316284E-5
(P)DSYGVX in subroutine dense_eigensolve returned info=    2
 ifail= 2*0
 iclustr= 95,  196
 gap= 1.03662042285394046E-5,  2.03769393238109698E-5
(P)DSYGVX in subroutine dense_eigensolve returned info=    2
 ifail= 2*0
 iclustr= 137,  196
 gap= 1.5637698316172187E-5,  1.94905068004952687E-5
(P)DSYGVX in subroutine dense_eigensolve returned info=    2
 ifail= 2*0
 iclustr= 95,  196
 gap= 1.32489894842295503E-5,  3.08268599089381223E-5
(P)DSYGVX in subroutine dense_eigensolve returned info=    2
 ifail= 2*0
 iclustr= 137,  196
 gap= 1.03642628088092618E-5,  2.38990588044185584E-5
(P)DSYGVX in subroutine dense_eigensolve returned info=    2
 ifail= 2*0
 iclustr= 95,  196
 gap= 1.7043563554896965E-5,  3.62826572235064345E-5
   3     0.00009292692257  -8049.87893609746061   0.670890  -8049.92294194786791        
(P)DSYGVX in subroutine dense_eigensolve returned info=    2
 ifail= 2*0
 iclustr= 65,  101
 gap= 2.39373002442784934E-5,  1.64879887280249427E-5
(P)DSYGVX in subroutine dense_eigensolve returned info=    2
 ifail= 2*0
 iclustr= 122,  187
 gap= 2.21388432890841421E-5,  6.66809223152507356E-5
(P)DSYGVX in subroutine dense_eigensolve returned info=    2
 ifail= 2*0
 iclustr= 95,  194
 gap= 1.10334204484585055E-5,  1.1568689112581756E-5
(P)DSYGVX in subroutine dense_eigensolve returned info=    2
 ifail= 2*0
 iclustr= 144,  196
 gap= 1.16369246338244216E-5,  1.10168819052124886E-5
(P)DSYGVX in subroutine dense_eigensolve returned info=    2
 ifail= 2*0
 iclustr= 95,  196
 gap= 1.13330825165198992E-5,  1.96969487737079298E-5
(P)DSYGVX in subroutine dense_eigensolve returned info=    2
 ifail= 2*0
 iclustr= 137,  196
 gap= 1.09903470378376181E-5,  2.2555740445819733E-5
(P)DSYGVX in subroutine dense_eigensolve returned info=    2
 ifail= 2*0
 iclustr= 95,  196
 gap= 1.37571962855670735E-5,  3.48802498250012604E-5
(P)DSYGVX in subroutine dense_eigensolve returned info=    2
 ifail= 2*0
 iclustr= 140,  196
 gap= 2.44295382779447385E-5,  7.33785709588810598E-5
(P)DSYGVX in subroutine dense_eigensolve returned info=    2
 ifail= 2*0
 iclustr= 95,  196
 gap= 1.25736103161887815E-5,  5.9062813860008281E-5
(P)DSYGVX in subroutine dense_eigensolve returned info=    2
 ifail= 2*0
 iclustr= 137,  196
 gap= 1.02704467855230121E-5,  2.31060077104257481E-5
(P)DSYGVX in subroutine dense_eigensolve returned info=    2
 ifail= 2*0
 iclustr= 95,  196
 gap= 1.48745396201851214E-5,  3.55495885614069218E-5
(P)DSYGVX in subroutine dense_eigensolve returned info=    2
 ifail= 2*0
 iclustr= 144,  196
 gap= 1.16369246338244216E-5,  1.10168819052124886E-5
(P)DSYGVX in subroutine dense_eigensolve returned info=    2
 ifail= 2*0
 iclustr= 95,  196
 gap= 1.13330825165198992E-5,  1.96969487737079298E-5
(P)DSYGVX in subroutine dense_eigensolve returned info=    2
 ifail= 2*0
 iclustr= 137,  196
 gap= 1.27814184361242713E-5,  1.75878395319209272E-5
(P)DSYGVX in subroutine dense_eigensolve returned info=    2
 ifail= 2*0
 iclustr= 95,  196
 gap= 1.40799357942996367E-5,  2.83842845641372903E-5
(P)DSYGVX in subroutine dense_eigensolve returned info=    2
 ifail= 2*0
 iclustr= 137,  196
 gap= 1.65681530406176013E-5,  2.05423004637337757E-5
(P)DSYGVX in subroutine dense_eigensolve returned info=    2
 ifail= 2*0
 iclustr= 95,  196
 gap= 1.21483670998165294E-5,  3.29265023849808412E-5
(P)DSYGVX in subroutine dense_eigensolve returned info=    2
 ifail= 2*0
 iclustr= 144,  196
 gap= 1.63178666998368614E-5,  1.32992440168868758E-5
(P)DSYGVX in subroutine dense_eigensolve returned info=    2
 ifail= 2*0
 iclustr= 95,  196
 gap= 1.00162719190677749E-5,  1.71177912336058485E-5
(P)DSYGVX in subroutine dense_eigensolve returned info=    2
 ifail= 2*0
 iclustr= 144,  196
 gap= 1.14298882127877504E-5,  1.05141952609554991E-5
(P)DSYGVX in subroutine dense_eigensolve returned info=    2
 ifail= 2*0
 iclustr= 95,  196
 gap= 1.20271714459669342E-5,  2.00690678497608376E-5
(P)DSYGVX in subroutine dense_eigensolve returned info=    2
 ifail= 2*0
 iclustr= 137,  196
 gap= 1.16547827536147556E-5,  1.66991902503746894E-5
(P)DSYGVX in subroutine dense_eigensolve returned info=    2
 ifail= 2*0
 iclustr= 95,  196
 gap= 1.09693149889940939E-5,  2.77701242138296247E-5
(P)DSYGVX in subroutine dense_eigensolve returned info=    2
 ifail= 2*0
 iclustr= 137,  196
 gap= 1.41368053783684201E-5,  1.86821713052423184E-5
(P)DSYGVX in subroutine dense_eigensolve returned info=    2
 ifail= 2*0
 iclustr= 95,  196
 gap= 1.03426425990613785E-5,  3.11125981401251132E-5
(P)DSYGVX in subroutine dense_eigensolve returned info=    2
 ifail= 2*0
 iclustr= 144,  196
 gap= 1.56736155589654541E-5,  1.19521523905616718E-5
(P)DSYGVX in subroutine dense_eigensolve returned info=    2
 ifail= 2*0
 iclustr= 95,  196
 gap= 1.04780281763902577E-5,  1.85234352282189011E-5
(P)DSYGVX in subroutine dense_eigensolve returned info=    2
 ifail= 2*0
 iclustr= 143,  188
 gap= 3.14959901346281051E-5,  2.68906164533743987E-5
(P)DSYGVX in subroutine dense_eigensolve returned info=    2
 ifail= 2*0
 iclustr= 144,  196
 gap= 1.15050076625039448E-5,  1.02103341405828129E-5
(P)DSYGVX in subroutine dense_eigensolve returned info=    2
 ifail= 2*0
 iclustr= 95,  196
 gap= 1.01096337095488146E-5,  1.92451823859697332E-5
(P)DSYGVX in subroutine dense_eigensolve returned info=    2
 ifail= 2*0
 iclustr= 137,  196
 gap= 1.04913796970758285E-5,  1.5780116072054896E-5
(P)DSYGVX in subroutine dense_eigensolve returned info=    2
 ifail= 2*0
 iclustr= 95,  196
 gap= 1.0634059344744488E-5,  2.69468181388143142E-5
(P)DSYGVX in subroutine dense_eigensolve returned info=    2
 ifail= 2*0
 iclustr= 143,  188
 gap= 3.03671445546384746E-5,  1.37695551840048835E-5
(P)DSYGVX in subroutine dense_eigensolve returned info=    2
 ifail= 2*0
 iclustr= 137,  196
 gap= 1.23268159623841773E-5,  1.72056989521956196E-5
(P)DSYGVX in subroutine dense_eigensolve returned info=    2
 ifail= 2*0
 iclustr= 95,  196
 gap= 1.02564833897306038E-5,  2.97142339506724439E-5
(P)DSYGVX in subroutine dense_eigensolve returned info=    2
 ifail= 2*0
 iclustr= 144,  196
 gap= 1.53071419706830066E-5,  1.0225908202870437E-5
(P)DSYGVX in subroutine dense_eigensolve returned info=    2
 ifail= 2*0
 iclustr= 95,  196
 gap= 1.06807008957198243E-5,  1.93957729630637199E-5
(P)DSYGVX in subroutine dense_eigensolve returned info=    2
 ifail= 2*0
 iclustr= 143,  188
 gap= 3.10180121448544514E-5,  6.20530350852225795E-5
(P)DSYGVX in subroutine dense_eigensolve returned info=    2
 ifail= 2*0
 iclustr= 144,  196
 gap= 1.17964097164231086E-5,  1.00175205614066933E-5
(P)DSYGVX in subroutine dense_eigensolve returned info=    2
 ifail= 2*0
 iclustr= 95,  196
 gap= 1.05108589207600381E-5,  1.86336602841267478E-5
(P)DSYGVX in subroutine dense_eigensolve returned info=    2
 ifail= 2*0
 iclustr= 137,  196
 gap= 2.24240912879733395E-5,  1.50366036894542946E-5
(P)DSYGVX in subroutine dense_eigensolve returned info=    2
 ifail= 2*0
 iclustr= 95,  196
 gap= 1.23777923964086801E-5,  2.6265425613699859E-5
(P)DSYGVX in subroutine dense_eigensolve returned info=    2
 ifail= 2*0
 iclustr= 143,  188
 gap= 3.04778597745378363E-5,  5.27765154169117779E-5
(P)DSYGVX in subroutine dense_eigensolve returned info=    2
 ifail= 2*0
 iclustr= 137,  196
 gap= 1.09345274781053557E-5,  1.60191338249871639E-5
(P)DSYGVX in subroutine dense_eigensolve returned info=    2
 ifail= 2*0
 iclustr= 95,  196
 gap= 1.01264753094355304E-5,  2.85405591884744873E-5
(P)DSYGVX in subroutine dense_eigensolve returned info=    2
 ifail= 2*0
 iclustr= 144,  196
 gap= 1.48183630326803157E-5,  1.02512681781812345E-5
(P)DSYGVX in subroutine dense_eigensolve returned info=    2
 ifail= 2*0
 iclustr= 95,  196
 gap= 1.08392096528167568E-5,  1.90389225242869179E-5
(P)DSYGVX in subroutine dense_eigensolve returned info=    2
 ifail= 2*0
 iclustr= 114,  172
 gap= 2.39988312612845068E-5,  2.38908941980407403E-5
(P)DSYGVX in subroutine dense_eigensolve returned info=    2
 ifail= 2*0
 iclustr= 101,  206
 gap= 2.55714984740762178E-5,  8.55059114020838642E-5
(P)DSYGVX in subroutine dense_eigensolve returned info=    2
 ifail= 2*0
 iclustr= 144,  196
 gap= 1.19504965628465199E-5,  2.22930642305860986E-5
(P)DSYGVX in subroutine dense_eigensolve returned info=    2
 ifail= 2*0
 iclustr= 95,  196
 gap= 1.06367755065288766E-5,  1.80962876149849672E-5
(P)DSYGVX in subroutine dense_eigensolve returned info=    2
 ifail= 2*0
 iclustr= 137,  196
 gap= 2.25538775971803571E-5,  1.43231184049304881E-5
(P)DSYGVX in subroutine dense_eigensolve returned info=    2
 ifail= 2*0
 iclustr= 95,  196
 gap= 1.23327875888736689E-5,  2.56562984617725725E-5
(P)DSYGVX in subroutine dense_eigensolve returned info=    2
 ifail= 2*0
 iclustr= 143,  206
 gap= 3.33398048482262606E-5,  9.5493182028557797E-5
(P)DSYGVX in subroutine dense_eigensolve returned info=    2
 ifail= 2*0
 iclustr= 137,  196
 gap= 2.28365494345216963E-5,  1.50752378197160319E-5
(P)DSYGVX in subroutine dense_eigensolve returned info=    2
 ifail= 2*0
 iclustr= 95,  196
 gap= 1.39486775065677182E-5,  2.75136505113845617E-5
   4     0.00007026570983  -8049.94946942241131   0.341164  -8049.96430486024019        
(P)DSYGVX in subroutine dense_eigensolve returned info=    2
 ifail= 2*0
 iclustr= 111,  148
 gap= 1.23794243041451328E-5,  2.33024886405838145E-5
(P)DSYGVX in subroutine dense_eigensolve returned info=    2
 ifail= 2*0
 iclustr= 113,  196
 gap= 1.84230576105637631E-5,  7.11404579305319001E-5
(P)DSYGVX in subroutine dense_eigensolve returned info=    2
 ifail= 2*0
 iclustr= 92,  137
 gap= 1.90925779785252692E-5,  2.38841291544415399E-5
(P)DSYGVX in subroutine dense_eigensolve returned info=    2
 ifail= 2*0
 iclustr= 95,  196
 gap= 1.34920486569314254E-5,  6.83938718064450494E-5
(P)DSYGVX in subroutine dense_eigensolve returned info=    2
 ifail= 2*0
 iclustr= 144,  196
 gap= 1.61137805452679291E-5,  1.87314196227600767E-5
(P)DSYGVX in subroutine dense_eigensolve returned info=    2
 ifail= 2*0
 iclustr= 95,  196
 gap= 1.04490698671162338E-5,  1.84158593140470931E-5
(P)DSYGVX in subroutine dense_eigensolve returned info=    2
 ifail= 2*0
 iclustr= 137,  196
 gap= 1.98611011427240637E-5,  1.36031594312064232E-5
(P)DSYGVX in subroutine dense_eigensolve returned info=    2
 ifail= 2*0
 iclustr= 95,  196
 gap= 1.14791756855672342E-5,  2.47407139780266475E-5
(P)DSYGVX in subroutine dense_eigensolve returned info=    2
 ifail= 2*0
 iclustr= 143,  206
 gap= 3.20270261277742912E-5,  9.70184482493060662E-5
(P)DSYGVX in subroutine dense_eigensolve returned info=    2
 ifail= 2*0
 iclustr= 137,  196
 gap= 1.92882847362730954E-5,  1.35065799920643896E-5
(P)DSYGVX in subroutine dense_eigensolve returned info=    2
 ifail= 2*0
 iclustr= 95,  196
 gap= 1.22273524087699328E-5,  2.4110356339153732E-5
(P)DSYGVX in subroutine dense_eigensolve returned info=    2
 ifail= 2*0
 iclustr= 144,  196
 gap= 1.37143830933709495E-5,  2.07983691357072134E-5
(P)DSYGVX in subroutine dense_eigensolve returned info=    2
 ifail= 2*0
 iclustr= 95,  196
 gap= 1.05217328298131829E-5,  1.72202297072397588E-5
(P)DSYGVX in subroutine dense_eigensolve returned info=    2
 ifail= 2*0
 iclustr= 123,  172
 gap= 3.81691048044033082E-5,  1.20172815862884732E-5
(P)DSYGVX in subroutine dense_eigensolve returned info=    2
 ifail= 2*0
 iclustr= 101,  200
 gap= 1.65456567450168E-5,  4.3315713936028312E-5
(P)DSYGVX in subroutine dense_eigensolve returned info=    2
 ifail= 2*0
 iclustr= 144,  196
 gap= 1.69082394929657606E-5,  1.84453463955335783E-5
(P)DSYGVX in subroutine dense_eigensolve returned info=    2
 ifail= 2*0
 iclustr= 95,  196
 gap= 1.05599053240330831E-5,  1.81873747085974063E-5
(P)DSYGVX in subroutine dense_eigensolve returned info=    2
 ifail= 2*0
 iclustr= 137,  196
 gap= 1.9059327798779787E-5,  1.3497018165542768E-5
(P)DSYGVX in subroutine dense_eigensolve returned info=    2
 ifail= 2*0
 iclustr= 95,  196
 gap= 1.0100858496209663E-5,  2.54235501012653688E-5
(P)DSYGVX in subroutine dense_eigensolve returned info=    2
 ifail= 2*0
 iclustr= 101,  206
 gap= 2.38750926989587531E-5,  4.52570928782428E-5
(P)DSYGVX in subroutine dense_eigensolve returned info=    2
 ifail= 2*0
 iclustr= 144,  196
 gap= 1.70064317591062129E-5,  1.33587360617085523E-5
(P)DSYGVX in subroutine dense_eigensolve returned info=    2
 ifail= 2*0
 iclustr= 95,  196
 gap= 1.03535854479470799E-5,  2.27653805100416338E-5
(P)DSYGVX in subroutine dense_eigensolve returned info=    2
 ifail= 2*0
 iclustr= 144,  196
 gap= 1.4477687716437929E-5,  2.04039144764567117E-5
(P)DSYGVX in subroutine dense_eigensolve returned info=    2
 ifail= 2*0
 iclustr= 95,  196
 gap= 1.05918292083703203E-5,  1.70497868076103998E-5
(P)DSYGVX in subroutine dense_eigensolve returned info=    2
 ifail= 2*0
 iclustr= 98,  187
 gap= 2.44662909468050081E-5,  6.82758621404415498E-5
(P)DSYGVX in subroutine dense_eigensolve returned info=    2
 ifail= 2*0
 iclustr= 101,  200
 gap= 1.11220512073041216E-5,  3.26261142245430006E-5
(P)DSYGVX in subroutine dense_eigensolve returned info=    2
 ifail= 2*0
 iclustr= 144,  196
 gap= 1.75535042627999525E-5,  1.80849577849104899E-5
(P)DSYGVX in subroutine dense_eigensolve returned info=    2
 ifail= 2*0
 iclustr= 95,  196
 gap= 1.06047674864239202E-5,  1.79467161623099129E-5
(P)DSYGVX in subroutine dense_eigensolve returned info=    2
 ifail= 2*0
 iclustr= 137,  196
 gap= 1.68495402710903347E-5,  1.30287107712105407E-5
(P)DSYGVX in subroutine dense_eigensolve returned info=    2
 ifail= 2*0
 iclustr= 95,  196
 gap= 1.05341567720588622E-5,  2.41899989327494543E-5
(P)DSYGVX in subroutine dense_eigensolve returned info=    2
 ifail= 2*0
 iclustr= 113,  172
 gap= 3.07531994981558171E-5,  6.66276235929338663E-5
(P)DSYGVX in subroutine dense_eigensolve returned info=    2
 ifail= 2*0
 iclustr= 101,  208
 gap= 1.09810187739826707E-5,  3.34409947230881517E-5
(P)DSYGVX in subroutine dense_eigensolve returned info=    2
 ifail= 2*0
 iclustr= 144,  196
 gap= 1.51142317556130352E-5,  1.33117389759401409E-5
(P)DSYGVX in subroutine dense_eigensolve returned info=    2
 ifail= 2*0
 iclustr= 95,  196
 gap= 1.07286758944921332E-5,  2.17381757903814115E-5
(P)DSYGVX in subroutine dense_eigensolve returned info=    2
 ifail= 2*0
 iclustr= 144,  196
 gap= 1.52869319859227717E-5,  2.00371083108193365E-5
(P)DSYGVX in subroutine dense_eigensolve returned info=    2
 ifail= 2*0
 iclustr= 95,  196
 gap= 1.06786250842347328E-5,  1.69327776156169582E-5
(P)DSYGVX in subroutine dense_eigensolve returned info=    2
 ifail= 2*0
 iclustr= 122,  193
 gap= 2.60983993353383834E-5,  6.26385349262154842E-5
(P)DSYGVX in subroutine dense_eigensolve returned info=    2
 ifail= 2*0
 iclustr= 101,  202
 gap= 1.12264861229404677E-5,  2.191648525355245E-5
(P)DSYGVX in subroutine dense_eigensolve returned info=    2
 ifail= 2*0
 iclustr= 144,  196
 gap= 1.82008488357174832E-5,  1.78096798457903016E-5
(P)DSYGVX in subroutine dense_eigensolve returned info=    2
 ifail= 2*0
 iclustr= 95,  196
 gap= 1.06707004269882577E-5,  1.77539707419618688E-5
(P)DSYGVX in subroutine dense_eigensolve returned info=    2
 ifail= 2*0
 iclustr= 144,  196
 gap= 1.51491599728644367E-5,  1.28390551346311002E-5
(P)DSYGVX in subroutine dense_eigensolve returned info=    2
 ifail= 2*0
 iclustr= 95,  196
 gap= 1.05762214592907691E-5,  2.32028277309146452E-5
(P)DSYGVX in subroutine dense_eigensolve returned info=    2
 ifail= 2*0
 iclustr= 128,  187
 gap= 1.64768537913271948E-5,  6.12785115767850488E-5
(P)DSYGVX in subroutine dense_eigensolve returned info=    2
 ifail= 2*0
 iclustr= 101,  200
 gap= 1.92857671728335329E-5,  2.52127746900636297E-5
(P)DSYGVX in subroutine dense_eigensolve returned info=    2
 ifail= 2*0
 iclustr= 144,  196
 gap= 1.40979958593551277E-5,  1.37242201984434561E-5
(P)DSYGVX in subroutine dense_eigensolve returned info=    2
 ifail= 2*0
 iclustr= 95,  196
 gap= 1.09608009905430901E-5,  2.08667029028380393E-5
(P)DSYGVX in subroutine dense_eigensolve returned info=    2
 ifail= 2*0
 iclustr= 144,  196
 gap= 1.6101197862307363E-5,  1.97064713033702397E-5
(P)DSYGVX in subroutine dense_eigensolve returned info=    2
 ifail= 2*0
 iclustr= 95,  196
 gap= 1.04179520621828736E-5,  1.68490121613257768E-5
(P)DSYGVX in subroutine dense_eigensolve returned info=    2
 ifail= 2*0
 iclustr= 122,  196
 gap= 1.95349077691211364E-5,  5.7399642762885069E-5
(P)DSYGVX in subroutine dense_eigensolve returned info=    2
 ifail= 2*0
 iclustr= 101,  194
 gap= 1.15074482219017568E-5,  2.98741202108020795E-5
(P)DSYGVX in subroutine dense_eigensolve returned info=    2
 ifail= 2*0
 iclustr= 144,  196
 gap= 1.88374089795856944E-5,  1.76001751009364842E-5
(P)DSYGVX in subroutine dense_eigensolve returned info=    2
 ifail= 2*0
 iclustr= 95,  196
 gap= 1.03293650943333587E-5,  1.7598428825339909E-5
(P)DSYGVX in subroutine dense_eigensolve returned info=    2
 ifail= 2*0
 iclustr= 144,  196
 gap= 1.39634591256979484E-5,  1.29068725352411715E-5
(P)DSYGVX in subroutine dense_eigensolve returned info=    2
 ifail= 2*0
 iclustr= 95,  196
 gap= 1.99837707647850058E-5,  2.23833967771710273E-5
(P)DSYGVX in subroutine dense_eigensolve returned info=    2
 ifail= 2*0
 iclustr= 113,  187
 gap= 2.86050498438823663E-5,  5.63181674773596496E-5
(P)DSYGVX in subroutine dense_eigensolve returned info=    2
 ifail= 2*0
 iclustr= 101,  200
 gap= 1.1266074955275358E-5,  3.6003820934955154E-5
(P)DSYGVX in subroutine dense_eigensolve returned info=    2
 ifail= 2*0
 iclustr= 144,  196
 gap= 1.21749414113682828E-5,  1.37536414573279693E-5
(P)DSYGVX in subroutine dense_eigensolve returned info=    2
 ifail= 2*0
 iclustr= 95,  196
 gap= 1.81513150817244268E-5,  2.00797845423829619E-5
   5     0.00003522403064  -8049.97865812365762   1.122206  -8049.99246329530433        
(P)DSYGVX in subroutine dense_eigensolve returned info=    2
 ifail= 2*0
 iclustr= 107,  148
 gap= 1.54926504583114976E-5,  1.46425590249191559E-5
(P)DSYGVX in subroutine dense_eigensolve returned info=    2
 ifail= 2*0
 iclustr= 113,  190
 gap= 4.50265847670011711E-5,  4.66905718753161334E-5
(P)DSYGVX in subroutine dense_eigensolve returned info=    2
 ifail= 2*0
 iclustr= 92,  137
 gap= 2.2163167687730632E-5,  1.80409922614807822E-5
(P)DSYGVX in subroutine dense_eigensolve returned info=    2
 ifail= 2*0
 iclustr= 95,  196
 gap= 1.28709363395359089E-5,  7.0203089425690152E-5
(P)DSYGVX in subroutine dense_eigensolve returned info=    2
 ifail= 2*0
 iclustr= 144,  196
 gap= 1.47627554733799706E-5,  2.09341030186154852E-5
(P)DSYGVX in subroutine dense_eigensolve returned info=    2
 ifail= 2*0
 iclustr= 95,  196
 gap= 1.05266355141268144E-5,  1.64779911228121973E-5
(P)DSYGVX in subroutine dense_eigensolve returned info=    2
 ifail= 2*0
 iclustr= 144,  196
 gap= 1.73089758620157858E-5,  1.19852553095951963E-5
(P)DSYGVX in subroutine dense_eigensolve returned info=    2
 ifail= 2*0
 iclustr= 95,  196
 gap= 1.09181907350285144E-5,  1.78377331074709616E-5
(P)DSYGVX in subroutine dense_eigensolve returned info=    2
 ifail= 2*0
 iclustr= 92,  136
 gap= 1.52948803602969772E-5,  2.3661564475652177E-5
(P)DSYGVX in subroutine dense_eigensolve returned info=    2
 ifail= 2*0
 iclustr= 95,  196
 gap= 1.0895506861812919E-5,  2.34152401802122617E-5
(P)DSYGVX in subroutine dense_eigensolve returned info=    2
 ifail= 2*0
 iclustr= 144,  196
 gap= 1.22370314483325261E-5,  1.37924205388724999E-5
(P)DSYGVX in subroutine dense_eigensolve returned info=    2
 ifail= 2*0
 iclustr= 95,  196
 gap= 1.80404311863299951E-5,  2.01868106325589926E-5
(P)DSYGVX in subroutine dense_eigensolve returned info=    2
 ifail= 2*0
 iclustr= 144,  196
 gap= 1.47627554733799706E-5,  2.09341030186154852E-5
(P)DSYGVX in subroutine dense_eigensolve returned info=    2
 ifail= 2*0
 iclustr= 95,  196
 gap= 1.05266355141268144E-5,  1.64779911228121973E-5
(P)DSYGVX in subroutine dense_eigensolve returned info=    2
 ifail= 2*0
 iclustr= 144,  196
 gap= 1.80008075975288196E-5,  1.91023762921442923E-5
(P)DSYGVX in subroutine dense_eigensolve returned info=    2
 ifail= 2*0
 iclustr= 95,  196
 gap= 1.0347860659713661E-5,  1.6704456088879342E-5
(P)DSYGVX in subroutine dense_eigensolve returned info=    2
 ifail= 2*0
 iclustr= 134,  196
 gap= 2.69971787351683953E-5,  5.70217972246651574E-5
(P)DSYGVX in subroutine dense_eigensolve returned info=    2
 ifail= 2*0
 iclustr= 95,  196
 gap= 1.84381019812968529E-5,  3.63903875996517446E-5
(P)DSYGVX in subroutine dense_eigensolve returned info=    2
 ifail= 2*0
 iclustr= 144,  196
 gap= 1.17287532239577068E-5,  1.12376131966130636E-5
(P)DSYGVX in subroutine dense_eigensolve returned info=    2
 ifail= 2*0
 iclustr= 95,  196
 gap= 1.32377187005865949E-5,  1.42135542887202549E-5
(P)DSYGVX in subroutine dense_eigensolve returned info=    2
 ifail= 2*0
 iclustr= 138,  196
 gap= 2.04991294165314242E-5,  9.144139477583303E-5
(P)DSYGVX in subroutine dense_eigensolve returned info=    2
 ifail= 2*0
 iclustr= 95,  202
 gap= 2.48954315337470344E-5,  1.25501770083532146E-5
(P)DSYGVX in subroutine dense_eigensolve returned info=    2
 ifail= 2*0
 iclustr= 137,  196
 gap= 1.24687354284011352E-5,  1.80880842831292093E-5
(P)DSYGVX in subroutine dense_eigensolve returned info=    2
 ifail= 2*0
 iclustr= 95,  196
 gap= 1.88992675281132995E-5,  3.41046092342265074E-5
(P)DSYGVX in subroutine dense_eigensolve returned info=    2
 ifail= 2*0
 iclustr= 144,  196
 gap= 1.9782431442731928E-5,  1.90707352686457312E-5
(P)DSYGVX in subroutine dense_eigensolve returned info=    2
 ifail= 2*0
 iclustr= 95,  196
 gap= 1.39032365103350191E-5,  1.62236700095716313E-5
(P)DSYGVX in subroutine dense_eigensolve returned info=    2
 ifail= 2*0
 iclustr= 144,  196
 gap= 1.97906574883098345E-5,  1.57036230641908938E-5
(P)DSYGVX in subroutine dense_eigensolve returned info=    2
 ifail= 2*0
 iclustr= 95,  196
 gap= 1.00270019652613708E-5,  1.68647425777992351E-5
(P)DSYGVX in subroutine dense_eigensolve returned info=    2
 ifail= 2*0
 iclustr= 98,  196
 gap= 2.13668575456060233E-5,  1.52978698022558785E-5
(P)DSYGVX in subroutine dense_eigensolve returned info=    2
 ifail= 2*0
 iclustr= 102,  202
 gap= 1.04706607548725017E-5,  8.23741934357496985E-5
(P)DSYGVX in subroutine dense_eigensolve returned info=    2
 ifail= 2*0
 iclustr= 144,  196
 gap= 1.1768263382733351E-5,  2.06271717263370867E-5
(P)DSYGVX in subroutine dense_eigensolve returned info=    2
 ifail= 2*0
 iclustr= 95,  196
 gap= 1.02357498185782814E-5,  1.06640528254526489E-5
(P)DSYGVX in subroutine dense_eigensolve returned info=    2
 ifail= 2*0
 iclustr= 144,  196
 gap= 1.35092412080660353E-5,  1.19044848718964514E-5
(P)DSYGVX in subroutine dense_eigensolve returned info=    2
 ifail= 2*0
 iclustr= 95,  196
 gap= 1.00027871480356293E-5,  1.77041736466364124E-5
(P)DSYGVX in subroutine dense_eigensolve returned info=    2
 ifail= 2*0
 iclustr= 128,  187
 gap= 2.38187977478774458E-5,  6.46060995417952009E-5
(P)DSYGVX in subroutine dense_eigensolve returned info=    2
 ifail= 2*0
 iclustr= 101,  200
 gap= 2.651302580544406E-5,  7.74692250396038135E-5
(P)DSYGVX in subroutine dense_eigensolve returned info=    2
 ifail= 2*0
 iclustr= 144,  196
 gap= 2.11157031183931493E-5,  1.00104732917464223E-5
(P)DSYGVX in subroutine dense_eigensolve returned info=    2
 ifail= 2*0
 iclustr= 95,  196
 gap= 1.09488166198103568E-5,  1.69134340679089991E-5
(P)DSYGVX in subroutine dense_eigensolve returned info=    2
 ifail= 2*0
 iclustr= 144,  196
 gap= 1.66677807671758924E-5,  1.01697499036917681E-5
(P)DSYGVX in subroutine dense_eigensolve returned info=    2
 ifail= 2*0
 iclustr= 95,  196
 gap= 1.00162736388948027E-5,  1.42016416516392364E-5
(P)DSYGVX in subroutine dense_eigensolve returned info=    2
 ifail= 2*0
 iclustr= 92,  196
 gap= 1.88566225083367489E-5,  5.32601743127073568E-5
(P)DSYGVX in subroutine dense_eigensolve returned info=    2
 ifail= 2*0
 iclustr= 95,  196
 gap= 1.41219261901163236E-5,  3.90498720054258596E-5
(P)DSYGVX in subroutine dense_eigensolve returned info=    2
 ifail= 2*0
 iclustr= 144,  196
 gap= 1.13122571857102957E-5,  2.049385484840379E-5
(P)DSYGVX in subroutine dense_eigensolve returned info=    2
 ifail= 2*0
 iclustr= 95,  196
 gap= 1.00690928368759783E-5,  1.0970499828551759E-5
(P)DSYGVX in subroutine dense_eigensolve returned info=    2
 ifail= 2*0
 iclustr= 144,  196
 gap= 1.33845794333586219E-5,  2.05177826985687792E-5
(P)DSYGVX in subroutine dense_eigensolve returned info=    2
 ifail= 2*0
 iclustr= 95,  196
 gap= 1.82087786004715944E-5,  1.6124666532702187E-5
(P)DSYGVX in subroutine dense_eigensolve returned info=    2
 ifail= 2*0
 iclustr= 122,  187
 gap= 2.9031885141972515E-5,  5.75365937407234496E-5
(P)DSYGVX in subroutine dense_eigensolve returned info=    2
 ifail= 2*0
 iclustr= 101,  200
 gap= 1.56441781018358624E-5,  9.30202899966770495E-5
(P)DSYGVX in subroutine dense_eigensolve returned info=    2
 ifail= 2*0
 iclustr= 144,  196
 gap= 2.20675654166086416E-5,  1.66168702385975139E-5
(P)DSYGVX in subroutine dense_eigensolve returned info=    2
 ifail= 2*0
 iclustr= 95,  196
 gap= 1.22320773646154099E-5,  1.72404896882822816E-5
(P)DSYGVX in subroutine dense_eigensolve returned info=    2
 ifail= 2*0
 iclustr= 144,  196
 gap= 1.55713829771663209E-5,  1.00923556126018089E-5
(P)DSYGVX in subroutine dense_eigensolve returned info=    2
 ifail= 2*0
 iclustr= 95,  196
 gap= 1.07038497466428088E-5,  1.30664519366794927E-5
(P)DSYGVX in subroutine dense_eigensolve returned info=    2
 ifail= 2*0
 iclustr= 92,  196
 gap= 1.41553763393333192E-5,  5.11813814407293543E-5
(P)DSYGVX in subroutine dense_eigensolve returned info=    2
 ifail= 2*0
 iclustr= 95,  196
 gap= 1.54447728422005209E-5,  9.72914666102850926E-5
(P)DSYGVX in subroutine dense_eigensolve returned info=    2
 ifail= 2*0
 iclustr= 144,  196
 gap= 1.07145675189116726E-5,  2.0190403459637808E-5
(P)DSYGVX in subroutine dense_eigensolve returned info=    2
 ifail= 2*0
 iclustr= 95,  196
 gap= 1.00971101223041945E-5,  1.15249991972491617E-5
(P)DSYGVX in subroutine dense_eigensolve returned info=    2
 ifail= 2*0
 iclustr= 144,  196
 gap= 1.64629898182128152E-5,  1.99241101880904509E-5
(P)DSYGVX in subroutine dense_eigensolve returned info=    2
 ifail= 2*0
 iclustr= 95,  196
 gap= 1.63682901515421799E-5,  1.5871140968052682E-5
(P)DSYGVX in subroutine dense_eigensolve returned info=    2
 ifail= 2*0
 iclustr= 122,  196
 gap= 1.42118732827168513E-5,  5.45447571738313903E-5
(P)DSYGVX in subroutine dense_eigensolve returned info=    2
 ifail= 2*0
 iclustr= 101,  200
 gap= 2.75261771785470588E-5,  4.33164587947827673E-5
(P)DSYGVX in subroutine dense_eigensolve returned info=    2
 ifail= 2*0
 iclustr= 144,  196
 gap= 2.22389242881662266E-5,  1.60727408590681798E-5
(P)DSYGVX in subroutine dense_eigensolve returned info=    2
 ifail= 2*0
 iclustr= 95,  196
 gap= 1.06036246718203097E-5,  1.75930511251289199E-5
(P)DSYGVX in subroutine dense_eigensolve returned info=    2
 ifail= 2*0
 iclustr= 144,  196
 gap= 1.4706791443717242E-5,  1.87819702112508458E-5
(P)DSYGVX in subroutine dense_eigensolve returned info=    2
 ifail= 2*0
 iclustr= 95,  196
 gap= 1.01888000182578983E-5,  1.20161273464442551E-5
(P)DSYGVX in subroutine dense_eigensolve returned info=    2
 ifail= 2*0
 iclustr= 92,  137
 gap= 2.80549221509163971E-5,  3.13736015204384727E-5
(P)DSYGVX in subroutine dense_eigensolve returned info=    2
 ifail= 2*0
 iclustr= 95,  196
 gap= 1.25161391191411305E-5,  8.54364883816731831E-5
(P)DSYGVX in subroutine dense_eigensolve returned info=    2
 ifail= 2*0
 iclustr= 144,  196
 gap= 1.03833237033456499E-5,  2.02498692371519484E-5
(P)DSYGVX in subroutine dense_eigensolve returned info=    2
 ifail= 2*0
 iclustr= 95,  196
 gap= 1.00649920759974401E-5,  1.16292377682762964E-5
   6     0.00004505427204  -8049.99493977230213   0.713531  -8050.00148978569632        
(P)DSYGVX in subroutine dense_eigensolve returned info=    2
 ifail= 2*0
 iclustr= 92,  136
 gap= 2.92780613193508149E-5,  2.55126569352590183E-5
(P)DSYGVX in subroutine dense_eigensolve returned info=    2
 ifail= 2*0
 iclustr= 95,  196
 gap= 2.15249540134838147E-5,  2.41048895040081953E-5
(P)DSYGVX in subroutine dense_eigensolve returned info=    2
 ifail= 2*0
 iclustr= 137,  196
 gap= 1.05051435708724862E-5,  1.35604857975151867E-5
(P)DSYGVX in subroutine dense_eigensolve returned info=    2
 ifail= 2*0
 iclustr= 95,  196
 gap= 1.0140007445885928E-5,  1.18874850174660175E-5
(P)DSYGVX in subroutine dense_eigensolve returned info=    2
 ifail= 2*0
 iclustr= 137,  196
 gap= 1.18079710628662349E-5,  1.23766516439316656E-5
(P)DSYGVX in subroutine dense_eigensolve returned info=    2
 ifail= 2*0
 iclustr= 95,  167
 gap= 1.54845349503698795E-5,  1.40296620179353771E-5
(P)DSYGVX in subroutine dense_eigensolve returned info=    2
 ifail= 2*0
 iclustr= 92,  136
 gap= 1.6259580964242454E-5,  2.09923622778297867E-5
(P)DSYGVX in subroutine dense_eigensolve returned info=    2
 ifail= 2*0
 iclustr= 95,  196
 gap= 1.03820102249706571E-5,  1.69240568543209161E-5
(P)DSYGVX in subroutine dense_eigensolve returned info=    2
 ifail= 2*0
 iclustr= 137,  196
 gap= 1.86381728640972093E-5,  1.21795790508969565E-5
(P)DSYGVX in subroutine dense_eigensolve returned info=    2
 ifail= 2*0
[...]
*    Co      9      0.00000000  -0.00000000   0.00000000 *
*    Co     10      0.00000000  -0.00000000   0.00000000 *
*    Co     11      0.00000000   0.00000000   0.00000000 *
*    Co     12      0.00000000  -0.00000000  -0.00000000 *
*    Co     13      0.00000000   0.00000000  -0.00000000 *
*    Co     14     -0.00000000  -0.00000000   0.00000000 *
*    Co     15     -0.00000000   0.00000000   0.00000000 *
*    Co     16     -0.00000000  -0.00000000  -0.00000000 *
*    Co     17      0.00000000  -0.00000000   0.00000000 *
*    Co     18      0.00000000   0.00000000   0.00000000 *
*    Co     19      0.00000000  -0.00000000  -0.00000000 *
*    Co     20      0.00000000  -0.00000000  -0.00000000 *
*    Co     21      0.00000000  -0.00000000   0.00000000 *
*    Co     22     -0.00000000  -0.00000000  -0.00000000 *
*    Co     23      0.00000000   0.00000000  -0.00000000 *
*    Co     24      0.00000000   0.00000000   0.00000000 *
*    Co     25     -0.00000000   0.00000000  -0.00000000 *
*    Co     26     -0.00000000   0.00000000  -0.00000000 *
*    Co     27      0.00000000   0.00000000  -0.00000000 *
*    Co     28     -0.00000000  -0.00000000  -0.00000000 *
*    Co     29     -0.00000000   0.00000000   0.00000000 *
*    Co     30      0.00000000   0.00000000   0.00000000 *
*    Co     31     -0.00000000  -0.00000000   0.00000000 *
*    Co     32     -0.00000000   0.00000000  -0.00000000 *
*    Co     33     -0.00000000  -0.00000000  -0.00000000 *
*    Co     34     -0.00000000   0.00000000   0.00000000 *
*    Co     35     -0.00000000  -0.00000000   0.00000000 *
*    Co     36      0.00000000   0.00000000  -0.00000000 *
*    Co     37      0.00000000  -0.00000000  -0.00000000 *
*    Co     38      0.00000000   0.00000000   0.00000000 *
*    Co     39      0.00000000  -0.00000000   0.00000000 *
*    Co     40     -0.00000000  -0.00000000   0.00000000 *
*    Co     41     -0.00000000  -0.00000000  -0.00000000 *
*    Co     42      0.00000000  -0.00000000   0.00000000 *
*    Co     43      0.00000000  -0.00000000  -0.00000000 *
*    Co     44     -0.00000000   0.00000000   0.00000000 *
*    Co     45     -0.00000000   0.00000000  -0.00000000 *
*    Co     46      0.00000000   0.00000000   0.00000000 *
*    Co     47      0.00000000   0.00000000  -0.00000000 *
*    Co     48      0.00000000  -0.00000000  -0.00000000 *
*    Co     49     -0.00000000  -0.00000000  -0.00000000 *
*    Co     50      0.00000000   0.00000000  -0.00000000 *
*    Co     51     -0.00000000   0.00000000  -0.00000000 *
*    Co     52      0.00000000  -0.00000000   0.00000000 *
*    Co     53     -0.00000000  -0.00000000   0.00000000 *
*    Co     54      0.00000000   0.00000000   0.00000000 *
*    Co     55     -0.00000000   0.00000000   0.00000000 *
*                                                        *
**********************************************************
TOTAL:              0.00000000   0.00000000   0.00000000
 
********************* Unconstrained **********************
****** Correction to ensure the total force is zero ******
*                                                        *
* Element  Atom         Cartesian components (Eh/a)      *
* ------------------------------------------------------ *
*                       x            y            z      *
*                                                        *
*    Co      1     -0.00003363  -0.00003361  -0.00003376 *
*    Co      2     -0.00003363  -0.00003361  -0.00003376 *
*    Co      3     -0.00003363  -0.00003361  -0.00003376 *
*    Co      4     -0.00003363  -0.00003361  -0.00003376 *
*    Co      5     -0.00003363  -0.00003361  -0.00003376 *
*    Co      6     -0.00003363  -0.00003361  -0.00003376 *
*    Co      7     -0.00003363  -0.00003361  -0.00003376 *
*    Co      8     -0.00003363  -0.00003361  -0.00003376 *
*    Co      9     -0.00003363  -0.00003361  -0.00003376 *
*    Co     10     -0.00003363  -0.00003361  -0.00003376 *
*    Co     11     -0.00003363  -0.00003361  -0.00003376 *
*    Co     12     -0.00003363  -0.00003361  -0.00003376 *
*    Co     13     -0.00003363  -0.00003361  -0.00003376 *
*    Co     14     -0.00003363  -0.00003361  -0.00003376 *
*    Co     15     -0.00003363  -0.00003361  -0.00003376 *
*    Co     16     -0.00003363  -0.00003361  -0.00003376 *
*    Co     17     -0.00003363  -0.00003361  -0.00003376 *
*    Co     18     -0.00003363  -0.00003361  -0.00003376 *
*    Co     19     -0.00003363  -0.00003361  -0.00003376 *
*    Co     20     -0.00003363  -0.00003361  -0.00003376 *
*    Co     21     -0.00003363  -0.00003361  -0.00003376 *
*    Co     22     -0.00003363  -0.00003361  -0.00003376 *
*    Co     23     -0.00003363  -0.00003361  -0.00003376 *
*    Co     24     -0.00003363  -0.00003361  -0.00003376 *
*    Co     25     -0.00003363  -0.00003361  -0.00003376 *
*    Co     26     -0.00003363  -0.00003361  -0.00003376 *
*    Co     27     -0.00003363  -0.00003361  -0.00003376 *
*    Co     28     -0.00003363  -0.00003361  -0.00003376 *
*    Co     29     -0.00003363  -0.00003361  -0.00003376 *
*    Co     30     -0.00003363  -0.00003361  -0.00003376 *
*    Co     31     -0.00003363  -0.00003361  -0.00003376 *
*    Co     32     -0.00003363  -0.00003361  -0.00003376 *
*    Co     33     -0.00003363  -0.00003361  -0.00003376 *
*    Co     34     -0.00003363  -0.00003361  -0.00003376 *
*    Co     35     -0.00003363  -0.00003361  -0.00003376 *
*    Co     36     -0.00003363  -0.00003361  -0.00003376 *
*    Co     37     -0.00003363  -0.00003361  -0.00003376 *
*    Co     38     -0.00003363  -0.00003361  -0.00003376 *
*    Co     39     -0.00003363  -0.00003361  -0.00003376 *
*    Co     40     -0.00003363  -0.00003361  -0.00003376 *
*    Co     41     -0.00003363  -0.00003361  -0.00003376 *
*    Co     42     -0.00003363  -0.00003361  -0.00003376 *
*    Co     43     -0.00003363  -0.00003361  -0.00003376 *
*    Co     44     -0.00003363  -0.00003361  -0.00003376 *
*    Co     45     -0.00003363  -0.00003361  -0.00003376 *
*    Co     46     -0.00003363  -0.00003361  -0.00003376 *
*    Co     47     -0.00003363  -0.00003361  -0.00003376 *
*    Co     48     -0.00003363  -0.00003361  -0.00003376 *
*    Co     49     -0.00003363  -0.00003361  -0.00003376 *
*    Co     50     -0.00003363  -0.00003361  -0.00003376 *
*    Co     51     -0.00003363  -0.00003361  -0.00003376 *
*    Co     52     -0.00003363  -0.00003361  -0.00003376 *
*    Co     53     -0.00003363  -0.00003361  -0.00003376 *
*    Co     54     -0.00003363  -0.00003361  -0.00003376 *
*    Co     55     -0.00003363  -0.00003361  -0.00003376 *
*                                                        *
**********************************************************
TOTAL:             -0.00184969  -0.00184881  -0.00185670

********************* Unconstrained **********************
************************* Forces *************************
*                                                        *
* Element  Atom         Cartesian components (Eh/a)      *
* ------------------------------------------------------ *
*                       x            y            z      *
*                                                        *
*    Co      1      0.00005493   0.00005488   0.00005507 *
*    Co      2     -0.00050505  -0.00000278   0.00048010 *
*    Co      3     -0.00047946  -0.00000708  -0.00045804 *
*    Co      4      0.00054870  -0.00000944   0.00051194 *
*    Co      5      0.00052836  -0.00000904  -0.00050685 *
*    Co      6      0.00048012  -0.00050509  -0.00000261 *
*    Co      7     -0.00045822  -0.00047958  -0.00000689 *
*    Co      8      0.00051191   0.00054878  -0.00000935 *
*    Co      9     -0.00050711   0.00052840  -0.00000894 *
*    Co     10     -0.00000270   0.00048004  -0.00050496 *
*    Co     11     -0.00000701  -0.00045820  -0.00047947 *
*    Co     12     -0.00000956   0.00051196   0.00054899 *
*    Co     13     -0.00000903  -0.00050709   0.00052859 *
*    Co     14     -0.00154739   0.00001561  -0.00035916 *
*    Co     15      0.00020001   0.00000624  -0.00001352 *
*    Co     16     -0.00156769   0.00001634   0.00028683 *
*    Co     17      0.00157139   0.00001581  -0.00037032 *
*    Co     18     -0.00021570   0.00000569  -0.00001617 *
*    Co     19      0.00158989   0.00001488   0.00029822 *
*    Co     20     -0.00035920  -0.00154713   0.00001561 *
*    Co     21     -0.00001361   0.00020019   0.00000625 *
*    Co     22      0.00028723  -0.00156749   0.00001633 *
*    Co     23     -0.00037046   0.00157136   0.00001578 *
*    Co     24     -0.00001622  -0.00021581   0.00000571 *
*    Co     25      0.00029847   0.00158957   0.00001484 *
*    Co     26      0.00001557  -0.00035897  -0.00154733 *
*    Co     27      0.00000622  -0.00001360   0.00020000 *
*    Co     28      0.00001641   0.00028685  -0.00156759 *
*    Co     29      0.00001574  -0.00037032   0.00157121 *
*    Co     30      0.00000571  -0.00001624  -0.00021599 *
*    Co     31      0.00001493   0.00029842   0.00158945 *
*    Co     32     -0.00000160  -0.00013581   0.00026146 *
*    Co     33      0.00000951   0.00013772   0.00024532 *
*    Co     34      0.00000748  -0.00015453  -0.00026752 *
*    Co     35      0.00002172   0.00015067  -0.00024923 *
*    Co     36     -0.00001604  -0.00012915   0.00027000 *
*    Co     37     -0.00002544   0.00013069   0.00025293 *
*    Co     38     -0.00001835  -0.00015066  -0.00027548 *
*    Co     39     -0.00003305   0.00014723  -0.00025579 *
*    Co     40      0.00026136  -0.00000118  -0.00013594 *
*    Co     41      0.00024512   0.00000979   0.00013787 *
*    Co     42     -0.00026721   0.00000760  -0.00015451 *
*    Co     43     -0.00024880   0.00002176   0.00015067 *
*    Co     44      0.00026985  -0.00001637  -0.00012922 *
*    Co     45      0.00025271  -0.00002568   0.00013079 *
*    Co     46     -0.00027515  -0.00001855  -0.00015063 *
*    Co     47     -0.00025532  -0.00003316   0.00014722 *
*    Co     48     -0.00013600   0.00026149  -0.00000127 *
*    Co     49      0.00013781   0.00024537   0.00000982 *
*    Co     50     -0.00015465  -0.00026745   0.00000770 *
*    Co     51      0.00015071  -0.00024902   0.00002177 *
*    Co     52     -0.00012937   0.00027020  -0.00001634 *
*    Co     53      0.00013089   0.00025309  -0.00002575 *
*    Co     54     -0.00015073  -0.00027547  -0.00001847 *
*    Co     55      0.00014738  -0.00025574  -0.00003317 *
*                                                        *
**********************************************************
* TOTAL:            0.00000000   0.00000000  -0.00000000 *
**********************************************************
 
 
***********************************************************
********** Summary of Forces (values in Eh/a) *************
*                                                         *
* ---------------------- Minimum ------------------------ *
* Atom:         1, |F|min =    0.00009520                 *
* Components:     Fx|min       Fy|min       Fz|min        *
*               0.00005493   0.00005488   0.00005507      *
*                                                         *
* ---------------------- Maximum ------------------------ *
* Atom:        19, |F|max =    0.00161768                 *
* Components:     Fx|max       Fy|max       Fz|max        *
*               0.00158989   0.00001488   0.00029822      *
*                                                         *
* ---------------- Root Mean Square Force --------------- *
*                  |F|rms =    0.00084552                 *
* Components:     Fx|rms       Fy|rms       Fz|rms        *
*               0.00048818   0.00048815   0.00048815      *
***********************************************************
 

------------------------------ TIMING INFORMATION ------------------------------
AVERAGE TIME:   37762.042s on     32 proc(s)                                    
TOTAL TIME:     37762.047s on     32 proc(s)                                    
================= AVERAGE TIMINGS FROM ALL PROCS (CUMULATIVE) ==================
|| TAG                                    #calls    cpu time   %total  Gflops ||
|| linalg_invert_sym_matrix             :     5        0.00s   0.000%  ------ || (1 procs only)
|| onetep.F90 main loop imbalance       :     1        0.00s   0.000%  ------ ||
|| sw_bessel_init_cpu                   :     1        0.03s   0.000%  ------ || (1 procs only)
|| onetep.F90 final imbalance           :     1        0.01s   0.000%  ------ ||
|| ewald_calculate_forces_realspace     :    20        0.01s   0.000%  ------ ||
|| linalg_dgemv                         :    29        0.02s   0.000%  ------ ||
|| density_fftbox_interp_mult_imbal     : 311.2k       0.04s   0.000%  ------ ||
|| ewald_calculate_energy               :    20        0.07s   0.000%  ------ ||
|| sparse_set_to_garbage                :  4488        0.09s   0.000%  ------ ||
|| ewald_calculate_forces_recipspace    :    20        0.11s   0.000%  ------ ||
|| pseudo_make_structure_factor         :    20        0.17s   0.000%  ------ ||
|| ewald_calculate_forces               :    20        0.18s   0.000%  ------ ||
|| paw_tcore_density                    :    20        0.18s   0.000%  ------ ||
|| sw_init                              : 11986        0.19s   0.001%  ------ ||
|| restart_hamiltonian_read             :    18        0.22s   0.001%  ------ ||
|| paw_tcore_hartree_on_grid            :    20        0.24s   0.001%  ------ ||
|| paw_sphere_density_on_grid           :     1        0.39s   0.001%  ------ ||
|| sparse_init                          :    20        0.59s   0.002%  ------ ||
|| ngwfs_initialise_from_radial         :     2        0.61s   0.002%  ------ ||
|| paw_tcore_hartree_calc_forces        :    20        1.08s   0.003%  ------ ||
|| basis_extract_function_from_box      : 22030        1.15s   0.003%  ------ ||
|| paw_dataset_init                     :     1        1.27s   0.003%  ------ ||
|| augmentation_density_forces          :    20        2.46s   0.007%  ------ ||
|| sparse_blacstospam3_real_fast_imbal  : 22644        2.78s   0.007%  ------ ||
|| restart_hamiltonian_write            :   242        3.54s   0.009%  ------ ||
|| eigenstates_calculate                :     1        3.60s   0.010%  ------ ||
|| paw_dij_hartree                      :  8149        4.02s   0.011%  ------ ||
|| restart_kernel_write                 :   262        4.58s   0.012%  ------ ||
|| paw_nlcc_calculate_forces            :    20        4.73s   0.013%  ------ ||
|| sparse_spam3toblacs_real_fast_imbal  : 23120        4.99s   0.013%  ------ ||
|| integrals_grad_spam3                 :    20        7.46s   0.020%  ------ ||
|| nonsc_forces_ngwfs_calc              :    20        7.47s   0.020%  ------ ||
|| paw_species_calc_proj_prec_mat       :    20        9.53s   0.025%  ------ ||
|| restart_ngwfs_tightbox_input         :    18       10.33s   0.027%  ------ ||
|| energy_and_force_init_cell           :     1       10.89s   0.029%  ------ ||
|| sparse_embed_array_hotelling_invert  :   512       15.71s   0.042%  ------ ||
|| sparse_spam3toblacs_real_fast_B2     : 739.8k      21.60s   0.057%  ------ ||
|| fourier_apply_box_pair               : 27647       30.73s   0.081% 645.517 ||
|| properties_calculate                 :     1       38.83s   0.103%  ------ ||
|| fourier_filter_cell                  :  4376       55.47s   0.147%  84.271 ||
|| projectors_func_grad_ovlp_box_spam3  :    60       59.85s   0.158%  ------ ||
|| basis_copy_function_to_box           : 371.8k      70.26s   0.186%  ------ ||
|| aug_nl_calculate_forces              :    20       73.92s   0.196%  ------ ||
|| hamiltonian_energy_components        :    20       74.61s   0.198%  ------ ||
|| sparse_trace                         : 148.0k     108.18s   0.286%  ------ ||
|| hartree_on_grid_single               :  5983      109.08s   0.289%  ------ ||
|| density_init_guess_real              :    40      113.36s   0.300%  ------ ||
|| cell_grid_extract_box_real           : 137.9k     127.31s   0.337%  ------ ||
|| fourier_interpolate_cell             : 11968      135.89s   0.360%  94.090 ||
|| ngwf_gradient_coeffs                 :   242      138.52s   0.367%  ------ ||
|| projectors_init_fftbox_recip         :  2528      148.48s   0.393%  ------ ||
|| sparse_spam3toblacs_real_fast_B1     : 739.8k     165.39s   0.438%  ------ ||
|| forces_calculate                     :    20      203.91s   0.540%  ------ ||
|| sparse_spam3toblacs_real_fast        : 23120      236.68s   0.627%  ------ ||
|| function_ops_brappd_ketppd_spam3     :  1004      248.00s   0.657%  ------ ||
|| sparse_blacstospam3_real_fast        : 22644      252.64s   0.669%  ------ ||
|| integrals_kinetic_spam3              :   512      367.44s   0.973%  ------ ||
|| restart_ngwfs_tightbox_output        :   223      379.19s   1.004%  ------ ||
|| cell_grid_deposit_box_real           : 335.9k     416.35s   1.103%  ------ ||
|| fourier_apply_cell_backward          : 54019      471.23s   1.248% 110.338 ||
|| sparse_product                       : 137.9k     484.17s   1.282%  ------ ||
|| projectors_func_ovlp_box_spam3       :   512      493.57s   1.307%  ------ ||
|| fourier_apply_cell_forward           : 54019      517.54s   1.371% 100.465 ||
|| augmentation_screen_dij_spam3        :  5982      655.10s   1.735%  ------ ||
|| dense_eigensolve                     : 10820      678.90s   1.798%  ------ ||
|| edft_diag_ngwf_ham                   : 10818      900.67s   2.385%  ------ ||
|| projectors_gradient_batch            :   968     1071.91s   2.839%  ------ ||
|| xc_energy_potential                  :  6002     1296.42s   3.433%  ------ ||
|| edft_apply_smearing_operator         :  5409     1326.91s   3.514%  ------ ||
|| aug_density_on_grid_spam3            :  5984     1427.73s   3.781%  ------ ||
|| density_fftbox_deposit_to_cell       : 311.2k    1521.81s   4.030%  ------ ||
|| projectors_grad_precond_batch        :   968     1569.94s   4.157%  ------ ||
|| basis_dot_function_with_box          : 75.48M    1629.46s   4.315%  ------ ||
|| potential_apply_to_ngwf_batch        :  7784     2129.46s   5.639%  ------ ||
|| fourier_apply_box                    : 936.3k    2343.94s   6.207%  1.221k ||
|| integrals_locpot_mat_els_batch       :  7784     2839.93s   7.521%  ------ ||
|| ngwf_gradient_build_batch            :   968     3128.73s   8.285%  ------ ||
|| paw_dij_xc                           :  8149     3780.94s  10.013%  ------ ||
|| density_fftbox_interpolate_multiply  : 311.2k    3786.21s  10.026%  ------ ||
|| aug_nonlocal_mat_spam3_embed_array   :  7887     3806.10s  10.079%  ------ ||
|| basis_add_function_to_box            : 222.1M    4684.27s  12.405%  ------ ||
|| integrals_locpot_dbl_grid            :  3892     4981.57s  13.192%  ------ ||
|| ngwf_gradient_batch                  :   968     5417.10s  14.345%  ------ ||
|| ngwf_gradient_lnv                    :   242     5919.00s  15.674%  ------ ||
|| density_batch_interp_deposit         : 23936     6638.96s  17.581%  ------ ||
|| density_batch_row_sums               : 23936     7814.44s  20.694%  ------ ||
|| density_on_dbl_grid                  : 11968    14892.86s  39.439%  ------ ||
|| hamiltonian_lhxc_calculate           :  5942    18991.56s  50.293%  ------ ||
|| edft_calculate                       :   242    28327.48s  75.016%  ------ ||
|| ngwf_cg_optimise                     :    20    37229.88s  98.591%  ------ ||
|| energy_and_forces                    :    20    37719.39s  99.887%  ------ ||
|| total_time                           :     1    37762.04s 100.000%  ------ ||
================================================================================
Overhead of generating timer report: 
- 20 ms averaging over threads,
- 3 ms ensuring consistency across MPI ranks,
- 35 ms printing in order.

Job completed: 23-12-2023 02:11 (+0000)

onetep_launcher: ONETEP seems to have finished correctly (zero exit code).
