==================================================================================
It's Mon 21 Oct 2024 04:13:31 PM BST.
*** Starting onetep_launcher (node nid005015, PIDs 243444 243445 243446 243447 243448 243449 243450 243451)...
    - ONETEP arguments: U_-0.2_0.dat
    - Current directory: /mnt/lustre/a2fs-work3/work/e89/e89/phsmea/U_det_2/U_-0.2_0
    - Launcher executable directory: /mnt/lustre/a2fs-work3/work/e89/e89/phsmea/U_det_2/U_-0.2_0
    - (-e) ONETEP executable specified through command-line: /work/e89/e89/phsmea/onetep.archer2_2024_cray
      ... trying /work/e89/e89/phsmea/onetep.archer2_2024_cray
          -> looks OK
*** Setting up environment...
    - (-s) Process stack size: unlimited
    - (-t) OMP_NUM_THREADS: 16
    - (-o) OMP_STACKSIZE: 64M
    - (-c) Maximum core file size: 2048000
    - (-d) decfort_dump_flag: n
    - (-m) I_MPI_OFA_TRANSLATION_CACHE: 0
    - (-m) I_MPI_DAPL_TRANSLATION_CACHE: 0
    - (-m) I_MPI_DAPL_UD_TRANSLATION_CACHE: 0
*** Starting ONETEP...
    - /work/e89/e89/phsmea/onetep.archer2_2024_cray U_-0.2_0.dat
=================================================================================
_________________________________________________________________________________
 +---------------------------------------------------------------+
 |                                                               |
 |        ####### #     # ####### ####### ####### ######         |
 |        #     # ##    # #          #    #       #     #        |
 |        #     # # #   # #          #    #       #     #        |
 |        #     # #  #  # #####      #    #####   ######         |
 |        #     # #   # # #          #    #       #              |
 |        #     # #    ## #          #    #       #              |
 |        ####### #     # #######    #    ####### #              |
 |                                                               |
 |        Linear-Scaling Ab Initio Total Energy Program          |
 |                                                               |
 |          Release for academic collaborators of ODG            |
 |                                             Version 7.3.0     |
 | Remote: git@github.com:Miesaz/onetep_mea.git                  |
 | Local branch: master                                          |
 | Commit ID: 4af45e89288c8df5499704252eec3e032ee3d0c8           |
 | Date: Tue Aug 6 11:28:44 2024 +0100                           |
 | Working tree clean                                            |
 |                                                               |
 +---------------------------------------------------------------+
 |                                                               |
 |  Authors:                                                     |
 |  Jacek Dziedzic, Peter D. Haynes, Nicholas D. M. Hine,        |
 |  Arash A. Mostofi, Mike C. Payne and Chris-Kriton Skylaris    |
 |                                                               |
 |  Contributors:                                                |
 |  J. Aarons, L. Andrinopoulos, P. W. Avraam, R. A. Bell,       |
 |  A. Bhandari, G. A. Bramley, R. J. Charlton, S. J. Clark,     |
 |  R. J. Clements, G. C. Constantinescu, F. Corsetti,           |
 |  N. Corsini, O. Dieguez, S. M. M. Dubois, K. K. B. Duff,      |
 |  J. M. Escartin, M. Escobar Azor, A. Greco,                   |
 |  H. Helal, Q. O. Hill, L. P. Lee, J.-H. Li,                   |
 |  T. Li, E. B. Linscott, G. Moynihan, D. D. O`Regan,           |
 |  O. K. Okan, E. Parkinson, M. J. S. Phipps,                   |
 |  C. J. Pickard, J. C. A. Prentice, M. I. J. Probert,          |
 |  L. E. Ratcliff, M. Robinson, A. Ruiz Serrano,                |
 |  M. dos Santos Dias, J. S. Spencer, E. W. Tait,               |
 |  G. Teobaldi, D. Turban, V. Vitale, K. A. Wilkinson,          |
 |  C. Weber, J. C. Womack, Chengcheng Xiao, N. Yeung,           |
 |  and T. J. Zuehlsdorff.                                       |
 |                                                               |
 |                                   Copyright (c) 2004-2024     |
 |                                                               |
 |  Please cite:                                                 |
 |  "The ONETEP linear-scaling density functional theory program"|
 |   J. Chem. Phys. 152(17) 174111 (2020)                        |
 |                                                               |
 |          in all publications arising from your use of ONETEP. |
 |                                                               |
 +---------------------------------------------------------------+
 |                                                               |
 |   ONETEP is based on developments described in the following  |
 |   publications:                                               |
 |                                                               |
 |  "Nonorthogonal generalized Wannier function pseudopotential  |
 |   plane-wave method".                                         |
 |   C.-K. Skylaris, A. A. Mostofi, P. D. Haynes, O. Dieguez,    |
 |   M. C. Payne.                                                |
 |   Phys. Rev. B 66 035119 (2002).                              |
 |                                                               |
 |  "Preconditioned iterative minimization for linear-scaling    |
 |   electronic structure calculations".                         |
 |   A. A. Mostofi, P. D. Haynes, C.-K. Skylaris, M. C. Payne.   |
 |   J. Chem. Phys. 119(17), pp.8842-8848 (2003).                |
 |                                                               |
 |  "Total-energy calculations on a real space grid with         |
 |   localized functions and a plane-wave basis".                |
 |   A. A. Mostofi, C.-K. Skylaris, P. D. Haynes, M. C. Payne.   |
 |   Comput. Phys. Commun. 147, pp.788-802 (2002).               |
 |                                                               |
 |  "Accurate kinetic energy evaluation in electronic structure  |
 |   calculations with localized functions on real space grids"  |
 |   C.-K. Skylaris, A. A. Mostofi, P. D. Haynes, C. J. Pickard, |
 |   M. C. Payne.                                                |
 |   Comput. Phys. Commun. 140, pp.315-322 (2001).               |
 |                                                               |
 |  "Accurate ionic forces and geometry optimization in linear-  |
 |   scaling density-functional theory with local orbitals"      |
 |   N. D. M. Hine, M. Robinson, P. D. Haynes, C.-K. Skylaris,   |
 |   M. C. Payne, and A. A. Mostofi.                             |
 |   Phys. Rev. B 83 195102 (2011).                              |
 |                                                               |
 +---------------------------------------------------------------+

Job started: 21-10-2024 16:13 (+0100)
 
Reading parameters from file "U_-0.2_0.dat" ...
WARNING in get_rundat: hubbard_calculating_u is TRUE, so do_properties will be
overridden to TRUE.
... done

If your calculation crashes here, before "Checking processes and threads..."
is displayed, then your stack size is insufficient.
If so, use "ulimit -s unlimited" at runtime.
You can disable this check with "check_stack_size F".

Checking processes and threads...
   Running with 56 MPI processes.
   There are 8 MPI processes running on the same node as the root process.
   Each MPI process is using: 
               1 threads for simulation cell FFTs.
               1 threads for threaded FFT box operations.
              16 threads for loops over batched FFT box operations.
              16 threads in other parallel regions.
   MPI Interface: S1 (use mpi_f08) (-DMPI -DUSE_MPI_F08).
   MPI_ASYNC_PROTECTS_NONBLOCKING: Yes. MPI_SUBARRAYS_SUPPORTED: Yes.
   FFTW Interface: OMP-capable and MODERN. (-DUSE_MODERN_FFTW specified).
   GPU Interface: None.
   GPU FFT Backend: None.
... done

Basic input checks...... done

Reading geometry and species blocks from file "U_-0.2_0.dat" ...... done


--------------------------------------------------------------------------------
---------------------------------- INPUT FILE ----------------------------------
--------------------------------------------------------------------------------

charge : 0                                                                      
cutoff_energy : 1000 eV                                                         
do_properties : T                                                               
edft : F                                                                        
edft_init_maxit : 5                                                             
elec_energy_tol : 2e-07 Ha                                                      
fine_grid_scale : 4                                                             
forces_output_detail : VERBOSE                                                  
hubbard_calculating_u : T                                                       
maxit_ngwf_cg : 40                                                              
ngwf_threshold_orig : 1e-06                                                     
output_detail : BRIEF                                                           
paw : T                                                                         
spin_polarized : T                                                              
ngwfs_spin_polarized : T                                                        
read_denskern : F                                                               
read_hamiltonian : F                                                            
read_tightbox_ngwfs : F                                                         
spin : 216                                                                      
task : SinglePoint                                                              
write_denskern : T                                                              
write_forces : T                                                                
write_hamiltonian : T                                                           
write_tightbox_ngwfs : T                                                        
xc_functional : PBE                                                             
%BLOCK LATTICE_CART                                                             
ang                                                                             
41.261892132    0.000000000     0.000000000                                     
-20.630946066   35.733846792     0.000000000                                    
0.0000000000    0.000000000    17.192455055                                     
%ENDBLOCK LATTICE_CART                                                          
%BLOCK POSITIONS_ABS                                                            
ang                                                                             
Cr       3.43849101       1.98521371       9.03176873                           
Cr       0.00000000       3.97042742       9.03176919                           
I        4.42260340      -0.00001318       7.48054615                           
I        1.22717790       2.12556082       7.48054615                           
I       -2.21129029       3.83009349       7.48054615                           
I        2.45437873      -0.00001140      10.58299027                           
I        2.21129177       3.83009250      10.58299027                           
I       -1.22717949       2.12556004      10.58299027                           
Cr       0.00000000       7.94085485       9.03176873                           
Cr      -3.43849101       9.92606855       9.03176919                           
I        0.98411239       5.95562795       7.48054615                           
I       -2.21131311       8.08120195       7.48054615                           
I       -5.64978130       9.78573462       7.48054615                           
I       -0.98411228       5.95562973      10.58299027                           
I       -1.22719924       9.78573363      10.58299027                           
I       -4.66567050       8.08120117      10.58299027                           
Cr      -3.43849101      13.89649598       9.03176873                           
Cr      -6.87698202      15.88170968       9.03176919                           
I       -2.45437862      11.91126909       7.48054615                           
I       -5.64980412      14.03684309       7.48054615                           
I       -9.08827231      15.74137575       7.48054615                           
I       -4.42260329      11.91127086      10.58299027                           
I       -4.66569025      15.74137476      10.58299027                           
I       -8.10416151      14.03684230      10.58299027                           
Cr      10.31547303       1.98521371       9.03176873                           
Cr       6.87698202       3.97042742       9.03176919                           
I       11.29958542      -0.00001318       7.48054615                           
I        8.10415992       2.12556082       7.48054615                           
I        4.66569173       3.83009349       7.48054615                           
I        9.33136075      -0.00001140      10.58299027                           
I        9.08827380       3.83009250      10.58299027                           
I        5.64980253       2.12556004      10.58299027                           
Cr       6.87698202       7.94085485       9.03176873                           
Cr       3.43849101       9.92606855       9.03176919                           
I        7.86109441       5.95562795       7.48054615                           
I        4.66566891       8.08120195       7.48054615                           
I        1.22720072       9.78573462       7.48054615                           
I        5.89286974       5.95562973      10.58299027                           
I        5.64978278       9.78573363      10.58299027                           
I        2.21131152       8.08120117      10.58299027                           
Cr       3.43849101      13.89649598       9.03176873                           
Cr       0.00000000      15.88170968       9.03176919                           
I        4.42260340      11.91126909       7.48054615                           
I        1.22717790      14.03684309       7.48054615                           
I       -2.21129029      15.74137575       7.48054615                           
I        2.45437873      11.91127086      10.58299027                           
I        2.21129177      15.74137476      10.58299027                           
I       -1.22717949      14.03684230      10.58299027                           
Cr      17.19245505       1.98521371       9.03176873                           
Cr      13.75396404       3.97042742       9.03176919                           
I       18.17656744      -0.00001318       7.48054615                           
I       14.98114195       2.12556082       7.48054615                           
I       11.54267375       3.83009349       7.48054615                           
I       16.20834277      -0.00001140      10.58299027                           
I       15.96525582       3.83009250      10.58299027                           
I       12.52678455       2.12556004      10.58299027                           
Cr      13.75396404       7.94085485       9.03176873                           
Cr      10.31547303       9.92606855       9.03176919                           
I       14.73807643       5.95562795       7.48054615                           
I       11.54265094       8.08120195       7.48054615                           
I        8.10418274       9.78573462       7.48054615                           
I       12.76985176       5.95562973      10.58299027                           
I       12.52676481       9.78573363      10.58299027                           
I        9.08829354       8.08120117      10.58299027                           
Cr      10.31547303      13.89649598       9.03176873                           
Cr       6.87698202      15.88170968       9.03176919                           
I       11.29958542      11.91126909       7.48054615                           
I        8.10415992      14.03684309       7.48054615                           
I        4.66569173      15.74137575       7.48054615                           
I        9.33136075      11.91127086      10.58299027                           
I        9.08827380      15.74137476      10.58299027                           
I        5.64980253      14.03684230      10.58299027                           
Cr      -6.87698202      19.85213711       9.03176873                           
Cr     -10.31547303      21.83735082       9.03176919                           
I       -5.89286963      17.86691022       7.48054615                           
I       -9.08829513      19.99248422       7.48054615                           
I      -12.52676332      21.69701689       7.48054615                           
I       -7.86109430      17.86691200      10.58299027                           
I       -8.10418126      21.69701590      10.58299027                           
I      -11.54265252      19.99248344      10.58299027                           
Cr     -10.31547303      25.80777825       9.03176873                           
Cr     -13.75396404      27.79299195       9.03176919                           
I       -9.33136064      23.82255135       7.48054615                           
I      -12.52678614      25.94812535       7.48054615                           
I      -15.96525433      27.65265802       7.48054615                           
I      -11.29958531      23.82255313      10.58299027                           
I      -11.54267227      27.65265703      10.58299027                           
I      -14.98114353      25.94812457      10.58299027                           
Cr     -13.75396404      31.76341938       9.03176873                           
Cr     -17.19245505      33.74863308       9.03176919                           
I      -12.76985165      29.77819249       7.48054615                           
I      -15.96527715      31.90376649       7.48054615                           
I      -19.40374534      33.60829915       7.48054615                           
I      -14.73807632      29.77819426      10.58299027                           
I      -14.98116328      33.60829816      10.58299027                           
I      -18.41963454      31.90376570      10.58299027                           
Cr      -0.00000000      19.85213711       9.03176873                           
Cr      -3.43849101      21.83735082       9.03176919                           
I        0.98411239      17.86691022       7.48054615                           
I       -2.21131311      19.99248422       7.48054615                           
I       -5.64978130      21.69701689       7.48054615                           
I       -0.98411228      17.86691200      10.58299027                           
I       -1.22719923      21.69701590      10.58299027                           
I       -4.66567050      19.99248344      10.58299027                           
Cr      -3.43849101      25.80777825       9.03176873                           
Cr      -6.87698202      27.79299195       9.03176919                           
I       -2.45437862      23.82255135       7.48054615                           
I       -5.64980412      25.94812535       7.48054615                           
I       -9.08827231      27.65265802       7.48054615                           
I       -4.42260329      23.82255313      10.58299027                           
I       -4.66569025      27.65265703      10.58299027                           
I       -8.10416151      25.94812457      10.58299027                           
Cr      -6.87698202      31.76341938       9.03176873                           
Cr     -10.31547303      33.74863308       9.03176919                           
I       -5.89286963      29.77819249       7.48054615                           
I       -9.08829513      31.90376649       7.48054615                           
I      -12.52676332      33.60829915       7.48054615                           
I       -7.86109430      29.77819426      10.58299027                           
I       -8.10418126      33.60829816      10.58299027                           
I      -11.54265252      31.90376570      10.58299027                           
CrU       6.87698202      19.85213711       9.03176873                          
Cr       3.43849101      21.83735082       9.03176919                           
I        7.86109441      17.86691022       7.48054615                           
I        4.66566892      19.99248422       7.48054615                           
I        1.22720072      21.69701689       7.48054615                           
I        5.89286974      17.86691200      10.58299027                           
I        5.64978279      21.69701590      10.58299027                           
I        2.21131152      19.99248344      10.58299027                           
Cr       3.43849101      25.80777825       9.03176873                           
Cr      -0.00000000      27.79299195       9.03176919                           
I        4.42260340      23.82255135       7.48054615                           
I        1.22717791      25.94812535       7.48054615                           
I       -2.21129029      27.65265802       7.48054615                           
I        2.45437873      23.82255313      10.58299027                           
I        2.21129178      27.65265703      10.58299027                           
I       -1.22717949      25.94812457      10.58299027                           
Cr      -0.00000000      31.76341938       9.03176873                           
Cr      -3.43849101      33.74863308       9.03176919                           
I        0.98411239      29.77819249       7.48054615                           
I       -2.21131311      31.90376649       7.48054615                           
I       -5.64978130      33.60829915       7.48054615                           
I       -0.98411228      29.77819426      10.58299027                           
I       -1.22719923      33.60829816      10.58299027                           
I       -4.66567050      31.90376570      10.58299027                           
Cr      24.06943708       1.98521371       9.03176873                           
Cr      20.63094607       3.97042742       9.03176919                           
I       25.05354947      -0.00001318       7.48054615                           
I       21.85812397       2.12556082       7.48054615                           
I       18.41965578       3.83009349       7.48054615                           
I       23.08532480      -0.00001140      10.58299027                           
I       22.84223784       3.83009250      10.58299027                           
I       19.40376658       2.12556004      10.58299027                           
Cr      20.63094607       7.94085485       9.03176873                           
Cr      17.19245506       9.92606855       9.03176919                           
I       21.61505846       5.95562795       7.48054615                           
I       18.41963296       8.08120195       7.48054615                           
I       14.98116477       9.78573462       7.48054615                           
I       19.64683379       5.95562973      10.58299027                           
I       19.40374683       9.78573363      10.58299027                           
I       15.96527557       8.08120117      10.58299027                           
Cr      17.19245506      13.89649598       9.03176873                           
Cr      13.75396405      15.88170968       9.03176919                           
I       18.17656745      11.91126909       7.48054615                           
I       14.98114195      14.03684309       7.48054615                           
I       11.54267376      15.74137575       7.48054615                           
I       16.20834278      11.91127086      10.58299027                           
I       15.96525582      15.74137476      10.58299027                           
I       12.52678456      14.03684230      10.58299027                           
Cr      30.94641910       1.98521371       9.03176873                           
Cr      27.50792809       3.97042742       9.03176919                           
I       31.93053149      -0.00001318       7.48054615                           
I       28.73510599       2.12556082       7.48054615                           
I       25.29663780       3.83009349       7.48054615                           
I       29.96230682      -0.00001140      10.58299027                           
I       29.71921987       3.83009250      10.58299027                           
I       26.28074860       2.12556004      10.58299027                           
Cr      27.50792809       7.94085485       9.03176873                           
Cr      24.06943708       9.92606855       9.03176919                           
I       28.49204048       5.95562795       7.48054615                           
I       25.29661498       8.08120195       7.48054615                           
I       21.85814679       9.78573462       7.48054615                           
I       26.52381581       5.95562973      10.58299027                           
I       26.28072885       9.78573363      10.58299027                           
I       22.84225759       8.08120117      10.58299027                           
Cr      24.06943708      13.89649598       9.03176873                           
Cr      20.63094607      15.88170968       9.03176919                           
I       25.05354947      11.91126909       7.48054615                           
I       21.85812397      14.03684309       7.48054615                           
I       18.41965578      15.74137575       7.48054615                           
I       23.08532480      11.91127086      10.58299027                           
I       22.84223784      15.74137476      10.58299027                           
I       19.40376658      14.03684230      10.58299027                           
Cr      37.82340112       1.98521371       9.03176873                           
Cr      34.38491011       3.97042742       9.03176919                           
I       38.80751351      -0.00001318       7.48054615                           
I       35.61208802       2.12556082       7.48054615                           
I       32.17361982       3.83009349       7.48054615                           
I       36.83928884      -0.00001140      10.58299027                           
I       36.59620189       3.83009250      10.58299027                           
I       33.15773062       2.12556004      10.58299027                           
Cr      34.38491011       7.94085485       9.03176873                           
Cr      30.94641910       9.92606855       9.03176919                           
I       35.36902250       5.95562795       7.48054615                           
I       32.17359701       8.08120195       7.48054615                           
I       28.73512881       9.78573462       7.48054615                           
I       33.40079783       5.95562973      10.58299027                           
I       33.15771088       9.78573363      10.58299027                           
I       29.71923961       8.08120117      10.58299027                           
Cr      30.94641910      13.89649598       9.03176873                           
Cr      27.50792809      15.88170968       9.03176919                           
I       31.93053149      11.91126909       7.48054615                           
I       28.73510599      14.03684309       7.48054615                           
I       25.29663780      15.74137575       7.48054615                           
I       29.96230682      11.91127086      10.58299027                           
I       29.71921987      15.74137476      10.58299027                           
I       26.28074860      14.03684230      10.58299027                           
Cr      13.75396404      19.85213711       9.03176873                           
Cr      10.31547303      21.83735082       9.03176919                           
I       14.73807643      17.86691022       7.48054615                           
I       11.54265093      19.99248422       7.48054615                           
I        8.10418274      21.69701689       7.48054615                           
I       12.76985176      17.86691200      10.58299027                           
I       12.52676480      21.69701590      10.58299027                           
I        9.08829354      19.99248344      10.58299027                           
Cr      10.31547303      25.80777825       9.03176873                           
Cr       6.87698202      27.79299195       9.03176919                           
I       11.29958542      23.82255135       7.48054615                           
I        8.10415992      25.94812535       7.48054615                           
I        4.66569173      27.65265802       7.48054615                           
I        9.33136075      23.82255313      10.58299027                           
I        9.08827379      27.65265703      10.58299027                           
I        5.64980253      25.94812457      10.58299027                           
Cr       6.87698202      31.76341938       9.03176873                           
Cr       3.43849101      33.74863308       9.03176919                           
I        7.86109441      29.77819249       7.48054615                           
I        4.66566891      31.90376649       7.48054615                           
I        1.22720072      33.60829915       7.48054615                           
I        5.89286974      29.77819426      10.58299027                           
I        5.64978278      33.60829816      10.58299027                           
I        2.21131152      31.90376570      10.58299027                           
Cr      20.63094606      19.85213711       9.03176873                           
Cr      17.19245505      21.83735082       9.03176919                           
I       21.61505845      17.86691022       7.48054615                           
I       18.41963295      19.99248422       7.48054615                           
I       14.98116476      21.69701689       7.48054615                           
I       19.64683378      17.86691200      10.58299027                           
I       19.40374683      21.69701590      10.58299027                           
I       15.96527556      19.99248344      10.58299027                           
Cr      17.19245505      25.80777825       9.03176873                           
Cr      13.75396404      27.79299195       9.03176919                           
I       18.17656744      23.82255135       7.48054615                           
I       14.98114194      25.94812535       7.48054615                           
I       11.54267375      27.65265802       7.48054615                           
I       16.20834277      23.82255313      10.58299027                           
I       15.96525581      27.65265703      10.58299027                           
I       12.52678455      25.94812457      10.58299027                           
Cr      13.75396404      31.76341938       9.03176873                           
Cr      10.31547303      33.74863308       9.03176919                           
I       14.73807643      29.77819249       7.48054615                           
I       11.54265093      31.90376649       7.48054615                           
I        8.10418274      33.60829915       7.48054615                           
I       12.76985176      29.77819426      10.58299027                           
I       12.52676480      33.60829816      10.58299027                           
I        9.08829354      31.90376570      10.58299027                           
Cr      27.50792808      19.85213711       9.03176873                           
Cr      24.06943707      21.83735082       9.03176919                           
I       28.49204047      17.86691022       7.48054615                           
I       25.29661498      19.99248422       7.48054615                           
I       21.85814678      21.69701689       7.48054615                           
I       26.52381580      17.86691200      10.58299027                           
I       26.28072885      21.69701590      10.58299027                           
I       22.84225758      19.99248344      10.58299027                           
Cr      24.06943707      25.80777825       9.03176873                           
Cr      20.63094606      27.79299195       9.03176919                           
I       25.05354946      23.82255135       7.48054615                           
I       21.85812397      25.94812535       7.48054615                           
I       18.41965577      27.65265802       7.48054615                           
I       23.08532479      23.82255313      10.58299027                           
I       22.84223784      27.65265703      10.58299027                           
I       19.40376657      25.94812457      10.58299027                           
Cr      20.63094606      31.76341938       9.03176873                           
Cr      17.19245505      33.74863308       9.03176919                           
I       21.61505845      29.77819249       7.48054615                           
I       18.41963295      31.90376649       7.48054615                           
I       14.98116476      33.60829915       7.48054615                           
I       19.64683378      29.77819426      10.58299027                           
I       19.40374683      33.60829816      10.58299027                           
I       15.96527556      31.90376570      10.58299027                           
%ENDBLOCK POSITIONS_ABS                                                         
%BLOCK SPECIES                                                                  
Cr Cr 24 -1 15                                                                  
I   I  53 -1 15                                                                 
CrU Cr 24 -1 15                                                                 
%ENDBLOCK SPECIES                                                               
%BLOCK SPECIES_ATOMIC_SET                                                       
Cr  "SOLVE INIT SPIN=3"                                                         
I   "SOLVE"                                                                     
CrU "SOLVE INIT SPIN=3"                                                         
%ENDBLOCK SPECIES_ATOMIC_SET                                                    
%BLOCK HUBBARD                                                                  
CrU 2 0.0 0.0 -10.0 -0.20 0.0                                                   
%ENDBLOCK HUBBARD                                                               
%BLOCK SPECIES_LDOS_GROUPS                                                      
Cr                                                                              
I                                                                               
CrU                                                                             
%ENDBLOCK SPECIES_LDOS_GROUPS                                                   
%BLOCK SPECIES_POT                                                              
Cr  "/work/e89/e89/phsmea/U_det/Cr.PBE-paw.abinit"                              
I   "/work/e89/e89/phsmea/U_det/I.PBE-paw.abinit"                               
CrU "/work/e89/e89/phsmea/U_det/Cr.PBE-paw.abinit"                              
%ENDBLOCK SPECIES_POT                                                           

--------------------------------------------------------------------------------
-------------------------------- END INPUT FILE --------------------------------
--------------------------------------------------------------------------------


 
 ESDF WARNING(1): "charge" (esdf_physical) has no units. Assume "e".
<<<<<<<<<<<<<<<<<<<<<<<<<<<<<<<<< Full system >>>>>>>>>>>>>>>>>>>>>>>>>>>>>>>>>>
<<<<<<<<<<<<<<<<<<<<<<<<<<< PAW Dataset information >>>>>>>>>>>>>>>>>>>>>>>>>>>
File: /work/e89/e89/phsmea/U_det/Cr.PBE-paw.abinit; rc = 2.11 bohr; shape type =  2; rshape = 1.80 bohr;
  Atomic number: 24;  ionic charge: 14.000000
    Partial Wave 1: l = 0
    Partial Wave 2: l = 0
    Partial Wave 3: l = 1
    Partial Wave 4: l = 1
    Partial Wave 5: l = 2
    Partial Wave 6: l = 2
  Core charge supplied for Nonlinear Core Corrections
File: /work/e89/e89/phsmea/U_det/I.PBE-paw.abinit; rc = 2.30 bohr; shape type =  2; rshape = 2.11 bohr;
  Atomic number: 53;  ionic charge:  7.000000
    Partial Wave 1: l = 0
    Partial Wave 2: l = 0
    Partial Wave 3: l = 1
    Partial Wave 4: l = 1
  Core charge supplied for Nonlinear Core Corrections
<<<<<<<<<<<<<<<<<<<<<<<<<<<<<<<<<<<<<<< >>>>>>>>>>>>>>>>>>>>>>>>>>>>>>>>>>>>>>>

-------------------------- Atom counting information ---------------------------
Symbol    Natoms    Nngwfs    Nprojs
  Cr        72       936      1296
  I        216       864      1728
.......   ......    ......    ......
Totals:    288      1800      3024
--------------------------------------------------------------------------------

=============================== PSINC grid sizes ===============================
                      Simulation cell:  175 x 175 x  75
                              FFT-box:  175 x 175 x  75
                                  PPD:    5 x   5 x   1
================================================================================

Atom SCF Calculation for Cr : Z (AE atom) =  24 : Z (PS atom) =  14
Config String: 3s2.0 3p6.0 3d5.0 4s1.0 4p0.0 INIT SPIN=3
Orbitals (num,occ):  5     2.00 6.00 5.00 1.00 0.00
Orbitals   (num,l):  5        0    1    2    0    1
Atom SCF converged after  64 iterations to a total energy of    -87.07044631
Adjusting orbital occupancies:
Orbitals (num,spin,occ):  5  1     1.00 3.00 3.50 1.00 0.00
Orbitals   (num,spin,l):  5  1        0    1    2    0    1
Orbitals (num,spin,occ):  5  2     1.00 3.00 1.00 0.50 0.00
Orbitals   (num,spin,l):  5  2        0    1    2    0    1

Atom SCF Calculation for I  : Z (AE atom) =  53 : Z (PS atom) =   7
Config String: 5s2.0 5p5.0
Orbitals (num,occ):  2     2.00 5.00
Orbitals   (num,l):  2        0    1
Atom SCF converged after  28 iterations to a total energy of    -11.61352964

Atom SCF Calculation for Cr : Z (AE atom) =  24 : Z (PS atom) =  14
Config String: 3s2.0 3p6.0 3d5.0 4s1.0 4p0.0 INIT SPIN=3
Orbitals (num,occ):  5     2.00 6.00 5.00 1.00 0.00
Orbitals   (num,l):  5        0    1    2    0    1
Atom SCF converged after  64 iterations to a total energy of    -87.07044631
Adjusting orbital occupancies:
Orbitals (num,spin,occ):  5  1     1.00 3.00 3.50 1.00 0.00
Orbitals   (num,spin,l):  5  1        0    1    2    0    1
Orbitals (num,spin,occ):  5  2     1.00 3.00 1.00 0.50 0.00
Orbitals   (num,spin,l):  5  2        0    1    2    0    1

Atom SCF Calculation for Cr : Z (AE atom) =  24 : Z (PS atom) =  14
Config String: 3s2.0 3p6.0 3d5.0 4s1.0 4p0.0 INIT SPIN=3
Orbitals (num,occ):  5     2.00 6.00 5.00 1.00 0.00
Orbitals   (num,l):  5        0    1    2    0    1
Atom SCF converged after  64 iterations to a total energy of    -87.07044631

Atom SCF Calculation for I  : Z (AE atom) =  53 : Z (PS atom) =   7
Config String: 5s2.0 5p5.0
Orbitals (num,occ):  2     2.00 5.00
Orbitals   (num,l):  2        0    1
Atom SCF converged after  28 iterations to a total energy of    -11.61352964

Atom SCF Calculation for Cr : Z (AE atom) =  24 : Z (PS atom) =  14
Config String: 3s2.0 3p6.0 3d5.0 4s1.0 4p0.0 INIT SPIN=3
Orbitals (num,occ):  5     2.00 6.00 5.00 1.00 0.00
Orbitals   (num,l):  5        0    1    2    0    1
Atom SCF converged after  64 iterations to a total energy of    -87.07044631
Calculating Ewald energy ...             6126.916246 Hartree

============================= Charge Augmentation ==============================
                           Aug box size:   49 x  49 x  45
================================================================================

================================= Core Density =================================
               Core den box size:  125 x 125 x 117
================================================================================
Density kernel initialisation

################################################################################
###################### NGWF self-consistent optimisation #######################
################################################################################
|ITER|    RMS GRADIENT   |     TOTAL ENERGY    |   step   |     Epredicted      
   0     0.00009867241164  -8812.36616669521209   2.350081  -8816.27505368456150        
   1     0.00006751915956  -8816.49481089481014   1.629231  -8817.83341956730146        
   2     0.00004160074171  -8817.86929006228092   1.809437  -8818.41838695254410        
   3     0.00002884260329  -8818.44243462418854   1.958056  -8818.73281634061095        
   4     0.00002025983062  -8818.73402895251274   1.138405  -8818.81385548033904        
   5     0.00001354260224  -8818.81392180617695   1.984419  -8818.87588185174172        
   6     0.00001148928326  -8818.87478137944163   1.751834  -8818.91342209605136        
   7     0.00000896703064  -8818.91197115045361   1.591836  -8818.93300004326193        
   8     0.00000730422828  -8818.93200556027114   0.927913  -8818.94046291599625        
   9     0.00000478580292  -8818.94044710930393   2.168556  -8818.94894637248944        
  10     0.00000435943964  -8818.94871489329671   1.642045  -8818.95398553844097        
  11     0.00000317358065  -8818.95366752105110   2.384817  -8818.95760910112949        
  12     0.00000410313775  -8818.95648766804334   0.932750  -8818.95917039336928        
  13     0.00000216318744  -8818.95914804678978   2.456978  -8818.96109357039313        
  14     0.00000234401418  -8818.96081597632292   2.348107  -8818.96268518630131        
  15     0.00000235401063  -8818.96169914900383   1.659566  -8818.96256445477775        
  16     0.00000259234296  -8818.96168596957796   1.046078  -8818.96288692736016        
  17     0.00000193067683  -8818.96288067136993   1.860081  -8818.96406349747303        
  18     0.00000143623891  -8818.96398899555061   1.564237  -8818.96453622734043        
  19     0.00000089257423  -8818.96441989263076   3.030328  -8818.96478683269379        
  20     0.00000156222352  -8818.96448707653872   0.744035  -8818.96479728835220        
  21     0.00000048569861  -8818.96478373343234   2.355081  -8818.96487478792551        
  22     0.00000067948442  -8818.96482995580118   0.000004  -8818.96482995598490        

================================================================================
           ---------------- ENERGY COMPONENTS (Eh) ----------------
           | Kinetic                    :     1819.28623167261685 |
           | Core Hartree               :   -28372.65990871193210 |
           | CoreHart (non-coul chg cor):        0.00000000000000
           | Hartree                    :    13504.10908625164850 |
           | Exchange-correlation       :    -1248.28786783583769 |
           | Hubbard DFT+U correction   :       -0.04239500111215 |
           | Ewald                      :     6126.91624599049464 |
           | Dij0                       :     -555.63899781183591 |
           | Dijhartree                 :      248.93575944276816 |
           | Exc [AE core]              :   -42415.10925432559450 |
           | Exc DC [AE core]           :    -1638.58159186583180 |
           | Exc [PS core]              :    -1032.28632982197837 |
           | Exc DC [PS core]           :     -982.35673694486559 |
           | Exc [Core]                 :   -41041.23993575423080 |
           | Total [Sphere]             :     -648.28622711844946 |
           | Total                      :    -8818.96483475257082 |
           --------------------------------------------------------
           Integrated compensation chrg.:      189.15078556625934
           Integrated density           :     2519.99993594583020
           Integrated spin density      :      215.99995948896787
           Integrated |spin density|    :      164.19810999150297
================================================================================

  23     0.00000062277524  -8818.96483475256173  <-- CG                                 

################################################################################
DFT+U information on atom      1 of Hubbard species CrU 
################################################################################
Occupancy matrix of Hubbard site      1 and spin      1 is 
  m_l =   -2          -1           0           1           2
  0.89054596  0.14868613  0.00000155  0.00000055  0.00000289
  0.14872283  0.77388531 -0.00000238  0.00000343 -0.00000228
  0.00000015 -0.00000032  0.99103740  0.00000003 -0.00000002
  0.00000175  0.00000337 -0.00000111  0.77388206 -0.14872062
  0.00000283 -0.00000104 -0.00000079 -0.14868529  0.89054877
WARNING: DFT+U ENERGY of Hubbard site      1 and spin      1 is negative.
################################################################################
Occupancy matrix of Hubbard site      1 and spin      2 is 
  m_l =   -2          -1           0           1           2
  0.26766223 -0.13293116 -0.00000090  0.00000243  0.00000126
 -0.13296214  0.37322632  0.00000278  0.00000256 -0.00000114
  0.00000050  0.00000094  0.16645776  0.00000048 -0.00000024
  0.00000138  0.00000261  0.00000150  0.37322321  0.13296382
  0.00000131 -0.00000223  0.00000054  0.13293405  0.26766439
WARNING: DFT+U ENERGY of Hubbard site      1 and spin      2 is negative.
################################################################################
Total occupancy of Hubbard site      1 is         5.76813340 e
Local magnetic moment of Hubbard site      1 is   2.87166559 mu_B
DFT+U energy of Hubbard site      1 is           -0.04239500 Ha
################################################################################

##### For calculating the Hubbard U and Hund J #################################
DFT+U information on Hubbard site      1 of species CrU  and spin      1
The average Hxc+local potential is            -18.95017548 eV.
The average Hubbard potential is               -0.20000000 eV.
The average non-local PAW contribution is     -10.87348011 eV.
################################################################################
DFT+U information on Hubbard site      1 of species CrU  and spin      2
The average Hxc+local potential is            -17.89068591 eV.
The average Hubbard potential is               -0.20000000 eV.
The average non-local PAW contribution is      -9.43883408 eV.
################################################################################

======================== Writing density and potential =========================
Writing "U_-0.2_0_ps_density.cube" ... done
Writing "U_-0.2_0_ps_spindensity.cube" ... done
Writing "U_-0.2_0_ae_density.cube" ... done
Writing "U_-0.2_0_ae_spindensity.cube" ... done
Writing "U_-0.2_0_potential.cube" ... done
Writing "U_-0.2_0_electrostatic_potential.cube" ... done
================================================================================

    Mulliken Atomic Populations
    ---------------------------
Species  Ion    Total   Charge (e)    Spin (hbar)
=================================================
  Cr     1      13.844      0.156      1.68
  Cr     2      13.844      0.156      1.68
  I      3       7.052     -0.052     -0.06
  I      4       7.052     -0.052     -0.06
  I      5       7.052     -0.052     -0.06
  I      6       7.052     -0.052     -0.06
  I      7       7.052     -0.052     -0.06
  I      8       7.052     -0.052     -0.06
  Cr     9      13.843      0.157      1.68
  Cr    10      13.844      0.156      1.68
  I     11       7.052     -0.052     -0.06
  I     12       7.052     -0.052     -0.06
  I     13       7.052     -0.052     -0.06
  I     14       7.052     -0.052     -0.06
  I     15       7.052     -0.052     -0.06
  I     16       7.052     -0.052     -0.06
  Cr    17      13.844      0.156      1.68
  Cr    18      13.844      0.156      1.68
  I     19       7.052     -0.052     -0.06
  I     20       7.052     -0.052     -0.06
  I     21       7.052     -0.052     -0.06
  I     22       7.052     -0.052     -0.06
  I     23       7.052     -0.052     -0.06
  I     24       7.052     -0.052     -0.06
  Cr    25      13.844      0.156      1.68
  Cr    26      13.844      0.156      1.68
  I     27       7.052     -0.052     -0.06
  I     28       7.052     -0.052     -0.06
  I     29       7.052     -0.052     -0.06
  I     30       7.052     -0.052     -0.06
  I     31       7.052     -0.052     -0.06
  I     32       7.052     -0.052     -0.06
  Cr    33      13.844      0.156      1.68
  Cr    34      13.844      0.156      1.68
  I     35       7.052     -0.052     -0.06
  I     36       7.052     -0.052     -0.06
  I     37       7.052     -0.052     -0.06
  I     38       7.052     -0.052     -0.06
  I     39       7.052     -0.052     -0.06
  I     40       7.052     -0.052     -0.06
  Cr    41      13.845      0.155      1.68
  Cr    42      13.843      0.157      1.68
  I     43       7.052     -0.052     -0.06
  I     44       7.052     -0.052     -0.06
  I     45       7.052     -0.052     -0.06
  I     46       7.052     -0.052     -0.06
  I     47       7.052     -0.052     -0.06
  I     48       7.052     -0.052     -0.06
  Cr    49      13.844      0.156      1.68
  Cr    50      13.844      0.156      1.68
  I     51       7.052     -0.052     -0.06
  I     52       7.052     -0.052     -0.06
  I     53       7.052     -0.052     -0.06
  I     54       7.052     -0.052     -0.06
  I     55       7.052     -0.052     -0.06
  I     56       7.052     -0.052     -0.06
  Cr    57      13.844      0.156      1.68
  Cr    58      13.844      0.156      1.68
  I     59       7.052     -0.052     -0.06
  I     60       7.052     -0.052     -0.06
  I     61       7.052     -0.052     -0.06
  I     62       7.052     -0.052     -0.06
  I     63       7.052     -0.052     -0.06
  I     64       7.052     -0.052     -0.06
  Cr    65      13.845      0.155      1.68
  Cr    66      13.850      0.150      1.68
  I     67       7.052     -0.052     -0.06
  I     68       7.051     -0.051     -0.06
  I     69       7.051     -0.051     -0.06
  I     70       7.052     -0.052     -0.06
  I     71       7.051     -0.051     -0.06
  I     72       7.051     -0.051     -0.06
  Cr    73      13.844      0.156      1.68
  Cr    74      13.844      0.156      1.68
  I     75       7.052     -0.052     -0.06
  I     76       7.052     -0.052     -0.06
  I     77       7.052     -0.052     -0.06
  I     78       7.052     -0.052     -0.06
  I     79       7.052     -0.052     -0.06
  I     80       7.052     -0.052     -0.06
  Cr    81      13.844      0.156      1.68
  Cr    82      13.844      0.156      1.68
  I     83       7.052     -0.052     -0.06
  I     84       7.052     -0.052     -0.06
  I     85       7.052     -0.052     -0.06
  I     86       7.052     -0.052     -0.06
  I     87       7.052     -0.052     -0.06
  I     88       7.052     -0.052     -0.06
  Cr    89      13.844      0.156      1.68
  Cr    90      13.844      0.156      1.68
  I     91       7.052     -0.052     -0.06
  I     92       7.052     -0.052     -0.06
  I     93       7.052     -0.052     -0.06
  I     94       7.052     -0.052     -0.06
  I     95       7.052     -0.052     -0.06
  I     96       7.052     -0.052     -0.06
  Cr    97      13.845      0.155      1.68
  Cr    98      13.844      0.156      1.68
  I     99       7.052     -0.052     -0.06
  I    100       7.052     -0.052     -0.06
  I    101       7.052     -0.052     -0.06
  I    102       7.052     -0.052     -0.06
  I    103       7.052     -0.052     -0.06
  I    104       7.052     -0.052     -0.06
  Cr   105      13.844      0.156      1.68
  Cr   106      13.844      0.156      1.68
  I    107       7.052     -0.052     -0.06
  I    108       7.052     -0.052     -0.06
  I    109       7.052     -0.052     -0.06
  I    110       7.052     -0.052     -0.06
  I    111       7.052     -0.052     -0.06
  I    112       7.052     -0.052     -0.06
  Cr   113      13.844      0.156      1.68
  Cr   114      13.844      0.156      1.68
  I    115       7.052     -0.052     -0.06
  I    116       7.052     -0.052     -0.06
  I    117       7.052     -0.052     -0.06
  I    118       7.052     -0.052     -0.06
  I    119       7.052     -0.052     -0.06
  I    120       7.052     -0.052     -0.06
  Cr   121      13.855      0.145      1.66
  Cr   122      13.850      0.150      1.68
  I    123       7.049     -0.049     -0.06
  I    124       7.049     -0.049     -0.06
  I    125       7.051     -0.051     -0.06
  I    126       7.049     -0.049     -0.06
  I    127       7.049     -0.049     -0.06
  I    128       7.051     -0.051     -0.06
  Cr   129      13.845      0.155      1.68
  Cr   130      13.844      0.156      1.68
  I    131       7.051     -0.051     -0.06
  I    132       7.052     -0.052     -0.06
  I    133       7.052     -0.052     -0.06
  I    134       7.051     -0.051     -0.06
  I    135       7.052     -0.052     -0.06
  I    136       7.052     -0.052     -0.06
  Cr   137      13.844      0.156      1.68
  Cr   138      13.844      0.156      1.68
  I    139       7.052     -0.052     -0.06
  I    140       7.052     -0.052     -0.06
  I    141       7.052     -0.052     -0.06
  I    142       7.052     -0.052     -0.06
  I    143       7.052     -0.052     -0.06
  I    144       7.052     -0.052     -0.06
  Cr   145      13.844      0.156      1.68
  Cr   146      13.844      0.156      1.68
  I    147       7.052     -0.052     -0.06
  I    148       7.052     -0.052     -0.06
  I    149       7.052     -0.052     -0.06
  I    150       7.052     -0.052     -0.06
  I    151       7.052     -0.052     -0.06
  I    152       7.052     -0.052     -0.06
  Cr   153      13.844      0.156      1.68
  Cr   154      13.844      0.156      1.68
  I    155       7.052     -0.052     -0.06
  I    156       7.052     -0.052     -0.06
  I    157       7.052     -0.052     -0.06
  I    158       7.052     -0.052     -0.06
  I    159       7.052     -0.052     -0.06
  I    160       7.052     -0.052     -0.06
  Cr   161      13.844      0.156      1.68
  Cr   162      13.844      0.156      1.68
  I    163       7.052     -0.052     -0.06
  I    164       7.052     -0.052     -0.06
  I    165       7.052     -0.052     -0.06
  I    166       7.052     -0.052     -0.06
  I    167       7.052     -0.052     -0.06
  I    168       7.052     -0.052     -0.06
  Cr   169      13.844      0.156      1.68
  Cr   170      13.844      0.156      1.68
  I    171       7.052     -0.052     -0.06
  I    172       7.052     -0.052     -0.06
  I    173       7.052     -0.052     -0.06
  I    174       7.052     -0.052     -0.06
  I    175       7.052     -0.052     -0.06
  I    176       7.052     -0.052     -0.06
  Cr   177      13.844      0.156      1.68
  Cr   178      13.844      0.156      1.68
  I    179       7.052     -0.052     -0.06
  I    180       7.052     -0.052     -0.06
  I    181       7.052     -0.052     -0.06
  I    182       7.052     -0.052     -0.06
  I    183       7.052     -0.052     -0.06
  I    184       7.052     -0.052     -0.06
  Cr   185      13.844      0.156      1.68
  Cr   186      13.844      0.156      1.68
  I    187       7.052     -0.052     -0.06
  I    188       7.052     -0.052     -0.06
  I    189       7.052     -0.052     -0.06
  I    190       7.052     -0.052     -0.06
  I    191       7.052     -0.052     -0.06
  I    192       7.052     -0.052     -0.06
  Cr   193      13.844      0.156      1.68
  Cr   194      13.844      0.156      1.68
  I    195       7.052     -0.052     -0.06
  I    196       7.052     -0.052     -0.06
  I    197       7.052     -0.052     -0.06
  I    198       7.052     -0.052     -0.06
  I    199       7.052     -0.052     -0.06
  I    200       7.052     -0.052     -0.06
  Cr   201      13.844      0.156      1.68
  Cr   202      13.844      0.156      1.68
  I    203       7.052     -0.052     -0.06
  I    204       7.052     -0.052     -0.06
  I    205       7.052     -0.052     -0.06
  I    206       7.052     -0.052     -0.06
  I    207       7.052     -0.052     -0.06
  I    208       7.052     -0.052     -0.06
  Cr   209      13.844      0.156      1.68
  Cr   210      13.844      0.156      1.68
  I    211       7.052     -0.052     -0.06
  I    212       7.052     -0.052     -0.06
  I    213       7.052     -0.052     -0.06
  I    214       7.052     -0.052     -0.06
  I    215       7.052     -0.052     -0.06
  I    216       7.052     -0.052     -0.06
  Cr   217      13.845      0.155      1.68
  Cr   218      13.850      0.150      1.68
  I    219       7.052     -0.052     -0.06
  I    220       7.051     -0.051     -0.06
  I    221       7.049     -0.049     -0.06
  I    222       7.052     -0.052     -0.06
  I    223       7.051     -0.051     -0.06
  I    224       7.049     -0.049     -0.06
  Cr   225      13.845      0.155      1.68
  Cr   226      13.843      0.157      1.68
  I    227       7.051     -0.051     -0.06
  I    228       7.052     -0.052     -0.06
  I    229       7.052     -0.052     -0.06
  I    230       7.051     -0.051     -0.06
  I    231       7.052     -0.052     -0.06
  I    232       7.052     -0.052     -0.06
  Cr   233      13.844      0.156      1.68
  Cr   234      13.844      0.156      1.68
  I    235       7.052     -0.052     -0.06
  I    236       7.052     -0.052     -0.06
  I    237       7.052     -0.052     -0.06
  I    238       7.052     -0.052     -0.06
  I    239       7.052     -0.052     -0.06
  I    240       7.052     -0.052     -0.06
  Cr   241      13.844      0.156      1.68
  Cr   242      13.844      0.156      1.68
  I    243       7.052     -0.052     -0.06
  I    244       7.052     -0.052     -0.06
  I    245       7.052     -0.052     -0.06
  I    246       7.052     -0.052     -0.06
  I    247       7.052     -0.052     -0.06
  I    248       7.052     -0.052     -0.06
  Cr   249      13.844      0.156      1.68
  Cr   250      13.844      0.156      1.68
  I    251       7.052     -0.052     -0.06
  I    252       7.052     -0.052     -0.06
  I    253       7.052     -0.052     -0.06
  I    254       7.052     -0.052     -0.06
  I    255       7.052     -0.052     -0.06
  I    256       7.052     -0.052     -0.06
  Cr   257      13.843      0.157      1.68
  Cr   258      13.844      0.156      1.68
  I    259       7.052     -0.052     -0.06
  I    260       7.052     -0.052     -0.06
  I    261       7.052     -0.052     -0.06
  I    262       7.052     -0.052     -0.06
  I    263       7.052     -0.052     -0.06
  I    264       7.052     -0.052     -0.06
  Cr   265      13.844      0.156      1.68
  Cr   266      13.844      0.156      1.68
  I    267       7.052     -0.052     -0.06
  I    268       7.052     -0.052     -0.06
  I    269       7.052     -0.052     -0.06
  I    270       7.052     -0.052     -0.06
  I    271       7.052     -0.052     -0.06
  I    272       7.052     -0.052     -0.06
  Cr   273      13.844      0.156      1.68
  Cr   274      13.844      0.156      1.68
  I    275       7.052     -0.052     -0.06
  I    276       7.052     -0.052     -0.06
  I    277       7.052     -0.052     -0.06
  I    278       7.052     -0.052     -0.06
  I    279       7.052     -0.052     -0.06
  I    280       7.052     -0.052     -0.06
  Cr   281      13.844      0.156      1.68
  Cr   282      13.844      0.156      1.68
  I    283       7.052     -0.052     -0.06
  I    284       7.052     -0.052     -0.06
  I    285       7.052     -0.052     -0.06
  I    286       7.052     -0.052     -0.06
  I    287       7.052     -0.052     -0.06
  I    288       7.052     -0.052     -0.06
=================================================

        Bond         Population      Spin       Length (bohr)
=============================================================
 Cr  186 -- I   191        0.31     -0.03      4.86412
 Cr  178 -- I   183        0.31     -0.03      4.86412
 Cr  154 -- I   159        0.31     -0.03      4.86412
 Cr  162 -- I   167        0.31     -0.03      4.86412
 Cr  146 -- I   151        0.31     -0.03      4.86412
 Cr   82 -- I    87        0.31     -0.03      4.86412
 Cr  250 -- I   255        0.31     -0.03      4.86412
 Cr  226 -- I   231        0.31     -0.03      4.86412
 Cr   74 -- I    79        0.31     -0.03      4.86412
 Cr   10 -- I    15        0.31     -0.03      4.86412
 Cr  106 -- I   111        0.31     -0.03      4.86412
 Cr   34 -- I    39        0.31     -0.03      4.86412
 Cr   42 -- I    47        0.31     -0.03      4.86412
 Cr   18 -- I    23        0.31     -0.03      4.86412
 Cr  114 -- I   119        0.31     -0.03      4.86412
 Cr    2 -- I     7        0.31     -0.03      4.86412
 Cr   90 -- I    95        0.31     -0.03      4.86412
 Cr  218 -- I   223        0.32     -0.03      4.86412
 Cr  258 -- I   263        0.32     -0.03      4.86412
 Cr  234 -- I   239        0.31     -0.03      4.86412
 Cr  274 -- I   279        0.31     -0.03      4.86412
 Cr  130 -- I   135        0.32     -0.03      4.86412
 Cr   98 -- I   103        0.31     -0.03      4.86412
 Cr   66 -- I    71        0.32     -0.03      4.86412
 Cr  242 -- I   247        0.31     -0.03      4.86412
 Cr   50 -- I    55        0.31     -0.03      4.86412
 Cr   26 -- I    31        0.31     -0.03      4.86412
 Cr   58 -- I    63        0.31     -0.03      4.86412
 Cr  210 -- I   215        0.31     -0.03      4.86412
 Cr  170 -- I   175        0.31     -0.03      4.86412
 Cr  122 -- I   127        0.31     -0.03      4.86412
 Cr  266 -- I   271        0.31     -0.03      4.86412
 Cr  282 -- I   287        0.31     -0.03      4.86412
 Cr  138 -- I   143        0.31     -0.03      4.86412
 Cr  202 -- I   207        0.31     -0.03      4.86412
 Cr  194 -- I   199        0.31     -0.03      4.86412
 Cr  210 -- I   212        0.31     -0.03      4.86413
 Cr  138 -- I   140        0.31     -0.03      4.86413
 Cr   90 -- I    92        0.31     -0.03      4.86413
 Cr  258 -- I   260        0.31     -0.03      4.86413
 Cr  234 -- I   236        0.31     -0.03      4.86413
 Cr   42 -- I    44        0.31     -0.03      4.86413
 Cr   66 -- I    68        0.32     -0.03      4.86413
 Cr  114 -- I   116        0.31     -0.03      4.86413
 Cr   18 -- I    20        0.31     -0.03      4.86413
 Cr  162 -- I   164        0.31     -0.03      4.86413
 Cr  282 -- I   284        0.31     -0.03      4.86413
 Cr  186 -- I   188        0.31     -0.03      4.86413
 Cr  194 -- I   196        0.31     -0.03      4.86413
 Cr  202 -- I   204        0.31     -0.03      4.86413
 Cr   50 -- I    52        0.31     -0.03      4.86413
 Cr   58 -- I    60        0.31     -0.03      4.86413
 Cr  122 -- I   124        0.31     -0.03      4.86413
 Cr  266 -- I   268        0.31     -0.03      4.86413
 Cr  274 -- I   276        0.31     -0.03      4.86413
 Cr  130 -- I   132        0.31     -0.03      4.86413
 Cr  154 -- I   156        0.31     -0.03      4.86413
 Cr  170 -- I   172        0.31     -0.03      4.86413
 Cr   34 -- I    36        0.31     -0.03      4.86413
 Cr   10 -- I    12        0.32     -0.03      4.86413
 Cr  146 -- I   148        0.31     -0.03      4.86413
 Cr    2 -- I     4        0.31     -0.03      4.86413
 Cr   26 -- I    28        0.31     -0.03      4.86413
 Cr  242 -- I   244        0.31     -0.03      4.86413
 Cr  218 -- I   220        0.32     -0.03      4.86413
 Cr  178 -- I   180        0.31     -0.03      4.86413
 Cr   74 -- I    76        0.31     -0.03      4.86413
 Cr   98 -- I   100        0.32     -0.03      4.86413
 Cr  250 -- I   252        0.31     -0.03      4.86413
 Cr  226 -- I   228        0.31     -0.03      4.86413
 Cr  106 -- I   108        0.31     -0.03      4.86413
 Cr   82 -- I    84        0.31     -0.03      4.86413
 Cr  153 -- I   159        0.31     -0.03      4.86414
 Cr  177 -- I   183        0.31     -0.03      4.86414
 Cr   41 -- I    47        0.31     -0.03      4.86414
 Cr  161 -- I   167        0.31     -0.03      4.86414
 Cr    9 -- I    15        0.31     -0.03      4.86414
 Cr  185 -- I   191        0.31     -0.03      4.86414
 Cr   33 -- I    39        0.31     -0.03      4.86414
 Cr   17 -- I    23        0.31     -0.03      4.86414
 Cr  113 -- I   119        0.31     -0.03      4.86414
 Cr   89 -- I    95        0.31     -0.03      4.86414
 Cr  233 -- I   239        0.31     -0.03      4.86414
 Cr  257 -- I   263        0.31     -0.03      4.86414
 Cr  249 -- I   255        0.31     -0.03      4.86414
 Cr  225 -- I   231        0.32     -0.03      4.86414
 Cr   81 -- I    87        0.31     -0.03      4.86414
 Cr  105 -- I   111        0.31     -0.03      4.86414
 Cr  209 -- I   215        0.31     -0.03      4.86414
 Cr   65 -- I    71        0.31     -0.03      4.86414
 Cr   57 -- I    63        0.31     -0.03      4.86414
 Cr  137 -- I   143        0.31     -0.03      4.86414
 Cr  201 -- I   207        0.31     -0.03      4.86414
 Cr  281 -- I   287        0.31     -0.03      4.86414
 Cr  129 -- I   135        0.31     -0.03      4.86414
 Cr  273 -- I   279        0.31     -0.03      4.86414
 Cr   73 -- I    79        0.31     -0.03      4.86414
 Cr  217 -- I   223        0.31     -0.03      4.86414
 Cr  145 -- I   151        0.31     -0.03      4.86414
 Cr    1 -- I     7        0.31     -0.03      4.86414
 Cr  121 -- I   127        0.32     -0.03      4.86414
 Cr  241 -- I   247        0.31     -0.03      4.86414
 Cr   97 -- I   103        0.31     -0.03      4.86414
 Cr  265 -- I   271        0.31     -0.03      4.86414
 Cr   49 -- I    55        0.31     -0.03      4.86414
 Cr   25 -- I    31        0.31     -0.03      4.86414
 Cr  169 -- I   175        0.31     -0.03      4.86414
 Cr  193 -- I   199        0.31     -0.03      4.86414
 Cr  193 -- I   196        0.31     -0.03      4.86414
 Cr   49 -- I    52        0.31     -0.03      4.86414
 Cr  265 -- I   268        0.31     -0.03      4.86414
 Cr  121 -- I   124        0.32     -0.03      4.86414
 Cr  257 -- I   260        0.31     -0.03      4.86414
 Cr  169 -- I   172        0.31     -0.03      4.86414
 Cr  145 -- I   148        0.31     -0.03      4.86414
 Cr   65 -- I    68        0.31     -0.03      4.86414
 Cr  137 -- I   140        0.31     -0.03      4.86414
 Cr  185 -- I   188        0.31     -0.03      4.86414
 Cr  281 -- I   284        0.31     -0.03      4.86414
 Cr  209 -- I   212        0.31     -0.03      4.86414
 Cr  161 -- I   164        0.31     -0.03      4.86414
 Cr    1 -- I     4        0.31     -0.03      4.86414
 Cr   41 -- I    44        0.32     -0.03      4.86414
 Cr  113 -- I   116        0.31     -0.03      4.86414
 Cr  241 -- I   244        0.31     -0.03      4.86414
 Cr   25 -- I    28        0.31     -0.03      4.86414
 Cr   17 -- I    20        0.31     -0.03      4.86414
 Cr   89 -- I    92        0.31     -0.03      4.86414
 Cr  217 -- I   220        0.31     -0.03      4.86414
 Cr  233 -- I   236        0.31     -0.03      4.86414
 Cr   97 -- I   100        0.31     -0.03      4.86414
 Cr   73 -- I    76        0.31     -0.03      4.86414
 Cr  273 -- I   276        0.31     -0.03      4.86414
 Cr  201 -- I   204        0.31     -0.03      4.86414
 Cr  129 -- I   132        0.31     -0.03      4.86414
 Cr   57 -- I    60        0.31     -0.03      4.86414
 Cr   81 -- I    84        0.31     -0.03      4.86414
 Cr  105 -- I   108        0.31     -0.03      4.86414
 Cr  249 -- I   252        0.31     -0.03      4.86414
 Cr  225 -- I   228        0.31     -0.03      4.86414
 Cr  153 -- I   156        0.31     -0.03      4.86414
 Cr   33 -- I    36        0.31     -0.03      4.86414
 Cr  177 -- I   180        0.31     -0.03      4.86414
 Cr    9 -- I    12        0.31     -0.03      4.86414
 I    27 -- Cr  114        0.31     -0.03      5.11128
 I     3 -- Cr   90        0.31     -0.03      5.11128
 I    51 -- Cr  138        0.31     -0.03      5.11128
 Cr  266 -- I   275        0.31     -0.03      5.11128
 Cr  122 -- I   131        0.32     -0.03      5.11128
 Cr   74 -- I    83        0.31     -0.03      5.11128
 Cr   98 -- I   107        0.31     -0.03      5.11128
 Cr  242 -- I   251        0.31     -0.03      5.11128
 Cr  218 -- I   227        0.32     -0.03      5.11128
 Cr  146 -- I   155        0.31     -0.03      5.11128
 Cr  170 -- I   179        0.31     -0.03      5.11128
 Cr   50 -- I    59        0.31     -0.03      5.11128
 Cr    2 -- I    11        0.31     -0.03      5.11128
 Cr   26 -- I    35        0.31     -0.03      5.11128
 Cr  194 -- I   203        0.32     -0.03      5.11128
 I   171 -- Cr  258        0.31     -0.03      5.11128
 I   195 -- Cr  282        0.31     -0.03      5.11128
 I   147 -- Cr  234        0.31     -0.03      5.11128
 Cr  194 -- I   197        0.31     -0.03      5.11128
 Cr  210 -- I   213        0.31     -0.03      5.11128
 Cr  250 -- I   253        0.31     -0.03      5.11128
 Cr  242 -- I   245        0.31     -0.03      5.11128
 Cr   50 -- I    53        0.31     -0.03      5.11128
 Cr  234 -- I   237        0.31     -0.03      5.11128
 Cr  226 -- I   229        0.31     -0.03      5.11128
 Cr  218 -- I   221        0.31     -0.03      5.11128
 Cr   26 -- I    29        0.31     -0.03      5.11128
 Cr  154 -- I   157        0.31     -0.03      5.11128
 Cr  146 -- I   149        0.31     -0.03      5.11128
 Cr  106 -- I   109        0.31     -0.03      5.11128
 Cr  282 -- I   285        0.31     -0.03      5.11128
 Cr    2 -- I     5        0.31     -0.03      5.11128
 Cr  122 -- I   125        0.32     -0.03      5.11128
 Cr  130 -- I   133        0.31     -0.03      5.11128
 Cr   10 -- I    13        0.31     -0.03      5.11128
 Cr   58 -- I    61        0.31     -0.03      5.11128
 Cr   42 -- I    45        0.31     -0.03      5.11128
 Cr   82 -- I    85        0.31     -0.03      5.11128
 Cr   34 -- I    37        0.31     -0.03      5.11128
 Cr   18 -- I    21        0.31     -0.03      5.11128
 Cr  138 -- I   141        0.31     -0.03      5.11128
 Cr   98 -- I   101        0.31     -0.03      5.11128
 Cr   90 -- I    93        0.31     -0.03      5.11128
 Cr  114 -- I   117        0.31     -0.03      5.11128
 Cr   66 -- I    69        0.32     -0.03      5.11128
 Cr  202 -- I   205        0.31     -0.03      5.11128
 Cr  170 -- I   173        0.31     -0.03      5.11128
 Cr   74 -- I    77        0.31     -0.03      5.11128
 Cr  274 -- I   277        0.31     -0.03      5.11128
 Cr  162 -- I   165        0.31     -0.03      5.11128
 Cr  266 -- I   269        0.31     -0.03      5.11128
 Cr  178 -- I   181        0.31     -0.03      5.11128
 Cr  258 -- I   261        0.31     -0.03      5.11128
 Cr  186 -- I   189        0.31     -0.03      5.11128
 Cr  186 -- I   243        0.31     -0.03      5.11128
 Cr  210 -- I   267        0.31     -0.03      5.11128
 Cr  162 -- I   219        0.31     -0.03      5.11128
 Cr  274 -- I   283        0.31     -0.03      5.11128
 Cr  130 -- I   139        0.31     -0.03      5.11128
 Cr   82 -- I    91        0.31     -0.03      5.11128
 Cr  106 -- I   115        0.31     -0.03      5.11128
 Cr   34 -- I    43        0.31     -0.03      5.11128
 Cr   58 -- I    67        0.31     -0.03      5.11128
 Cr  226 -- I   235        0.31     -0.03      5.11128
 Cr  202 -- I   211        0.31     -0.03      5.11128
 Cr  178 -- I   187        0.31     -0.03      5.11128
 Cr   10 -- I    19        0.31     -0.03      5.11128
 Cr  154 -- I   163        0.31     -0.03      5.11128
 Cr  250 -- I   259        0.31     -0.03      5.11128
 Cr   18 -- I    75        0.31     -0.03      5.11128
 Cr   66 -- I   123        0.31     -0.03      5.11128
 Cr   42 -- I    99        0.31     -0.03      5.11128
 Cr  234 -- I   240        0.31     -0.03      5.11128
 Cr  138 -- I   144        0.31     -0.03      5.11128
 Cr  282 -- I   288        0.31     -0.03      5.11128
 Cr  258 -- I   264        0.31     -0.03      5.11128
 Cr  114 -- I   120        0.31     -0.03      5.11128
 Cr   90 -- I    96        0.31     -0.03      5.11128
 Cr  242 -- I   248        0.31     -0.03      5.11128
 Cr  122 -- I   128        0.32     -0.03      5.11128
 Cr  218 -- I   224        0.31     -0.03      5.11128
 Cr  194 -- I   200        0.31     -0.03      5.11128
 Cr   98 -- I   104        0.31     -0.03      5.11128
 Cr   74 -- I    80        0.31     -0.03      5.11128
 Cr  210 -- I   216        0.31     -0.03      5.11128
 Cr   42 -- I    48        0.31     -0.03      5.11128
 Cr   66 -- I    72        0.32     -0.03      5.11128
 Cr   50 -- I    56        0.31     -0.03      5.11128
 Cr   18 -- I    24        0.31     -0.03      5.11128
 Cr   26 -- I    32        0.31     -0.03      5.11128
 Cr   10 -- I    16        0.31     -0.03      5.11128
 Cr  250 -- I   256        0.31     -0.03      5.11128
 Cr    2 -- I     8        0.31     -0.03      5.11128
 Cr   34 -- I    40        0.32     -0.03      5.11128
 Cr  146 -- I   152        0.31     -0.03      5.11128
 Cr  266 -- I   272        0.31     -0.03      5.11128
 Cr  154 -- I   160        0.31     -0.03      5.11128
 Cr   58 -- I    64        0.31     -0.03      5.11128
 Cr  202 -- I   208        0.31     -0.03      5.11128
 Cr  162 -- I   168        0.31     -0.03      5.11128
 Cr  170 -- I   176        0.31     -0.03      5.11128
 Cr  178 -- I   184        0.31     -0.03      5.11128
 Cr  130 -- I   136        0.31     -0.03      5.11128
 Cr  226 -- I   232        0.31     -0.03      5.11128
 Cr  106 -- I   112        0.31     -0.03      5.11128
 Cr   82 -- I    88        0.31     -0.03      5.11128
 Cr  186 -- I   192        0.31     -0.03      5.11128
 Cr  274 -- I   280        0.31     -0.03      5.11128
 Cr  130 -- I   142        0.31     -0.03      5.11128
 Cr  274 -- I   286        0.31     -0.03      5.11128
 Cr  250 -- I   262        0.31     -0.03      5.11128
 Cr  226 -- I   238        0.31     -0.03      5.11128
 Cr  106 -- I   118        0.31     -0.03      5.11128
 Cr   82 -- I    94        0.31     -0.03      5.11128
 Cr  266 -- I   278        0.31     -0.03      5.11128
 Cr  242 -- I   254        0.31     -0.03      5.11128
 Cr  218 -- I   230        0.32     -0.03      5.11128
 Cr  194 -- I   206        0.31     -0.03      5.11128
 Cr  122 -- I   134        0.32     -0.03      5.11128
 Cr   34 -- I    46        0.31     -0.03      5.11128
 Cr  154 -- I   166        0.31     -0.03      5.11128
 Cr   26 -- I    38        0.31     -0.03      5.11128
 Cr   10 -- I    22        0.31     -0.03      5.11128
 Cr   58 -- I    70        0.31     -0.03      5.11128
 Cr   50 -- I    62        0.31     -0.03      5.11128
 Cr    2 -- I    14        0.31     -0.03      5.11128
 Cr  170 -- I   182        0.31     -0.03      5.11128
 Cr   74 -- I    86        0.31     -0.03      5.11128
 Cr   98 -- I   110        0.31     -0.03      5.11128
 Cr  146 -- I   158        0.31     -0.03      5.11128
 Cr  202 -- I   214        0.31     -0.03      5.11128
 Cr  178 -- I   190        0.31     -0.03      5.11128
 I   198 -- Cr  282        0.31     -0.03      5.11128
 I   150 -- Cr  234        0.31     -0.03      5.11128
 I   174 -- Cr  258        0.31     -0.03      5.11128
 I    54 -- Cr  138        0.31     -0.03      5.11128
 I     6 -- Cr   90        0.31     -0.03      5.11128
 I    30 -- Cr  114        0.31     -0.03      5.11128
 Cr   18 -- I    78        0.31     -0.03      5.11128
 Cr   42 -- I   102        0.31     -0.03      5.11128
 Cr   66 -- I   126        0.31     -0.03      5.11128
 Cr  210 -- I   270        0.31     -0.03      5.11128
 Cr  162 -- I   222        0.31     -0.03      5.11128
 Cr  186 -- I   246        0.31     -0.03      5.11128
 Cr  265 -- I   270        0.31     -0.03      5.11131
 Cr  241 -- I   246        0.31     -0.03      5.11131
 Cr  217 -- I   222        0.31     -0.03      5.11131
 Cr   97 -- I   102        0.31     -0.03      5.11131
 Cr   73 -- I    78        0.31     -0.03      5.11131
 Cr  121 -- I   126        0.32     -0.03      5.11131
 Cr  249 -- I   280        0.31     -0.03      5.11131
 Cr  185 -- I   216        0.31     -0.03      5.11131
 Cr  161 -- I   192        0.31     -0.03      5.11131
 Cr  153 -- I   184        0.31     -0.03      5.11131
 Cr  177 -- I   208        0.31     -0.03      5.11131
 Cr   89 -- I   120        0.31     -0.03      5.11131
 Cr   33 -- I    64        0.31     -0.03      5.11131
 Cr  129 -- I   232        0.31     -0.03      5.11131
 Cr  113 -- I   144        0.31     -0.03      5.11131
 Cr  233 -- I   264        0.31     -0.03      5.11131
 Cr   41 -- I    72        0.31     -0.03      5.11131
 Cr   17 -- I    48        0.31     -0.03      5.11131
 Cr  105 -- I   136        0.31     -0.03      5.11131
 Cr   81 -- I   112        0.31     -0.03      5.11131
 Cr  137 -- I   240        0.31     -0.03      5.11131
 Cr    9 -- I    40        0.31     -0.03      5.11131
 Cr  225 -- I   256        0.31     -0.03      5.11131
 Cr  257 -- I   288        0.31     -0.03      5.11131
 Cr  145 -- I   176        0.31     -0.03      5.11131
 Cr  121 -- I   224        0.32     -0.03      5.11131
 Cr  241 -- I   272        0.31     -0.03      5.11131
 Cr   73 -- I   104        0.31     -0.03      5.11131
 Cr    1 -- I    32        0.31     -0.03      5.11131
 Cr   97 -- I   128        0.31     -0.03      5.11131
 Cr   25 -- I    56        0.31     -0.03      5.11131
 Cr  169 -- I   200        0.31     -0.03      5.11131
 Cr  217 -- I   248        0.31     -0.03      5.11131
 Cr  273 -- I   278        0.31     -0.03      5.11131
 Cr   81 -- I    86        0.31     -0.03      5.11131
 Cr  105 -- I   110        0.31     -0.03      5.11131
 Cr  281 -- I   286        0.31     -0.03      5.11131
 Cr  129 -- I   134        0.31     -0.03      5.11131
 Cr  249 -- I   254        0.31     -0.03      5.11131
 Cr  225 -- I   230        0.31     -0.03      5.11131
 Cr  137 -- I   142        0.31     -0.03      5.11131
 Cr  257 -- I   262        0.31     -0.03      5.11131
 Cr   65 -- I    70        0.31     -0.03      5.11131
 Cr   57 -- I    62        0.31     -0.03      5.11131
 Cr  113 -- I   118        0.31     -0.03      5.11131
 Cr   41 -- I    46        0.31     -0.03      5.11131
 Cr   17 -- I    22        0.31     -0.03      5.11131
 Cr  233 -- I   238        0.31     -0.03      5.11131
 Cr    9 -- I    14        0.31     -0.03      5.11131
 Cr  201 -- I   206        0.31     -0.03      5.11131
 Cr   89 -- I    94        0.31     -0.03      5.11131
 Cr  177 -- I   182        0.31     -0.03      5.11131
 Cr  161 -- I   166        0.31     -0.03      5.11131
 Cr   33 -- I    38        0.31     -0.03      5.11131
 Cr  153 -- I   158        0.31     -0.03      5.11131
 Cr  185 -- I   190        0.31     -0.03      5.11131
 Cr  209 -- I   214        0.31     -0.03      5.11131
 Cr   65 -- I   168        0.31     -0.03      5.11131
[...]
*    I     148     -0.00132774  -0.00230309  -0.00480105 *
*    I     149     -0.00133701   0.00233428  -0.00479648 *
*    I     150     -0.00268860  -0.00000936   0.00479437 *
*    I     151      0.00133187   0.00230188   0.00480088 *
*    I     152      0.00133543  -0.00233548   0.00479668 *
*    Cr    153      0.00001010  -0.00000118   0.00000018 *
*    Cr    154     -0.00002155  -0.00000624  -0.00000069 *
*    I     155      0.00268965   0.00001739  -0.00479471 *
*    I     156     -0.00132640  -0.00230088  -0.00479499 *
*    I     157     -0.00133350   0.00233400  -0.00479555 *
*    I     158     -0.00268821  -0.00000385   0.00479368 *
*    I     159      0.00133005   0.00229931   0.00479547 *
*    I     160      0.00133531  -0.00233102   0.00479422 *
*    Cr    161      0.00001110  -0.00000751  -0.00000016 *
*    Cr    162     -0.00002275   0.00001222   0.00000039 *
*    I     163      0.00268672   0.00001454  -0.00479195 *
*    I     164     -0.00132481  -0.00230547  -0.00479805 *
*    I     165     -0.00133798   0.00233403  -0.00479922 *
*    I     166     -0.00268832  -0.00000998   0.00479252 *
*    I     167      0.00133408   0.00230066   0.00479788 *
*    I     168      0.00133313  -0.00233686   0.00479853 *
*    Cr    169     -0.00000668  -0.00000183  -0.00000134 *
*    Cr    170     -0.00001817   0.00000488  -0.00000155 *
*    I     171      0.00269042   0.00001357  -0.00479638 *
*    I     172     -0.00132765  -0.00230062  -0.00479751 *
*    I     173     -0.00133471   0.00233524  -0.00479563 *
*    I     174     -0.00268461  -0.00000951   0.00479287 *
*    I     175      0.00132880   0.00229972   0.00479801 *
*    I     176      0.00133625  -0.00233206   0.00479444 *
*    Cr    177     -0.00002246   0.00001293  -0.00000171 *
*    Cr    178      0.00001026  -0.00000605  -0.00000187 *
*    I     179      0.00268897   0.00001061  -0.00479498 *
*    I     180     -0.00132809  -0.00230029  -0.00479835 *
*    I     181     -0.00133655   0.00233064  -0.00479217 *
*    I     182     -0.00268846  -0.00001132   0.00479517 *
*    I     183      0.00132770   0.00230073   0.00479855 *
*    I     184      0.00133187  -0.00233619   0.00479247 *
*    Cr    185      0.00000574  -0.00000883   0.00000002 *
*    Cr    186     -0.00000522   0.00002061  -0.00000066 *
*    I     187      0.00268605   0.00001073  -0.00479048 *
*    I     188     -0.00132443  -0.00230103  -0.00479531 *
*    I     189     -0.00133580   0.00233159  -0.00479141 *
*    I     190     -0.00268976  -0.00001025   0.00479311 *
*    I     191      0.00133029   0.00230000   0.00479571 *
*    I     192      0.00133215  -0.00233617   0.00479300 *
*    Cr    193      0.00000477  -0.00000435   0.00000013 *
*    Cr    194     -0.00001672   0.00000772  -0.00000046 *
*    I     195      0.00268800   0.00000855  -0.00479499 *
*    I     196     -0.00132751  -0.00230194  -0.00479874 *
*    I     197     -0.00133453   0.00233142  -0.00479473 *
*    I     198     -0.00268818  -0.00001227   0.00479706 *
*    I     199      0.00132953   0.00230073   0.00479820 *
*    I     200      0.00133429  -0.00233457   0.00479580 *
*    Cr    201     -0.00000124   0.00000786  -0.00000220 *
*    Cr    202     -0.00001351   0.00001418  -0.00000158 *
*    I     203      0.00268744   0.00000938  -0.00479370 *
*    I     204     -0.00132742  -0.00229994  -0.00479780 *
*    I     205     -0.00133703   0.00233129  -0.00479361 *
*    I     206     -0.00268784  -0.00001425   0.00479634 *
*    I     207      0.00132916   0.00230099   0.00479739 *
*    I     208      0.00133479  -0.00233461   0.00479530 *
*    Cr    209     -0.00001437   0.00001355   0.00000086 *
*    Cr    210      0.00001105   0.00001291   0.00000036 *
*    I     211      0.00268708   0.00000899  -0.00479294 *
*    I     212     -0.00132798  -0.00230366  -0.00479970 *
*    I     213     -0.00134034   0.00233120  -0.00479359 *
*    I     214     -0.00268833  -0.00001054   0.00479410 *
*    I     215      0.00133097   0.00230333   0.00480052 *
*    I     216      0.00133139  -0.00233602   0.00479428 *
*    Cr    217      0.00000924  -0.00002741   0.00000152 *
*    Cr    218     -0.00001899  -0.00000440   0.00000075 *
*    I     219      0.00268908   0.00001044  -0.00479685 *
*    I     220     -0.00134990  -0.00230645  -0.00479756 *
*    I     221     -0.00194489   0.00144353  -0.00405967 *
*    I     222     -0.00269223  -0.00000967   0.00479952 *
*    I     223      0.00133240   0.00230347   0.00480476 *
*    I     224      0.00026095  -0.00241810   0.00406129 *
*    Cr    225      0.00000853  -0.00001070  -0.00000265 *
*    Cr    226     -0.00003262  -0.00000724  -0.00000103 *
*    I     227      0.00268706   0.00001243  -0.00479894 *
*    I     228     -0.00133325  -0.00229994  -0.00479731 *
*    I     229     -0.00133482   0.00232836  -0.00478748 *
*    I     230     -0.00269969  -0.00002697   0.00479376 *
*    I     231      0.00132484   0.00230412   0.00479608 *
*    I     232      0.00133104  -0.00233290   0.00479023 *
*    Cr    233     -0.00000269  -0.00000233  -0.00000067 *
*    Cr    234     -0.00003179  -0.00000457  -0.00000048 *
*    I     235      0.00268792   0.00000631  -0.00479177 *
*    I     236     -0.00132885  -0.00230060  -0.00479866 *
*    I     237     -0.00133580   0.00233264  -0.00479432 *
*    I     238     -0.00268633  -0.00001350   0.00479231 *
*    I     239      0.00132921   0.00230136   0.00479807 *
*    I     240      0.00133720  -0.00233069   0.00479416 *
*    Cr    241      0.00000795  -0.00003332  -0.00000112 *
*    Cr    242     -0.00001325  -0.00000196  -0.00000123 *
*    I     243      0.00268685   0.00001008  -0.00479346 *
*    I     244     -0.00132711  -0.00230249  -0.00479762 *
*    I     245     -0.00133480   0.00233189  -0.00479314 *
*    I     246     -0.00268731  -0.00001167   0.00479518 *
*    I     247      0.00132962   0.00230222   0.00479756 *
*    I     248      0.00133511  -0.00233257   0.00479468 *
*    Cr    249      0.00000551  -0.00001515  -0.00000150 *
*    Cr    250     -0.00001570  -0.00000288  -0.00000151 *
*    I     251      0.00268574   0.00001164  -0.00479360 *
*    I     252     -0.00132808  -0.00229994  -0.00479638 *
*    I     253     -0.00133260   0.00233267  -0.00479420 *
*    I     254     -0.00268520  -0.00000789   0.00479258 *
*    I     255      0.00132951   0.00230316   0.00479970 *
*    I     256      0.00133624  -0.00232934   0.00479294 *
*    Cr    257      0.00000017  -0.00001145   0.00000043 *
*    Cr    258     -0.00002138   0.00000206  -0.00000020 *
*    I     259      0.00268570   0.00001546  -0.00478965 *
*    I     260     -0.00132295  -0.00230052  -0.00479356 *
*    I     261     -0.00133296   0.00233424  -0.00479467 *
*    I     262     -0.00268353  -0.00000363   0.00478963 *
*    I     263      0.00133207   0.00229837   0.00479426 *
*    I     264      0.00133617  -0.00233015   0.00479384 *
*    Cr    265      0.00001195  -0.00002887  -0.00000068 *
*    Cr    266     -0.00000186  -0.00000410  -0.00000054 *
*    I     267      0.00268891   0.00001148  -0.00479665 *
*    I     268     -0.00132796  -0.00230112  -0.00479874 *
*    I     269     -0.00133626   0.00233354  -0.00479372 *
*    I     270     -0.00268816  -0.00000557   0.00479656 *
*    I     271      0.00132825   0.00230224   0.00479811 *
*    I     272      0.00133479  -0.00233231   0.00479417 *
*    Cr    273      0.00001230  -0.00001734  -0.00000044 *
*    Cr    274     -0.00001004  -0.00000558   0.00000061 *
*    I     275      0.00268825   0.00001281  -0.00479466 *
*    I     276     -0.00132744  -0.00230063  -0.00479798 *
*    I     277     -0.00133501   0.00233318  -0.00479412 *
*    I     278     -0.00268600  -0.00000819   0.00479377 *
*    I     279      0.00132975   0.00230238   0.00479873 *
*    I     280      0.00133573  -0.00233022   0.00479408 *
*    Cr    281      0.00000897  -0.00000807  -0.00000015 *
*    Cr    282     -0.00001114   0.00000391   0.00000006 *
*    I     283      0.00268776   0.00001382  -0.00479571 *
*    I     284     -0.00132852  -0.00230115  -0.00479796 *
*    I     285     -0.00133521   0.00232995  -0.00479126 *
*    I     286     -0.00268702  -0.00000886   0.00479423 *
*    I     287      0.00132761   0.00230030   0.00479923 *
*    I     288      0.00133056  -0.00233179   0.00478971 *
*                                                        *
**********************************************************
* TOTAL:           -0.00000000  -0.00000000   0.00000000 *
**********************************************************
 
 
***********************************************************
********** Summary of Forces (values in Eh/a) *************
*                                                         *
* ---------------------- Minimum ------------------------ *
* Atom:       233, |F|min =    0.00000362                 *
* Components:     Fx|min       Fy|min       Fz|min        *
*              -0.00000269  -0.00000233  -0.00000067      *
*                                                         *
* ---------------------- Maximum ------------------------ *
* Atom:       134, |F|max =    0.00550595                 *
* Components:     Fx|max       Fy|max       Fz|max        *
*              -0.00269207   0.00000217   0.00480294      *
*                                                         *
* ---------------- Root Mean Square Force --------------- *
*                  |F|rms =    0.00473952                 *
* Components:     Fx|rms       Fy|rms       Fz|rms        *
*               0.00163696   0.00163452   0.00413664      *
***********************************************************
 

------------------------------ TIMING INFORMATION ------------------------------
AVERAGE TIME:   23897.874s on     56 proc(s)                                    
TOTAL TIME:     23897.874s on     56 proc(s)                                    
==================== AVERAGE TIMINGS FROM ALL PROCS (CUMULATIVE) =====================
|| TAG                                         #calls     cpu time   %total  Gflops ||
|| hubbard_species_proj                       :     1        0.00s   0.000%  ------ ||
|| hubbard_ngwf_on_grid                       :     1        0.00s   0.000%  ------ ||
|| linalg_invert_sym_matrix                   :     4        0.01s   0.000%  ------ || (1 procs only)
|| hubbard_tensorial_correction               :     2        0.00s   0.000%  ------ ||
|| sw_bessel_init_cpu                         :     1        0.01s   0.000%  ------ || (1 procs only)
|| hubbard_projector_character                :     1        0.00s   0.000%  ------ ||
|| hubbard_ngwf_select                        :     1        0.00s   0.000%  ------ ||
|| density_fftbox_interp_mult_imbal           : 17688        0.00s   0.000%  ------ ||
|| hash_table_free                            :    49        0.00s   0.000%  ------ ||
|| ewald_calculate_forces_realspace           :     1        0.01s   0.000%  ------ ||
|| onetep.F90 final imbalance                 :     1        0.01s   0.000%  ------ ||
|| linalg_dgemv                               :    44        0.03s   0.000%  ------ ||
|| sparse_blacstospam3_real_fast_imbal        :    96        0.03s   0.000%  ------ ||
|| ewald_calculate_energy                     :     1        0.04s   0.000%  ------ ||
|| sparse_set_to_garbage                      :  1070        0.04s   0.000%  ------ ||
|| ewald_calculate_forces_recipspace          :     1        0.09s   0.000%  ------ ||
|| paw_tcore_hartree_on_grid                  :     1        0.10s   0.000%  ------ ||
|| paw_dij_hartree                            :   297        0.12s   0.001%  ------ ||
|| sw_init                                    :   535        0.13s   0.001%  ------ ||
|| onetep.F90 main loop imbalance             :     1        0.14s   0.001%  ------ ||
|| pseudo_make_structure_factor               :     1        0.15s   0.001%  ------ ||
|| hubbard_projection_mtx                     :    51        0.17s   0.001%  ------ ||
|| sparse_spam3toblacs_real_fast_B2           :  4592        0.18s   0.001%  ------ ||
|| restart_hamiltonian_write                  :     2        0.22s   0.001%  ------ ||
|| ewald_calculate_forces                     :     1        0.25s   0.001%  ------ ||
|| sparse_spam3toblacs_real_fast_imbal        :    82        0.33s   0.001%  ------ ||
|| augmentation_density_forces                :     1        0.37s   0.002%  ------ ||
|| sparse_init                                :     1        0.39s   0.002%  ------ ||
|| basis_extract_function_from_box            :  3085        0.61s   0.003%  ------ ||
|| paw_tcore_hartree_calc_forces              :     1        0.70s   0.003%  ------ ||
|| hubbard_projector_ham                      :   127        0.93s   0.004%  ------ ||
|| hubbard_ham_matrix                         :   128        1.35s   0.006%  ------ ||
|| paw_tcore_density                          :     1        1.75s   0.007%  ------ ||
|| sparse_spam3toblacs_real_fast_B1           :  4592        1.98s   0.008%  ------ ||
|| paw_dataset_init                           :     2        2.15s   0.009%  ------ ||
|| restart_kernel_write                       :    26        2.23s   0.009%  ------ ||
|| paw_nlcc_calculate_forces                  :     1        2.33s   0.010%  ------ ||
|| paw_sphere_density_on_grid                 :     1        2.79s   0.012%  ------ ||
|| sparse_spam3toblacs_real_fast              :    82        2.86s   0.012%  ------ ||
|| nonsc_forces_ngwfs_calc                    :     1        2.98s   0.012%  ------ ||
|| hubbard_energy_total                       :   270        3.12s   0.013%  ------ ||
|| sparse_blacstospam3_real_fast              :    96        5.43s   0.023%  ------ ||
|| paw_species_calc_proj_prec_mat             :     1        5.80s   0.024%  ------ ||
|| ngwfs_initialise_from_radial               :     4        5.81s   0.024%  ------ ||
|| sparse_embed_array_hotelling_invert        :    50        7.54s   0.032%  ------ ||
|| dense_eigensolve                           :    38       10.99s   0.046%  ------ ||
|| hubbard_calculate_forces                   :     1       11.26s   0.047%  ------ ||
|| edft_diag_ngwf_ham                         :    36       12.90s   0.054%  ------ ||
|| integrals_grad_spam3                       :     4       13.82s   0.058%  ------ ||
|| sparse_trace                               :  9228       15.03s   0.063%  ------ ||
|| kernel_purify                              :   388       17.35s   0.073%  ------ ||
|| edft_apply_smearing_operator               :    18       19.36s   0.081%  ------ ||
|| energy_and_force_init_cell                 :     1       20.54s   0.086%  ------ ||
|| ngwf_gradient_coeffs                       :    24       21.48s   0.090%  ------ ||
|| lnv_gradient_norm                          :   120       22.33s   0.093%  ------ ||
|| kernel_fix                                 :   120       23.34s   0.098%  ------ ||
|| fourier_filter_cell                        :   306       24.24s   0.101% 140.144 ||
|| hubbard_projector_update                   :     1       30.28s   0.127%  ------ ||
|| basis_copy_function_to_box                 : 30921       30.81s   0.129%  ------ ||
|| eigenstates_calculate                      :     1       33.16s   0.139%  ------ ||
|| hartree_on_grid_single                     :   267       35.21s   0.147%  ------ ||
|| fourier_apply_box_pair                     :  4728       36.06s   0.151%  1.782k ||
|| hamiltonian_energy_components              :     1       37.22s   0.156%  ------ ||
|| projectors_func_grad_ovlp_box_spam3        :     6       40.66s   0.170%  ------ ||
|| aug_nl_calculate_forces                    :     1       41.75s   0.175%  ------ ||
|| fourier_interpolate_cell                   :   536       42.86s   0.179% 138.824 ||
|| density_init_guess_real                    :     2       58.35s   0.244%  ------ ||
|| augmentation_screen_dij_spam3              :   266       87.39s   0.366%  ------ ||
|| cell_grid_deposit_box_real                 : 21738      111.31s   0.466%  ------ ||
|| sparse_product                             : 17758      127.64s   0.534%  ------ ||
|| forces_calculate                           :     1      128.02s   0.536%  ------ ||
|| aug_nonlocal_mat_spam3_embed_array         :   272      139.86s   0.585%  ------ ||
|| paw_dij_xc                                 :   297      146.08s   0.611%  ------ ||
|| fourier_apply_cell_backward                :  2404      159.03s   0.665% 151.008 ||
|| fourier_filter                             :  5748      176.58s   0.739%  ------ ||
|| restart_ngwfs_tightbox_output              :    23      178.68s   0.748%  ------ ||
|| fourier_apply_cell_forward                 :  2404      180.00s   0.753% 133.413 ||
|| aug_density_on_grid_spam3                  :   268      193.38s   0.809%  ------ ||
|| projectors_init_fftbox_recip               :   641      228.69s   0.957%  ------ ||
|| fourier_interpolate                        :  5748      273.52s   1.145%  ------ ||
|| cell_grid_extract_box_real                 : 13546      285.24s   1.194%  ------ ||
|| function_ops_brappd_ketppd_spam3           :   200      312.89s   1.309%  ------ ||
|| xc_energy_potential                        :   267      373.70s   1.564%  ------ ||
|| properties_calculate                       :     1      458.25s   1.918%  ------ ||
|| density_fftbox_deposit_to_cell             : 17688      726.34s   3.039%  ------ ||
|| projectors_func_ovlp_box_spam3             :   202      774.08s   3.239%  ------ ||
|| integrals_kinetic_spam3                    :    98      838.43s   3.508%  ------ ||
|| edft_calculate                             :     1      898.82s   3.761%  ------ ||
|| basis_dot_function_with_box                : 10.75M    1181.01s   4.942%  ------ ||
|| potential_apply_to_ngwf_batch              :   770     1355.86s   5.674%  ------ ||
|| projectors_gradient_batch                  :   288     1560.25s   6.529%  ------ ||
|| fourier_apply_box                          : 94903     2287.37s   9.571%  1.874k ||
|| integrals_locpot_mat_els_batch             :   770     2310.11s   9.667%  ------ ||
|| fourier_interpolate_product                : 17228     2481.30s  10.383%  ------ ||
|| density_fftbox_interpolate_multiply        : 17688     2613.75s  10.937%  ------ ||
|| basis_add_function_to_box                  : 21.45M    2633.15s  11.018%  ------ ||
|| projectors_grad_precond_batch              :   144     3085.28s  12.910%  ------ ||
|| integrals_locpot_dbl_grid                  :   258     3668.99s  15.353%  ------ ||
|| density_batch_interp_deposit               :  1608     4178.16s  17.483%  ------ ||
|| density_batch_row_sums                     :  1608     4702.66s  19.678%  ------ ||
|| ngwf_gradient_build_batch                  :   144     5142.81s  21.520%  ------ ||
|| ngwf_gradient_batch                        :   144     7374.88s  30.860%  ------ ||
|| ngwf_gradient_lnv                          :    24     7490.83s  31.345%  ------ ||
|| density_on_dbl_grid                        :   536     8953.19s  37.464%  ------ ||
|| hamiltonian_lhxc_calculate                 :   264     9610.10s  40.213%  ------ ||
|| lnv_denskernel_optimise_cg                 :    24    11613.86s  48.598%  ------ ||
|| ngwf_cg_optimise                           :     1    22206.30s  92.922%  ------ ||
|| energy_and_forces                          :     1    23875.86s  99.908%  ------ ||
|| total_time                                 :     1    23897.87s 100.000%  ------ ||
======================================================================================
Overhead of generating timer report: 
- 0 ms averaging over threads,
- 5 ms ensuring consistency across MPI ranks,
- 52 ms printing in order.

Job completed: 21-10-2024 22:51 (+0100)

onetep_launcher: ONETEP seems to have finished correctly (zero exit code).
                 Brought to you by PID 243444 on nid005015.
