==================================================================================
It's Wed 02 Oct 2024 12:16:56 PM BST.
*** Starting onetep_launcher (node nid004350, PIDs 200834 200835 200836 200837 200838 200839 200840 200841)...
    - ONETEP arguments: U_-0.5_0.1.dat
    - Current directory: /mnt/lustre/a2fs-work3/work/e89/e89/phsmea/U_det/U_-0.05_0.1
    - Launcher executable directory: /mnt/lustre/a2fs-work3/work/e89/e89/phsmea/U_det/U_-0.05_0.1
    - (-e) ONETEP executable specified through command-line: /work/e89/e89/phsmea/onetep.archer2_2024_cray
      ... trying /work/e89/e89/phsmea/onetep.archer2_2024_cray
          -> looks OK
*** Setting up environment...
    - (-s) Process stack size: unlimited
    - (-t) OMP_NUM_THREADS: 16
    - (-o) OMP_STACKSIZE: 64M
    - (-c) Maximum core file size: 2048000
    - (-d) decfort_dump_flag: n
    - (-m) I_MPI_OFA_TRANSLATION_CACHE: 0
    - (-m) I_MPI_DAPL_TRANSLATION_CACHE: 0
    - (-m) I_MPI_DAPL_UD_TRANSLATION_CACHE: 0
*** Starting ONETEP...
    - /work/e89/e89/phsmea/onetep.archer2_2024_cray U_-0.5_0.1.dat
=================================================================================
_________________________________________________________________________________
 +---------------------------------------------------------------+
 |                                                               |
 |        ####### #     # ####### ####### ####### ######         |
 |        #     # ##    # #          #    #       #     #        |
 |        #     # # #   # #          #    #       #     #        |
 |        #     # #  #  # #####      #    #####   ######         |
 |        #     # #   # # #          #    #       #              |
 |        #     # #    ## #          #    #       #              |
 |        ####### #     # #######    #    ####### #              |
 |                                                               |
 |        Linear-Scaling Ab Initio Total Energy Program          |
 |                                                               |
 |          Release for academic collaborators of ODG            |
 |                                             Version 7.3.0     |
 | Remote: git@github.com:Miesaz/onetep_mea.git                  |
 | Local branch: master                                          |
 | Commit ID: 4af45e89288c8df5499704252eec3e032ee3d0c8           |
 | Date: Tue Aug 6 11:28:44 2024 +0100                           |
 | Working tree clean                                            |
 |                                                               |
 +---------------------------------------------------------------+
 |                                                               |
 |  Authors:                                                     |
 |  Jacek Dziedzic, Peter D. Haynes, Nicholas D. M. Hine,        |
 |  Arash A. Mostofi, Mike C. Payne and Chris-Kriton Skylaris    |
 |                                                               |
 |  Contributors:                                                |
 |  J. Aarons, L. Andrinopoulos, P. W. Avraam, R. A. Bell,       |
 |  A. Bhandari, G. A. Bramley, R. J. Charlton, S. J. Clark,     |
 |  R. J. Clements, G. C. Constantinescu, F. Corsetti,           |
 |  N. Corsini, O. Dieguez, S. M. M. Dubois, K. K. B. Duff,      |
 |  J. M. Escartin, M. Escobar Azor, A. Greco,                   |
 |  H. Helal, Q. O. Hill, L. P. Lee, J.-H. Li,                   |
 |  T. Li, E. B. Linscott, G. Moynihan, D. D. O`Regan,           |
 |  O. K. Okan, E. Parkinson, M. J. S. Phipps,                   |
 |  C. J. Pickard, J. C. A. Prentice, M. I. J. Probert,          |
 |  L. E. Ratcliff, M. Robinson, A. Ruiz Serrano,                |
 |  M. dos Santos Dias, J. S. Spencer, E. W. Tait,               |
 |  G. Teobaldi, D. Turban, V. Vitale, K. A. Wilkinson,          |
 |  C. Weber, J. C. Womack, Chengcheng Xiao, N. Yeung,           |
 |  and T. J. Zuehlsdorff.                                       |
 |                                                               |
 |                                   Copyright (c) 2004-2024     |
 |                                                               |
 |  Please cite:                                                 |
 |  "The ONETEP linear-scaling density functional theory program"|
 |   J. Chem. Phys. 152(17) 174111 (2020)                        |
 |                                                               |
 |          in all publications arising from your use of ONETEP. |
 |                                                               |
 +---------------------------------------------------------------+
 |                                                               |
 |   ONETEP is based on developments described in the following  |
 |   publications:                                               |
 |                                                               |
 |  "Nonorthogonal generalized Wannier function pseudopotential  |
 |   plane-wave method".                                         |
 |   C.-K. Skylaris, A. A. Mostofi, P. D. Haynes, O. Dieguez,    |
 |   M. C. Payne.                                                |
 |   Phys. Rev. B 66 035119 (2002).                              |
 |                                                               |
 |  "Preconditioned iterative minimization for linear-scaling    |
 |   electronic structure calculations".                         |
 |   A. A. Mostofi, P. D. Haynes, C.-K. Skylaris, M. C. Payne.   |
 |   J. Chem. Phys. 119(17), pp.8842-8848 (2003).                |
 |                                                               |
 |  "Total-energy calculations on a real space grid with         |
 |   localized functions and a plane-wave basis".                |
 |   A. A. Mostofi, C.-K. Skylaris, P. D. Haynes, M. C. Payne.   |
 |   Comput. Phys. Commun. 147, pp.788-802 (2002).               |
 |                                                               |
 |  "Accurate kinetic energy evaluation in electronic structure  |
 |   calculations with localized functions on real space grids"  |
 |   C.-K. Skylaris, A. A. Mostofi, P. D. Haynes, C. J. Pickard, |
 |   M. C. Payne.                                                |
 |   Comput. Phys. Commun. 140, pp.315-322 (2001).               |
 |                                                               |
 |  "Accurate ionic forces and geometry optimization in linear-  |
 |   scaling density-functional theory with local orbitals"      |
 |   N. D. M. Hine, M. Robinson, P. D. Haynes, C.-K. Skylaris,   |
 |   M. C. Payne, and A. A. Mostofi.                             |
 |   Phys. Rev. B 83 195102 (2011).                              |
 |                                                               |
 +---------------------------------------------------------------+

Job started: 02-10-2024 12:16 (+0100)
 
Reading parameters from file "U_-0.5_0.1.dat" ...
WARNING in get_rundat: hubbard_calculating_u is TRUE, so do_properties will be
overridden to TRUE.
... done

If your calculation crashes here, before "Checking processes and threads..."
is displayed, then your stack size is insufficient.
If so, use "ulimit -s unlimited" at runtime.
You can disable this check with "check_stack_size F".

Checking processes and threads...
   Determining the default number of threads...
      No default threads set at compilation time: defaulting to 1.
      OpenMP library call suggests 16 threads.
      Hybrid MPI-OpenMP compilation detected.
      Number of MPI processes > 1.
      OMP_NUM_THREADS environment variable present and
      its value matches the one obtained from the OpenMP library call.
      Using this value as default.
      Default threads: 16
      Default applies to threads_max and threads_num_fftboxes.
      Settings in the input file override this default.
   ... done

   Running with 56 MPI processes.
   There are 8 MPI processes running on the same node as the root process.
   Each MPI process is using: 
               1 threads for simulation cell FFTs.
               1 threads for threaded FFT box operations.
              16 threads for loops over batched FFT box operations.
              16 threads in other parallel regions.
   MPI Interface: S1 (use mpi_f08) (-DMPI -DUSE_MPI_F08).
   MPI_ASYNC_PROTECTS_NONBLOCKING: Yes. MPI_SUBARRAYS_SUPPORTED: Yes.
   FFTW Interface: OMP-capable and MODERN. (-DUSE_MODERN_FFTW specified).
   GPU Interface: None.
   GPU FFT Backend: None.
... done

Basic input checks...... done

Reading geometry and species blocks from file "U_-0.5_0.1.dat" ...   
  Number of PPD points along a3 set to 1.  This is 
  the default value, it may have been provided also in the input file.
... done


--------------------------------------------------------------------------------
---------------------------------- INPUT FILE ----------------------------------
--------------------------------------------------------------------------------

charge : 0                                                                      
cutoff_energy : 1000 eV                                                         
do_properties : T                                                               
edft : F                                                                        
edft_init_maxit : 5                                                             
elec_energy_tol : 2e-06 Ha                                                      
fine_grid_scale : 4                                                             
forces_output_detail : VERBOSE                                                  
hubbard_calculating_u : T                                                       
hubbard_read_projectors : T                                                     
maxit_ngwf_cg : 40                                                              
ngwf_threshold_orig : 1e-06                                                     
output_detail : VERBOSE                                                         
paw : T                                                                         
spin_polarized : T                                                              
ngwfs_spin_polarized : T                                                        
read_denskern : T                                                               
read_hamiltonian : T                                                            
read_tightbox_ngwfs : T                                                         
spin : 216                                                                      
task : SinglePoint                                                              
write_denskern : T                                                              
write_forces : T                                                                
write_hamiltonian : T                                                           
write_tightbox_ngwfs : T                                                        
xc_functional : PBE                                                             
%BLOCK LATTICE_CART                                                             
ang                                                                             
41.261892132    0.000000000     0.000000000                                     
-20.630946066   35.733846792     0.000000000                                    
0.0000000000    0.000000000    17.192455055                                     
%ENDBLOCK LATTICE_CART                                                          
%BLOCK POSITIONS_ABS                                                            
ang                                                                             
Cr       3.43849101       1.98521371       9.03176873                           
Cr       0.00000000       3.97042742       9.03176919                           
I        4.42260340      -0.00001318       7.48054615                           
I        1.22717790       2.12556082       7.48054615                           
I       -2.21129029       3.83009349       7.48054615                           
I        2.45437873      -0.00001140      10.58299027                           
I        2.21129177       3.83009250      10.58299027                           
I       -1.22717949       2.12556004      10.58299027                           
Cr       0.00000000       7.94085485       9.03176873                           
Cr      -3.43849101       9.92606855       9.03176919                           
I        0.98411239       5.95562795       7.48054615                           
I       -2.21131311       8.08120195       7.48054615                           
I       -5.64978130       9.78573462       7.48054615                           
I       -0.98411228       5.95562973      10.58299027                           
I       -1.22719924       9.78573363      10.58299027                           
I       -4.66567050       8.08120117      10.58299027                           
Cr      -3.43849101      13.89649598       9.03176873                           
Cr      -6.87698202      15.88170968       9.03176919                           
I       -2.45437862      11.91126909       7.48054615                           
I       -5.64980412      14.03684309       7.48054615                           
I       -9.08827231      15.74137575       7.48054615                           
I       -4.42260329      11.91127086      10.58299027                           
I       -4.66569025      15.74137476      10.58299027                           
I       -8.10416151      14.03684230      10.58299027                           
Cr      10.31547303       1.98521371       9.03176873                           
Cr       6.87698202       3.97042742       9.03176919                           
I       11.29958542      -0.00001318       7.48054615                           
I        8.10415992       2.12556082       7.48054615                           
I        4.66569173       3.83009349       7.48054615                           
I        9.33136075      -0.00001140      10.58299027                           
I        9.08827380       3.83009250      10.58299027                           
I        5.64980253       2.12556004      10.58299027                           
Cr       6.87698202       7.94085485       9.03176873                           
Cr       3.43849101       9.92606855       9.03176919                           
I        7.86109441       5.95562795       7.48054615                           
I        4.66566891       8.08120195       7.48054615                           
I        1.22720072       9.78573462       7.48054615                           
I        5.89286974       5.95562973      10.58299027                           
I        5.64978278       9.78573363      10.58299027                           
I        2.21131152       8.08120117      10.58299027                           
Cr       3.43849101      13.89649598       9.03176873                           
Cr       0.00000000      15.88170968       9.03176919                           
I        4.42260340      11.91126909       7.48054615                           
I        1.22717790      14.03684309       7.48054615                           
I       -2.21129029      15.74137575       7.48054615                           
I        2.45437873      11.91127086      10.58299027                           
I        2.21129177      15.74137476      10.58299027                           
I       -1.22717949      14.03684230      10.58299027                           
Cr      17.19245505       1.98521371       9.03176873                           
Cr      13.75396404       3.97042742       9.03176919                           
I       18.17656744      -0.00001318       7.48054615                           
I       14.98114195       2.12556082       7.48054615                           
I       11.54267375       3.83009349       7.48054615                           
I       16.20834277      -0.00001140      10.58299027                           
I       15.96525582       3.83009250      10.58299027                           
I       12.52678455       2.12556004      10.58299027                           
Cr      13.75396404       7.94085485       9.03176873                           
Cr      10.31547303       9.92606855       9.03176919                           
I       14.73807643       5.95562795       7.48054615                           
I       11.54265094       8.08120195       7.48054615                           
I        8.10418274       9.78573462       7.48054615                           
I       12.76985176       5.95562973      10.58299027                           
I       12.52676481       9.78573363      10.58299027                           
I        9.08829354       8.08120117      10.58299027                           
Cr      10.31547303      13.89649598       9.03176873                           
Cr       6.87698202      15.88170968       9.03176919                           
I       11.29958542      11.91126909       7.48054615                           
I        8.10415992      14.03684309       7.48054615                           
I        4.66569173      15.74137575       7.48054615                           
I        9.33136075      11.91127086      10.58299027                           
I        9.08827380      15.74137476      10.58299027                           
I        5.64980253      14.03684230      10.58299027                           
Cr      -6.87698202      19.85213711       9.03176873                           
Cr     -10.31547303      21.83735082       9.03176919                           
I       -5.89286963      17.86691022       7.48054615                           
I       -9.08829513      19.99248422       7.48054615                           
I      -12.52676332      21.69701689       7.48054615                           
I       -7.86109430      17.86691200      10.58299027                           
I       -8.10418126      21.69701590      10.58299027                           
I      -11.54265252      19.99248344      10.58299027                           
Cr     -10.31547303      25.80777825       9.03176873                           
Cr     -13.75396404      27.79299195       9.03176919                           
I       -9.33136064      23.82255135       7.48054615                           
I      -12.52678614      25.94812535       7.48054615                           
I      -15.96525433      27.65265802       7.48054615                           
I      -11.29958531      23.82255313      10.58299027                           
I      -11.54267227      27.65265703      10.58299027                           
I      -14.98114353      25.94812457      10.58299027                           
Cr     -13.75396404      31.76341938       9.03176873                           
Cr     -17.19245505      33.74863308       9.03176919                           
I      -12.76985165      29.77819249       7.48054615                           
I      -15.96527715      31.90376649       7.48054615                           
I      -19.40374534      33.60829915       7.48054615                           
I      -14.73807632      29.77819426      10.58299027                           
I      -14.98116328      33.60829816      10.58299027                           
I      -18.41963454      31.90376570      10.58299027                           
Cr      -0.00000000      19.85213711       9.03176873                           
Cr      -3.43849101      21.83735082       9.03176919                           
I        0.98411239      17.86691022       7.48054615                           
I       -2.21131311      19.99248422       7.48054615                           
I       -5.64978130      21.69701689       7.48054615                           
I       -0.98411228      17.86691200      10.58299027                           
I       -1.22719923      21.69701590      10.58299027                           
I       -4.66567050      19.99248344      10.58299027                           
Cr      -3.43849101      25.80777825       9.03176873                           
Cr      -6.87698202      27.79299195       9.03176919                           
I       -2.45437862      23.82255135       7.48054615                           
I       -5.64980412      25.94812535       7.48054615                           
I       -9.08827231      27.65265802       7.48054615                           
I       -4.42260329      23.82255313      10.58299027                           
I       -4.66569025      27.65265703      10.58299027                           
I       -8.10416151      25.94812457      10.58299027                           
Cr      -6.87698202      31.76341938       9.03176873                           
Cr     -10.31547303      33.74863308       9.03176919                           
I       -5.89286963      29.77819249       7.48054615                           
I       -9.08829513      31.90376649       7.48054615                           
I      -12.52676332      33.60829915       7.48054615                           
I       -7.86109430      29.77819426      10.58299027                           
I       -8.10418126      33.60829816      10.58299027                           
I      -11.54265252      31.90376570      10.58299027                           
CrU       6.87698202      19.85213711       9.03176873                          
Cr       3.43849101      21.83735082       9.03176919                           
I        7.86109441      17.86691022       7.48054615                           
I        4.66566892      19.99248422       7.48054615                           
I        1.22720072      21.69701689       7.48054615                           
I        5.89286974      17.86691200      10.58299027                           
I        5.64978279      21.69701590      10.58299027                           
I        2.21131152      19.99248344      10.58299027                           
Cr       3.43849101      25.80777825       9.03176873                           
Cr      -0.00000000      27.79299195       9.03176919                           
I        4.42260340      23.82255135       7.48054615                           
I        1.22717791      25.94812535       7.48054615                           
I       -2.21129029      27.65265802       7.48054615                           
I        2.45437873      23.82255313      10.58299027                           
I        2.21129178      27.65265703      10.58299027                           
I       -1.22717949      25.94812457      10.58299027                           
Cr      -0.00000000      31.76341938       9.03176873                           
Cr      -3.43849101      33.74863308       9.03176919                           
I        0.98411239      29.77819249       7.48054615                           
I       -2.21131311      31.90376649       7.48054615                           
I       -5.64978130      33.60829915       7.48054615                           
I       -0.98411228      29.77819426      10.58299027                           
I       -1.22719923      33.60829816      10.58299027                           
I       -4.66567050      31.90376570      10.58299027                           
Cr      24.06943708       1.98521371       9.03176873                           
Cr      20.63094607       3.97042742       9.03176919                           
I       25.05354947      -0.00001318       7.48054615                           
I       21.85812397       2.12556082       7.48054615                           
I       18.41965578       3.83009349       7.48054615                           
I       23.08532480      -0.00001140      10.58299027                           
I       22.84223784       3.83009250      10.58299027                           
I       19.40376658       2.12556004      10.58299027                           
Cr      20.63094607       7.94085485       9.03176873                           
Cr      17.19245506       9.92606855       9.03176919                           
I       21.61505846       5.95562795       7.48054615                           
I       18.41963296       8.08120195       7.48054615                           
I       14.98116477       9.78573462       7.48054615                           
I       19.64683379       5.95562973      10.58299027                           
I       19.40374683       9.78573363      10.58299027                           
I       15.96527557       8.08120117      10.58299027                           
Cr      17.19245506      13.89649598       9.03176873                           
Cr      13.75396405      15.88170968       9.03176919                           
I       18.17656745      11.91126909       7.48054615                           
I       14.98114195      14.03684309       7.48054615                           
I       11.54267376      15.74137575       7.48054615                           
I       16.20834278      11.91127086      10.58299027                           
I       15.96525582      15.74137476      10.58299027                           
I       12.52678456      14.03684230      10.58299027                           
Cr      30.94641910       1.98521371       9.03176873                           
Cr      27.50792809       3.97042742       9.03176919                           
I       31.93053149      -0.00001318       7.48054615                           
I       28.73510599       2.12556082       7.48054615                           
I       25.29663780       3.83009349       7.48054615                           
I       29.96230682      -0.00001140      10.58299027                           
I       29.71921987       3.83009250      10.58299027                           
I       26.28074860       2.12556004      10.58299027                           
Cr      27.50792809       7.94085485       9.03176873                           
Cr      24.06943708       9.92606855       9.03176919                           
I       28.49204048       5.95562795       7.48054615                           
I       25.29661498       8.08120195       7.48054615                           
I       21.85814679       9.78573462       7.48054615                           
I       26.52381581       5.95562973      10.58299027                           
I       26.28072885       9.78573363      10.58299027                           
I       22.84225759       8.08120117      10.58299027                           
Cr      24.06943708      13.89649598       9.03176873                           
Cr      20.63094607      15.88170968       9.03176919                           
I       25.05354947      11.91126909       7.48054615                           
I       21.85812397      14.03684309       7.48054615                           
I       18.41965578      15.74137575       7.48054615                           
I       23.08532480      11.91127086      10.58299027                           
I       22.84223784      15.74137476      10.58299027                           
I       19.40376658      14.03684230      10.58299027                           
Cr      37.82340112       1.98521371       9.03176873                           
Cr      34.38491011       3.97042742       9.03176919                           
I       38.80751351      -0.00001318       7.48054615                           
I       35.61208802       2.12556082       7.48054615                           
I       32.17361982       3.83009349       7.48054615                           
I       36.83928884      -0.00001140      10.58299027                           
I       36.59620189       3.83009250      10.58299027                           
I       33.15773062       2.12556004      10.58299027                           
Cr      34.38491011       7.94085485       9.03176873                           
Cr      30.94641910       9.92606855       9.03176919                           
I       35.36902250       5.95562795       7.48054615                           
I       32.17359701       8.08120195       7.48054615                           
I       28.73512881       9.78573462       7.48054615                           
I       33.40079783       5.95562973      10.58299027                           
I       33.15771088       9.78573363      10.58299027                           
I       29.71923961       8.08120117      10.58299027                           
Cr      30.94641910      13.89649598       9.03176873                           
Cr      27.50792809      15.88170968       9.03176919                           
I       31.93053149      11.91126909       7.48054615                           
I       28.73510599      14.03684309       7.48054615                           
I       25.29663780      15.74137575       7.48054615                           
I       29.96230682      11.91127086      10.58299027                           
I       29.71921987      15.74137476      10.58299027                           
I       26.28074860      14.03684230      10.58299027                           
Cr      13.75396404      19.85213711       9.03176873                           
Cr      10.31547303      21.83735082       9.03176919                           
I       14.73807643      17.86691022       7.48054615                           
I       11.54265093      19.99248422       7.48054615                           
I        8.10418274      21.69701689       7.48054615                           
I       12.76985176      17.86691200      10.58299027                           
I       12.52676480      21.69701590      10.58299027                           
I        9.08829354      19.99248344      10.58299027                           
Cr      10.31547303      25.80777825       9.03176873                           
Cr       6.87698202      27.79299195       9.03176919                           
I       11.29958542      23.82255135       7.48054615                           
I        8.10415992      25.94812535       7.48054615                           
I        4.66569173      27.65265802       7.48054615                           
I        9.33136075      23.82255313      10.58299027                           
I        9.08827379      27.65265703      10.58299027                           
I        5.64980253      25.94812457      10.58299027                           
Cr       6.87698202      31.76341938       9.03176873                           
Cr       3.43849101      33.74863308       9.03176919                           
I        7.86109441      29.77819249       7.48054615                           
I        4.66566891      31.90376649       7.48054615                           
I        1.22720072      33.60829915       7.48054615                           
I        5.89286974      29.77819426      10.58299027                           
I        5.64978278      33.60829816      10.58299027                           
I        2.21131152      31.90376570      10.58299027                           
Cr      20.63094606      19.85213711       9.03176873                           
Cr      17.19245505      21.83735082       9.03176919                           
I       21.61505845      17.86691022       7.48054615                           
I       18.41963295      19.99248422       7.48054615                           
I       14.98116476      21.69701689       7.48054615                           
I       19.64683378      17.86691200      10.58299027                           
I       19.40374683      21.69701590      10.58299027                           
I       15.96527556      19.99248344      10.58299027                           
Cr      17.19245505      25.80777825       9.03176873                           
Cr      13.75396404      27.79299195       9.03176919                           
I       18.17656744      23.82255135       7.48054615                           
I       14.98114194      25.94812535       7.48054615                           
I       11.54267375      27.65265802       7.48054615                           
I       16.20834277      23.82255313      10.58299027                           
I       15.96525581      27.65265703      10.58299027                           
I       12.52678455      25.94812457      10.58299027                           
Cr      13.75396404      31.76341938       9.03176873                           
Cr      10.31547303      33.74863308       9.03176919                           
I       14.73807643      29.77819249       7.48054615                           
I       11.54265093      31.90376649       7.48054615                           
I        8.10418274      33.60829915       7.48054615                           
I       12.76985176      29.77819426      10.58299027                           
I       12.52676480      33.60829816      10.58299027                           
I        9.08829354      31.90376570      10.58299027                           
Cr      27.50792808      19.85213711       9.03176873                           
Cr      24.06943707      21.83735082       9.03176919                           
I       28.49204047      17.86691022       7.48054615                           
I       25.29661498      19.99248422       7.48054615                           
I       21.85814678      21.69701689       7.48054615                           
I       26.52381580      17.86691200      10.58299027                           
I       26.28072885      21.69701590      10.58299027                           
I       22.84225758      19.99248344      10.58299027                           
Cr      24.06943707      25.80777825       9.03176873                           
Cr      20.63094606      27.79299195       9.03176919                           
I       25.05354946      23.82255135       7.48054615                           
I       21.85812397      25.94812535       7.48054615                           
I       18.41965577      27.65265802       7.48054615                           
I       23.08532479      23.82255313      10.58299027                           
I       22.84223784      27.65265703      10.58299027                           
I       19.40376657      25.94812457      10.58299027                           
Cr      20.63094606      31.76341938       9.03176873                           
Cr      17.19245505      33.74863308       9.03176919                           
I       21.61505845      29.77819249       7.48054615                           
I       18.41963295      31.90376649       7.48054615                           
I       14.98116476      33.60829915       7.48054615                           
I       19.64683378      29.77819426      10.58299027                           
I       19.40374683      33.60829816      10.58299027                           
I       15.96527556      31.90376570      10.58299027                           
%ENDBLOCK POSITIONS_ABS                                                         
%BLOCK SPECIES                                                                  
Cr Cr 24 -1 15                                                                  
I   I  53 -1 15                                                                 
CrU Cr 24 -1 15                                                                 
%ENDBLOCK SPECIES                                                               
%BLOCK SPECIES_ATOMIC_SET                                                       
Cr  "SOLVE INIT SPIN=3"                                                         
I   "SOLVE"                                                                     
CrU "SOLVE INIT SPIN=3"                                                         
%ENDBLOCK SPECIES_ATOMIC_SET                                                    
%BLOCK HUBBARD                                                                  
CrU 2 0.0 0.0 -10.0 -0.05 0.1                                                   
%ENDBLOCK HUBBARD                                                               
%BLOCK SPECIES_LDOS_GROUPS                                                      
Cr                                                                              
I                                                                               
CrU                                                                             
%ENDBLOCK SPECIES_LDOS_GROUPS                                                   
%BLOCK SPECIES_POT                                                              
Cr  "/work/e89/e89/phsmea/U_det/Cr.PBE-paw.abinit"                              
I   "/work/e89/e89/phsmea/U_det/I.PBE-paw.abinit"                               
CrU "/work/e89/e89/phsmea/U_det/Cr.PBE-paw.abinit"                              
%ENDBLOCK SPECIES_POT                                                           

--------------------------------------------------------------------------------
-------------------------------- END INPUT FILE --------------------------------
--------------------------------------------------------------------------------


 
 ESDF WARNING(1): "charge" (esdf_physical) has no units. Assume "e".
<<<<<<<<<<<<<<<<<<<<<<<<<<<<<<<<< Full system >>>>>>>>>>>>>>>>>>>>>>>>>>>>>>>>>>
<<<<<<<<<<<<<<<<<<<<<<<<<<< PAW Dataset information >>>>>>>>>>>>>>>>>>>>>>>>>>>
File: /work/e89/e89/phsmea/U_det/Cr.PBE-paw.abinit; rc = 2.11 bohr; shape type =  2; rshape = 1.80 bohr;
  Atomic number: 24;  ionic charge: 14.000000
    Partial Wave 1: l = 0
    Partial Wave 2: l = 0
    Partial Wave 3: l = 1
    Partial Wave 4: l = 1
    Partial Wave 5: l = 2
    Partial Wave 6: l = 2
  Core charge supplied for Nonlinear Core Corrections
File: /work/e89/e89/phsmea/U_det/I.PBE-paw.abinit; rc = 2.30 bohr; shape type =  2; rshape = 2.11 bohr;
  Atomic number: 53;  ionic charge:  7.000000
    Partial Wave 1: l = 0
    Partial Wave 2: l = 0
    Partial Wave 3: l = 1
    Partial Wave 4: l = 1
  Core charge supplied for Nonlinear Core Corrections
<<<<<<<<<<<<<<<<<<<<<<<<<<<<<<<<<<<<<<< >>>>>>>>>>>>>>>>>>>>>>>>>>>>>>>>>>>>>>>

-------------------------- Atom counting information ---------------------------
Symbol    Natoms    Nngwfs    Nprojs
  Cr        72       936      1296
  I        216       864      1728
.......   ......    ......    ......
Totals:    288      1800      3024
--------------------------------------------------------------------------------

=============================== PSINC grid sizes ===============================
                      Simulation cell:  175 x 175 x  75
                              FFT-box:  175 x 175 x  75
                                  PPD:    5 x   5 x   1
Grid space d1=  0.445563862424a0 (KE cutoff=  38.26345Eh =1041.20135eV)
Grid space d2=  0.445563862400a0 (KE cutoff=  38.26345Eh =1041.20135eV)
Grid space d3=  0.433187088468a0 (KE cutoff=  40.48116Eh =1101.54853eV)
================================================================================

********************* Fourier parallelisation information **********************
       Coarse grid (whole simulation cell) dimensions:    175   175    75
          Real-space ('12') slabs/proc (min max mean):      1     2     1
         Recip-space ('23') slabs/proc (min max mean):      1     2     1
********************************************************************************

********************* Fourier parallelisation information **********************
       Double grid (whole simulation cell) dimensions:    350   350   150
          Real-space ('12') slabs/proc (min max mean):      2     3     2
         Recip-space ('23') slabs/proc (min max mean):      3     4     3
********************************************************************************

********************* Fourier parallelisation information **********************
         Fine grid (whole simulation cell) dimensions:    700   700   300
          Real-space ('12') slabs/proc (min max mean):      5     6     5
         Recip-space ('23') slabs/proc (min max mean):      6     7     6
********************************************************************************

Atom SCF Calculation for Cr : Z (AE atom) =  24 : Z (PS atom) =  14
Config String: 3s2.0 3p6.0 3d5.0 4s1.0 4p0.0 INIT SPIN=3
Orbitals (num,occ):  5     2.00 6.00 5.00 1.00 0.00
Orbitals   (num,l):  5        0    1    2    0    1
Real-space Grid (nr,dr,rmax): 2519    0.0059571088   15.0000000000
Spherical Bessel Basis (nsws,lmax,cutoff):   37    4  220.4959463253
Confining potential (l,width,scale):  0    3.0000000000  100.0000000000
Confining potential (l,width,scale):  1    3.0000000000  100.0000000000
Confining potential (l,width,scale):  2    3.0000000000  100.0000000000
  1        -65.3471923710  -35.2563330024   55.2906609423   -3.8535553970
  2        -90.0927397504  -13.1825800979   74.1666916087   -4.5774174191
  3        -79.2670461047  -23.7806148614   64.3088439698   -4.1823440064
  4        -94.4424495777  -13.5331629342   73.5670124574   -5.0803069916
  5        -76.7412118267  -27.2621623871   60.8437016847   -4.3260243789
  6        -92.6094753975  -16.0773860798   70.4999348756   -5.2095720820
  7        -88.6853346297  -17.5269344364   69.1549449519   -4.7660705574
  8        -88.9102616012  -16.3209689492   70.1994702829   -4.6315426232
  9        -88.1217421957  -16.4058295181   70.0958180272   -4.5191069251
 10        -87.8375359983  -16.2787848182   70.1846975992   -4.4537674891
 11        -87.6444021519  -16.2397073208   70.2019967108   -4.4157529144
 12        -87.5031618349  -16.2095437015   70.2137961330   -4.3872067717
 13        -87.3968273845  -16.1883748141   70.2199573562   -4.3656070833
 14        -87.3166068260  -16.1735797301   70.2226351504   -4.3492483934
 15        -87.2560944693  -16.1632007614   70.2233193920   -4.3368566640
 16        -87.2104580391  -16.1558877095   70.2229342333   -4.3274695615
 17        -87.1760454441  -16.1507124590   70.2220346052   -4.3203586218
 18        -87.1500982152  -16.1470347216   70.2209428852   -4.3149719816
 19        -87.1305342048  -16.1444107594   70.2198377627   -4.3108914586
 20        -87.1157825831  -16.1425315934   70.2188109555   -4.3078001777
 21        -87.1046587341  -16.1411810669   70.2179029039   -4.3054580692
 22        -87.0962695509  -16.1402072660   70.2171249128   -4.3036832925
 23        -87.0899418313  -16.1395029525   70.2164726556   -4.3023381428
 24        -87.0851681930  -16.1389921030   70.2159342319   -4.3013183578
 25        -87.0815662495  -16.1386206051   70.2154948339   -4.3005450063
 26        -87.0788478223  -16.1383497928   70.2151393332   -4.2999583371
 27        -87.0767957158  -16.1381519403   70.2148536081   -4.2995131186
 28        -87.0752462222  -16.1380070976   70.2146251401   -4.2991751078
 29        -87.0740759333  -16.1379008652   70.2144431881   -4.2989183770
 30        -87.0731918066  -16.1378228192   70.2142987390   -4.2987232912
 31        -87.0725236801  -16.1377653934   70.2141843484   -4.2985749768
 32        -87.0720186359  -16.1377230818   70.2140939395   -4.2984621639
 33        -87.0716367530  -16.1376918682   70.2140225954   -4.2983763100
 34        -87.0713479082  -16.1376688167   70.2139663642   -4.2983109380
 35        -87.0711293660  -16.1376517769   70.2139220863   -4.2982611343
 36        -87.0709639622  -16.1376391708   70.2138872461   -4.2982231704
 37        -87.0708387352  -16.1376298384   70.2138598471   -4.2981942153
 38        -87.0707438945  -16.1376229257   70.2138383087   -4.2981721185
 39        -87.0706720423  -16.1376178032   70.2138213822   -4.2981552458
 40        -87.0706175877  -16.1376140060   70.2138080827   -4.2981423546
 41        -87.0705763038  -16.1376111908   70.2137976342   -4.2981324996
 42        -87.0705449937  -16.1376091035   70.2137894260   -4.2981249612
 43        -87.0705212393  -16.1376075560   70.2137829779   -4.2981191915
 44        -87.0705032107  -16.1376064089   70.2137779121   -4.2981147728
 45        -87.0704895225  -16.1376055588   70.2137739323   -4.2981113868
 46        -87.0704791259  -16.1376049292   70.2137708052   -4.2981087906
 47        -87.0704712262  -16.1376044630   70.2137683480   -4.2981067988
 48        -87.0704652216  -16.1376041182   70.2137664169   -4.2981052698
 49        -87.0704606554  -16.1376038633   70.2137648990   -4.2981040953
 50        -87.0704571819  -16.1376036751   70.2137637059   -4.2981031926
 51        -87.0704545383  -16.1376035362   70.2137627679   -4.2981024984
 52        -87.0704525257  -16.1376034339   70.2137620304   -4.2981019643
 53        -87.0704509927  -16.1376033587   70.2137614504   -4.2981015531
 54        -87.0704498246  -16.1376033035   70.2137609942   -4.2981012363
 55        -87.0704489341  -16.1376032630   70.2137606354   -4.2981009921
 56        -87.0704482550  -16.1376032334   70.2137603532   -4.2981008038
 57        -87.0704477368  -16.1376032119   70.2137601311   -4.2981006585
 58        -87.0704473413  -16.1376031962   70.2137599564   -4.2981005463
 59        -87.0704470392  -16.1376031848   70.2137598189   -4.2981004596
 60        -87.0704468084  -16.1376031766   70.2137597107   -4.2981003927
 61        -87.0704466321  -16.1376031707   70.2137596255   -4.2981003409
 62        -87.0704464972  -16.1376031665   70.2137595585   -4.2981003008
 63        -87.0704463940  -16.1376031635   70.2137595057   -4.2981002698
 64        -87.0704463150  -16.1376031613   70.2137594642   -4.2981002458
Atom SCF converged after  64 iterations to a total energy of    -87.07044631
Adjusting orbital occupancies:
Orbitals (num,spin,occ):  5  1     1.00 3.00 3.50 1.00 0.00
Orbitals   (num,spin,l):  5  1        0    1    2    0    1
Orbitals (num,spin,occ):  5  2     1.00 3.00 1.00 0.50 0.00
Orbitals   (num,spin,l):  5  2        0    1    2    0    1

Atom SCF Calculation for I  : Z (AE atom) =  53 : Z (PS atom) =   7
Config String: 5s2.0 5p5.0
Orbitals (num,occ):  2     2.00 5.00
Orbitals   (num,l):  2        0    1
Real-space Grid (nr,dr,rmax): 2519    0.0059571088   15.0000000000
Spherical Bessel Basis (nsws,lmax,cutoff):   37    2  220.4959463253
Confining potential (l,width,scale):  0    3.0000000000  100.0000000000
Confining potential (l,width,scale):  1    3.0000000000  100.0000000000
  1         -8.1273248066   -0.3323671756   13.8226652356   -5.4694467507
  2         -7.4577874565   -4.2380713761    7.9376868293   -3.6493680109
  3        -10.4306697216   -2.9358680885    9.1265742903   -4.0741269538
  4        -11.0153061684   -2.7485763233    9.3171319726   -4.1163871605
  5        -11.3040548890   -2.6629929342    9.4086149261   -4.1418162188
  6        -11.4517965745   -2.6220152405    9.4535504478   -4.1577093852
  7        -11.5286582294   -2.6018425224    9.4759147788   -4.1675321089
  8        -11.5689418446   -2.5917379080    9.4871505477   -4.1734671226
  9        -11.5901126459   -2.5866235002    9.4928321538   -4.1769725567
 10        -11.6012421796   -2.5840204826    9.4957161926   -4.1790026641
 11        -11.6070889128   -2.5826918668    9.4971834050   -4.1801598008
 12        -11.6101577847   -2.5820129641    9.4979306082   -4.1808110572
 13        -11.6117648593   -2.5816665445    9.4983105481   -4.1811737580
 14        -11.6126067242   -2.5814888464    9.4985047418   -4.1813744745
 15        -11.6130487209   -2.5813977147    9.4986040943   -4.1814848260
 16        -11.6132775976   -2.5813520915    9.4986536214   -4.1815448147
 17        -11.6133975906   -2.5813279978    9.4986796335   -4.1815777196
 18        -11.6134607656   -2.5813151121    9.4986934923   -4.1815956988
 19        -11.6134938700   -2.5813083874    9.4987007106   -4.1816054187
 20        -11.6135110895   -2.5813049804    9.4987043613   -4.1816106297
 21        -11.6135200297   -2.5813032663    9.4987061932   -4.1816134193
 22        -11.6135246802   -2.5813023974    9.4987071188   -4.1816149143
 23        -11.6135271026   -2.5813019539    9.4987075894   -4.1816157155
 24        -11.6135283651   -2.5813017266    9.4987078296   -4.1816161444
 25        -11.6135290230   -2.5813016098    9.4987079525   -4.1816163737
 26        -11.6135293658   -2.5813015497    9.4987080154   -4.1816164962
 27        -11.6135295445   -2.5813015187    9.4987080477   -4.1816165614
 28        -11.6135296375   -2.5813015027    9.4987080643   -4.1816165962
Atom SCF converged after  28 iterations to a total energy of    -11.61352964

Atom SCF Calculation for Cr : Z (AE atom) =  24 : Z (PS atom) =  14
Config String: 3s2.0 3p6.0 3d5.0 4s1.0 4p0.0 INIT SPIN=3
Orbitals (num,occ):  5     2.00 6.00 5.00 1.00 0.00
Orbitals   (num,l):  5        0    1    2    0    1
Real-space Grid (nr,dr,rmax): 2519    0.0059571088   15.0000000000
Spherical Bessel Basis (nsws,lmax,cutoff):   37    4  220.4959463253
Confining potential (l,width,scale):  0    3.0000000000  100.0000000000
Confining potential (l,width,scale):  1    3.0000000000  100.0000000000
Confining potential (l,width,scale):  2    3.0000000000  100.0000000000
  1        -65.3471923710  -35.2563330024   55.2906609423   -3.8535553970
  2        -90.0927397504  -13.1825800979   74.1666916087   -4.5774174191
  3        -79.2670461047  -23.7806148614   64.3088439698   -4.1823440064
  4        -94.4424495777  -13.5331629342   73.5670124574   -5.0803069916
  5        -76.7412118267  -27.2621623871   60.8437016847   -4.3260243789
  6        -92.6094753975  -16.0773860798   70.4999348756   -5.2095720820
  7        -88.6853346297  -17.5269344364   69.1549449519   -4.7660705574
  8        -88.9102616012  -16.3209689492   70.1994702829   -4.6315426232
  9        -88.1217421957  -16.4058295181   70.0958180272   -4.5191069251
 10        -87.8375359983  -16.2787848182   70.1846975992   -4.4537674891
 11        -87.6444021519  -16.2397073208   70.2019967108   -4.4157529144
 12        -87.5031618349  -16.2095437015   70.2137961330   -4.3872067717
 13        -87.3968273845  -16.1883748141   70.2199573562   -4.3656070833
 14        -87.3166068260  -16.1735797301   70.2226351504   -4.3492483934
 15        -87.2560944693  -16.1632007614   70.2233193920   -4.3368566640
 16        -87.2104580391  -16.1558877095   70.2229342333   -4.3274695615
 17        -87.1760454441  -16.1507124590   70.2220346052   -4.3203586218
 18        -87.1500982152  -16.1470347216   70.2209428852   -4.3149719816
 19        -87.1305342048  -16.1444107594   70.2198377627   -4.3108914586
 20        -87.1157825831  -16.1425315934   70.2188109555   -4.3078001777
 21        -87.1046587341  -16.1411810669   70.2179029039   -4.3054580692
 22        -87.0962695509  -16.1402072660   70.2171249128   -4.3036832925
 23        -87.0899418313  -16.1395029525   70.2164726556   -4.3023381428
 24        -87.0851681930  -16.1389921030   70.2159342319   -4.3013183578
 25        -87.0815662495  -16.1386206051   70.2154948339   -4.3005450063
 26        -87.0788478223  -16.1383497928   70.2151393332   -4.2999583371
 27        -87.0767957158  -16.1381519403   70.2148536081   -4.2995131186
 28        -87.0752462222  -16.1380070976   70.2146251401   -4.2991751078
 29        -87.0740759333  -16.1379008652   70.2144431881   -4.2989183770
 30        -87.0731918066  -16.1378228192   70.2142987390   -4.2987232912
 31        -87.0725236801  -16.1377653934   70.2141843484   -4.2985749768
 32        -87.0720186359  -16.1377230818   70.2140939395   -4.2984621639
 33        -87.0716367530  -16.1376918682   70.2140225954   -4.2983763100
 34        -87.0713479082  -16.1376688167   70.2139663642   -4.2983109380
 35        -87.0711293660  -16.1376517769   70.2139220863   -4.2982611343
 36        -87.0709639622  -16.1376391708   70.2138872461   -4.2982231704
 37        -87.0708387352  -16.1376298384   70.2138598471   -4.2981942153
 38        -87.0707438945  -16.1376229257   70.2138383087   -4.2981721185
 39        -87.0706720423  -16.1376178032   70.2138213822   -4.2981552458
 40        -87.0706175877  -16.1376140060   70.2138080827   -4.2981423546
 41        -87.0705763038  -16.1376111908   70.2137976342   -4.2981324996
 42        -87.0705449937  -16.1376091035   70.2137894260   -4.2981249612
 43        -87.0705212393  -16.1376075560   70.2137829779   -4.2981191915
 44        -87.0705032107  -16.1376064089   70.2137779121   -4.2981147728
 45        -87.0704895225  -16.1376055588   70.2137739323   -4.2981113868
 46        -87.0704791259  -16.1376049292   70.2137708052   -4.2981087906
 47        -87.0704712262  -16.1376044630   70.2137683480   -4.2981067988
 48        -87.0704652216  -16.1376041182   70.2137664169   -4.2981052698
 49        -87.0704606554  -16.1376038633   70.2137648990   -4.2981040953
 50        -87.0704571819  -16.1376036751   70.2137637059   -4.2981031926
 51        -87.0704545383  -16.1376035362   70.2137627679   -4.2981024984
 52        -87.0704525257  -16.1376034339   70.2137620304   -4.2981019643
 53        -87.0704509927  -16.1376033587   70.2137614504   -4.2981015531
 54        -87.0704498246  -16.1376033035   70.2137609942   -4.2981012363
 55        -87.0704489341  -16.1376032630   70.2137606354   -4.2981009921
 56        -87.0704482550  -16.1376032334   70.2137603532   -4.2981008038
 57        -87.0704477368  -16.1376032119   70.2137601311   -4.2981006585
 58        -87.0704473413  -16.1376031962   70.2137599564   -4.2981005463
 59        -87.0704470392  -16.1376031848   70.2137598189   -4.2981004596
 60        -87.0704468084  -16.1376031766   70.2137597107   -4.2981003927
 61        -87.0704466321  -16.1376031707   70.2137596255   -4.2981003409
 62        -87.0704464972  -16.1376031665   70.2137595585   -4.2981003008
 63        -87.0704463940  -16.1376031635   70.2137595057   -4.2981002698
 64        -87.0704463150  -16.1376031613   70.2137594642   -4.2981002458
Atom SCF converged after  64 iterations to a total energy of    -87.07044631
Adjusting orbital occupancies:
Orbitals (num,spin,occ):  5  1     1.00 3.00 3.50 1.00 0.00
Orbitals   (num,spin,l):  5  1        0    1    2    0    1
Orbitals (num,spin,occ):  5  2     1.00 3.00 1.00 0.50 0.00
Orbitals   (num,spin,l):  5  2        0    1    2    0    1

BC: Task: SINGLEPOINT
BC: +++++++++++++++ Summary of boundary conditions ++++++++++++++
BC: |       Component       |     Keyword     |   Periodicity   |
BC: |                       |                 |     X  Y  Z [1] |
BC: |-----------------------------------------------------------|
BC: | Ion-ion               | ion_ion_bc [2]  |     P  P  P     |
BC: | Local pseudopotential | pspot_bc [3]    |     P  P  P     |
BC: +++++++++++++++++++++++++++++++++++++++++++++++++++++++++++++
BC: P: Periodic, O: Open.
BC: [1] Not strictly along X, Y, Z but rather along lattice vectors A1, A2, A3.
BC: [2] Also affected by: pbc_correction_cutoff, cutoff_coulomb_type,
BC:     is_smeared_ion_rep, is_implicit_solvent, openbc_ion_ion.
BC: [3] Also affected by: is_smeared_ion_rep, is_implicit_solvent, openbc_pspot.

Determining parallel strategy ...
... using space-filling curve
... NGWF load balancing: max     33;  min     30;  average     32
... Projector load balancing: max     58;  min     44;  average     54
... Hubbard Projector load balancing: max      5;  min      0;  average      0
... done
Calculating Ewald energy ...
              Ewald: real-space energy =        14526.106202
        Ewald: reciprocal-space energy =         2223.582322
         Ewald: (sum_charge)**2 energy =         9533.053497
         Ewald: (sum_charge**2) energy =         1089.718782
                          Ewald energy =         6126.916246
Basis initialisation ...
... NGWF spheres initialised
... Projector spheres initialised
... Hubbard Projector spheres initialised
... NGWF tight boxes initialised
... Projector tight boxes initialised
... Tight-boxes gathered
... NGWF basis size (local,global):       2535767    138210472
... PAW projector initialisation
... done

============================= Charge Augmentation ==============================
                           Aug box size:   49 x  49 x  45
================================================================================
... Hubbard projector initialisation

========================== Sparse matrix information ===========================
                        Overlap matrix filling:  50.91%
                        Density kernel filling: 100.00% (known to be dense)
              NGWF-Proj overlap matrix filling:  17.10%
                    Aug Overlap matrix filling:  60.57%
      NGWF-Hubbard Proj overlap matrix filling:  50.72%
                             VW matrix filling:  25.73%
                    Hamiltonian matrix filling:  68.67%
                  NGWF diagonal matrix filling:   0.48%
                             KS matrix filling: 100.00% 
                           KSKS matrix filling: 100.00% 
================================================================================

Sparse matrix initialisation ...
 done

Reading NGWFs from file "U_-0.5_0.1.tightbox_ngwfs" ... done
============ Calculation of NGWF S^-1 using Hotelling algorithm ================ 
     Iteration  |  Spin  |  Frobenius norm and Maximum abs value (of I-S*S_n^-1)
         1           1      0.42006692E+02     0.99313075E+00
         1           2      0.42010403E+02     0.99321102E+00
         2           1      0.41610879E+02     0.98631016E+00
         2           2      0.41617909E+02     0.98646957E+00
         3           1      0.40880237E+02     0.97281344E+00
         3           2      0.40892960E+02     0.97312781E+00
         4           1      0.39606383E+02     0.94638753E+00
         4           2      0.39627833E+02     0.94699890E+00
         5           1      0.37532980E+02     0.89572640E+00
         5           2      0.37566075E+02     0.89688272E+00
         6           1      0.34350002E+02     0.80257607E+00
         6           2      0.34396407E+02     0.80464541E+00
         7           1      0.29784110E+02     0.70651645E+00
         7           2      0.29840182E+02     0.70535985E+00
         8           1      0.24175783E+02     0.65455963E+00
         8           2      0.24223966E+02     0.65294048E+00
         9           1      0.19065252E+02     0.62152068E+00
         9           2      0.19082422E+02     0.62227247E+00
        10           1      0.15840689E+02     0.58971816E+00
        10           2      0.15832620E+02     0.59048695E+00
        11           1      0.13738374E+02     0.54741041E+00
        11           2      0.13720635E+02     0.54820912E+00
        12           1      0.11568686E+02     0.48250322E+00
        12           2      0.11556657E+02     0.48357825E+00
        13           1      0.91450896E+01     0.39137977E+00
        13           2      0.91690832E+01     0.39342244E+00
        14           1      0.68729780E+01     0.28646948E+00
        14           2      0.69636100E+01     0.29060908E+00
        15           1      0.49214755E+01     0.18694551E+00
        15           2      0.50988138E+01     0.19397718E+00
        16           1      0.32725699E+01     0.10718888E+00
        16           2      0.35492850E+01     0.11665223E+00
        17           1      0.17501258E+01     0.51665788E-01
        17           2      0.20625543E+01     0.61428299E-01
        18           1      0.55249505E+00     0.15791683E-01
        18           2      0.75584649E+00     0.21955057E-01
        19           1      0.66600725E-01     0.17083652E-02
        19           2      0.11672482E+00     0.31567616E-02
        20           1      0.15002013E-02     0.27269970E-04
        20           2      0.39438256E-02     0.81981486E-04
        21           1      0.13178018E-05     0.14811443E-07
        21           2      0.80396188E-05     0.10207974E-06
        22           1      0.12222179E-11     0.16875390E-13
        22           2      0.44745379E-10     0.44209081E-12
================================================================================

Reading HUBBARD PROJs from file "U_-0.5_0.1.tightbox_hub_projs" ... done

################################################################################
DFT+U information on atom      1 of Hubbard species CrU 
################################################################################
Using the on-atom contravariant metric, the NGWF hydrogenic character
| < \phi | \psi > |**2 matrix of Hubbard site      1 is 
  m_l =   -2          -1           0           1           2         SUM
 -0.00000000  0.00000000  0.00000000  0.00000000 -0.00000000 -0.00000000
  0.00000000  0.00000000  0.00000000 -0.00000000  0.00000000  0.00000000
 -0.00000000  0.00000000  0.00000000  0.00000000 -0.00000000  0.00000000
  0.00000000 -0.00000000  0.00000000  0.00000000  0.00000000  0.00000000
  0.62769551  0.00000000 -0.00000000  0.00000000 -0.00000000  0.62769551
  0.00000000  0.62783571  0.00000000 -0.00000000  0.00000000  0.62783571
 -0.00000000  0.00000000  0.62791497  0.00000000 -0.00000000  0.62791497
  0.00000000 -0.00000000  0.00000000  0.62808301 -0.00000000  0.62808301
 -0.00000000  0.00000000 -0.00000000 -0.00000000  0.62821907  0.62821907
  0.00000000 -0.00000000 -0.00000000 -0.00000000  0.00000000 -0.00000000
  0.00000000  0.00000000  0.00000000 -0.00000000 -0.00000000 -0.00000000
 -0.00000000  0.00000000  0.00000000  0.00000000 -0.00000000  0.00000000
 -0.00000000  0.00000000  0.00000000  0.00000000  0.00000000 -0.00000000
Total hydrogenic projection of NGWFs on this atom             3.13974826
################################################################################

Writing HUBBARD PROJs to file "U_-0.5_0.1.tightbox_hub_projs".... done

################################################################################
Using the subspace contravariant metric, the NGWF hydrogenic character
| < \phi | \psi > |**2 matrix of Hubbard site      1 is 
  m_l =   -2          -1           0           1           2         SUM
  0.62769298  0.00000000 -0.00000000  0.00000000 -0.00000000  0.62769298
  0.00000000  0.62783571  0.00000000 -0.00000000  0.00000000  0.62783571
 -0.00000000  0.00000000  0.62791460  0.00000000 -0.00000000  0.62791460
  0.00000000 -0.00000000  0.00000000  0.62808301 -0.00000000  0.62808301
 -0.00000000  0.00000000 -0.00000000 -0.00000000  0.62821654  0.62821654
Total hydrogenic projection of NGWFs on this correlated site  3.13974284
################################################################################

Calculating core density ...
================================= Core Density =================================
               Core den box size:  125 x 125 x 117
================================================================================
 ... done

Reading density kernel from file "U_-0.5_0.1.dkn" ... done

>>> Optimising kernel for current NGWFs:

################################################################################
DFT+U information on atom      1 of Hubbard species CrU 
################################################################################
Occupancy matrix of Hubbard site      1 and spin      1 is 
  m_l =   -2          -1           0           1           2
  0.89239945  0.14634955  0.00000211  0.00000087  0.00000389
  0.14638580  0.77765586 -0.00000408  0.00000451 -0.00000227
  0.00000074 -0.00000204  0.99128119 -0.00000119 -0.00000038
  0.00000205  0.00000445 -0.00000232  0.77765253 -0.14638176
  0.00000384 -0.00000104 -0.00000113 -0.14634688  0.89240525
WARNING: DFT+U ENERGY of Hubbard site      1 and spin      1 is negative.
################################################################################
Occupancy matrix of Hubbard site      1 and spin      2 is 
  m_l =   -2          -1           0           1           2
  0.25742796 -0.13170580 -0.00000219  0.00000104  0.00000166
 -0.13173723  0.36151428  0.00000206  0.00000245  0.00000028
 -0.00000080  0.00000023  0.15744818  0.00000017  0.00000152
 -0.00000000  0.00000251  0.00000118  0.36151427  0.13173832
  0.00000171 -0.00000081  0.00000229  0.13170810  0.25743126
################################################################################
Total occupancy of Hubbard site      1 is         5.72673022 e
Local magnetic moment of Hubbard site      1 is   2.93605834 mu_B
DFT+U energy of Hubbard site      1 is           -0.01591758 Ha
################################################################################



>>> Density kernel optimised for the current NGWF basis:
     ~~~~~~~~~~~~~~~~~~~~~~~~~~~~~~~~~~~~~~~~~~~~~~~~~~~~~~~~~~~
     Total energy                =  -8.81894072424129E+03  Eh
     Estimated bandgap (UP spin) =   4.7666E-02  Eh
     Estimated bandgap (DN spin) =   8.1464E-02  Eh
     RMS occupancy error         =   2.1432E-12
     [H,K] commutator            =   7.5206E-06
     UP spin occupancy bounds    = [  0.000:  1.000]
     DN spin occupancy bounds    = [  0.000:  1.000]
     ~~~~~~~~~~~~~~~~~~~~~~~~~~~~~~~~~~~~~~~~~~~~~~~~~~~~~~~~~~~




################################################################################
########################### NGWF CG iteration  001 #############################
################################################################################
****** Reciprocal space K.E. preconditioning with k_zero =  3.0000 a0^-1 *******

>>> Checking for convergence of NGWFs:   NOT CONVERGED
  ========================================================================
         NGWF RMS gradient =  2.0227E-06 >  1.0000E-06  | above tolerance
  ========================================================================

>>> Improving NGWFs using line search:
============ Calculation of NGWF S^-1 using Hotelling algorithm ================ 
     Iteration  |  Spin  |  Frobenius norm and Maximum abs value (of I-S*S_n^-1)
         1           1      0.39435823E-02     0.10078042E-03
         1           2      0.42975646E-02     0.13708240E-03
         2           1      0.56128201E-06     0.20331846E-07
         2           2      0.65459524E-06     0.22682121E-07
         3           1      0.88537808E-13     0.57731597E-14
         3           2      0.93770297E-13     0.66613381E-14
================================================================================

################################################################################
DFT+U information on atom      1 of Hubbard species CrU 
################################################################################
Occupancy matrix of Hubbard site      1 and spin      1 is 
  m_l =   -2          -1           0           1           2
  0.89239759  0.14635145  0.00000211  0.00000088  0.00000390
  0.14638770  0.77765212 -0.00000407  0.00000449 -0.00000228
  0.00000073 -0.00000204  0.99128090 -0.00000119 -0.00000037
  0.00000206  0.00000443 -0.00000232  0.77764879 -0.14638367
  0.00000384 -0.00000105 -0.00000113 -0.14634879  0.89240338
WARNING: DFT+U ENERGY of Hubbard site      1 and spin      1 is negative.
################################################################################
Occupancy matrix of Hubbard site      1 and spin      2 is 
  m_l =   -2          -1           0           1           2
  0.25742610 -0.13170481 -0.00000218  0.00000106  0.00000165
 -0.13173624  0.36151136  0.00000208  0.00000244  0.00000026
 -0.00000080  0.00000025  0.15744722  0.00000017  0.00000153
  0.00000001  0.00000249  0.00000118  0.36151134  0.13173733
  0.00000170 -0.00000083  0.00000230  0.13170711  0.25742940
################################################################################
Total occupancy of Hubbard site      1 is         5.72670820 e
Local magnetic moment of Hubbard site      1 is   2.93605735 mu_B
DFT+U energy of Hubbard site      1 is           -0.01591754 Ha
################################################################################

============ Calculation of NGWF S^-1 using Hotelling algorithm ================ 
     Iteration  |  Spin  |  Frobenius norm and Maximum abs value (of I-S*S_n^-1)
         1           1      0.13858996E-01     0.35420018E-03
         1           2      0.15102735E-01     0.48181759E-03
         2           1      0.69298555E-05     0.25118315E-06
         2           2      0.80801731E-05     0.28020746E-06
         3           1      0.38849342E-11     0.11901591E-12
         3           2      0.53196687E-11     0.15409896E-12
================================================================================
------------------------------- NGWF line search -------------------------------
RMS gradient                =       0.00000202274660
Trial step length           =               0.122474
Gradient along search dir.  =         -0.00139795050
Functional at step 0        =   -8818.94072424128899
Functional at step 1        =   -8818.94087649278663
Functional predicted        =   -8818.94111072919804
Selected quadratic step     =               0.552935
Conjugate gradients coeff.  =               0.000000
--------------------------- NGWF line search finished --------------------------
                                               
Writing NGWFs to file "U_-0.5_0.1.tightbox_ngwfs".... done

>>> Optimising kernel for current NGWFs:
   Initial electron number for spin 1:    1368.00774241
   Initial electron number for spin 2:    1152.00905758
     Final electron number for spin 1:    1368.00000000
     Final electron number for spin 2:    1152.00000000

=================== Penalty functional idempotency correction ==================
 RMS occupancy error at iteration   1:  0.000027 (step -0.5000 Ne1=   1368.0000)
                                                               Ne2=   1152.0000
            Final RMS occupancy error   :  0.000000 (Ne1=   1368.0000)
                                                     Ne2=   1152.0000
            Final occupancy bounds spin 1: [  0.000,  1.000]
            Final occupancy bounds spin 2: [  0.000,  1.000]
================================================================================

................................................................................
<<<<<<<<<<<<<< LNV (Original version) density kernel optimisation >>>>>>>>>>>>>>
~~~~~~~~~~~~~~~~~~~~~~~~~~~~~~~~~~~~~~~~~~~~~~~~~~~~~~~~~~~~~~~~~~~~~~~~~~~~~~~~
   iter  |      energy (Eh)       | rms gradient |  commutator  |   dE (Eh)

################################################################################
DFT+U information on atom      1 of Hubbard species CrU 
################################################################################
Occupancy matrix of Hubbard site      1 and spin      1 is 
  m_l =   -2          -1           0           1           2
  0.89239104  0.14635813  0.00000209  0.00000091  0.00000391
  0.14639438  0.77763899 -0.00000406  0.00000444 -0.00000230
  0.00000071 -0.00000202  0.99127987 -0.00000119 -0.00000036
  0.00000209  0.00000438 -0.00000231  0.77763564 -0.14639037
  0.00000385 -0.00000108 -0.00000112 -0.14635549  0.89239681
WARNING: DFT+U ENERGY of Hubbard site      1 and spin      1 is negative.
################################################################################
Occupancy matrix of Hubbard site      1 and spin      2 is 
  m_l =   -2          -1           0           1           2
  0.25741958 -0.13170135 -0.00000217  0.00000111  0.00000162
 -0.13173278  0.36150110  0.00000213  0.00000238  0.00000020
 -0.00000078  0.00000030  0.15744388  0.00000018  0.00000157
  0.00000007  0.00000244  0.00000118  0.36150104  0.13173383
  0.00000168 -0.00000089  0.00000234  0.13170361  0.25742287
################################################################################
Total occupancy of Hubbard site      1 is         5.72663080 e
Local magnetic moment of Hubbard site      1 is   2.93605389 mu_B
DFT+U energy of Hubbard site      1 is           -0.01591739 Ha
################################################################################

      ideal mu1:      -0.570364970360
      ideal mu2:      -0.629516207863
             Q0:       -8818.941140010185
             G0:      -0.000203630118
   RMS gradient:       0.000011211494

################################################################################
DFT+U information on atom      1 of Hubbard species CrU 
################################################################################
Occupancy matrix of Hubbard site      1 and spin      1 is 
  m_l =   -2          -1           0           1           2
  0.89233205  0.14643753  0.00000210  0.00000113  0.00000408
  0.14647380  0.77751683 -0.00000400  0.00000420 -0.00000254
  0.00000072 -0.00000196  0.99127602 -0.00000115 -0.00000035
  0.00000232  0.00000414 -0.00000227  0.77751298 -0.14647000
  0.00000402 -0.00000131 -0.00000111 -0.14643510  0.89233778
WARNING: DFT+U ENERGY of Hubbard site      1 and spin      1 is negative.
################################################################################
Occupancy matrix of Hubbard site      1 and spin      2 is 
  m_l =   -2          -1           0           1           2
  0.25733346 -0.13165525 -0.00000206  0.00000144  0.00000171
 -0.13168668  0.36137018  0.00000235  0.00000199 -0.00000019
 -0.00000068  0.00000052  0.15739064  0.00000022  0.00000169
  0.00000040  0.00000204  0.00000123  0.36136957  0.13168742
  0.00000176 -0.00000127  0.00000246  0.13165719  0.25733679
################################################################################
Total occupancy of Hubbard site      1 is         5.72577631 e
Local magnetic moment of Hubbard site      1 is   2.93617502 mu_B
DFT+U energy of Hubbard site      1 is           -0.01591604 Ha
################################################################################

     Trial step:       0.500000000000
             Q1:       -8818.941128642122
 Quadratic coef:       0.000113183123
 Linear coef   :      -0.000101815059
           Qmin:       -8818.941162907386
Quadratic minimum step length (  0.224890107798) accepted
    Initial Ne1:    1367.99999644
    Initial Ne2:    1151.99999552
      Final Ne1:    1368.00000000
      Final Ne2:    1152.00000000

=================== Penalty functional idempotency correction ==================
 RMS occupancy error at iteration   1:  0.000000 (step -0.5000 Ne1=   1368.0000)
                                                               Ne2=   1152.0000
            Final RMS occupancy error   :  0.000000 (Ne1=   1368.0000)
                                                     Ne2=   1152.0000
            Final occupancy bounds spin 1: [  0.000,  1.000]
            Final occupancy bounds spin 2: [  0.000,  1.000]
================================================================================

    1        -8.818941140010E+03     1.1211E-05     5.8869E-06

################################################################################
DFT+U information on atom      1 of Hubbard species CrU 
################################################################################
Occupancy matrix of Hubbard site      1 and spin      1 is 
  m_l =   -2          -1           0           1           2
  0.89236451  0.14639384  0.00000209  0.00000101  0.00000399
  0.14643010  0.77758405 -0.00000403  0.00000433 -0.00000241
  0.00000072 -0.00000199  0.99127814 -0.00000117 -0.00000036
  0.00000219  0.00000427 -0.00000229  0.77758047 -0.14642619
  0.00000393 -0.00000118 -0.00000111 -0.14639130  0.89237026
WARNING: DFT+U ENERGY of Hubbard site      1 and spin      1 is negative.
################################################################################
Occupancy matrix of Hubbard site      1 and spin      2 is 
  m_l =   -2          -1           0           1           2
  0.25738084 -0.13168061 -0.00000212  0.00000126  0.00000166
 -0.13171205  0.36144221  0.00000223  0.00000221  0.00000002
 -0.00000074  0.00000040  0.15741993  0.00000020  0.00000163
  0.00000022  0.00000226  0.00000121  0.36144190  0.13171295
  0.00000172 -0.00000106  0.00000240  0.13168273  0.25738415
################################################################################
Total occupancy of Hubbard site      1 is         5.72624646 e
Local magnetic moment of Hubbard site      1 is   2.93610839 mu_B
DFT+U energy of Hubbard site      1 is           -0.01591678 Ha
################################################################################

      ideal mu1:      -0.570462608947
      ideal mu2:      -0.629593672190
             Q0:       -8818.941159552174
             G0:      -0.000042703315
   RMS gradient:       0.000004862894

################################################################################
DFT+U information on atom      1 of Hubbard species CrU 
################################################################################
Occupancy matrix of Hubbard site      1 and spin      1 is 
  m_l =   -2          -1           0           1           2
  0.89232907  0.14644080  0.00000216  0.00000108  0.00000401
  0.14647707  0.77751189 -0.00000404  0.00000423 -0.00000248
  0.00000078 -0.00000200  0.99127557 -0.00000119 -0.00000034
  0.00000226  0.00000417 -0.00000231  0.77750796 -0.14647336
  0.00000395 -0.00000126 -0.00000110 -0.14643846  0.89233474
WARNING: DFT+U ENERGY of Hubbard site      1 and spin      1 is negative.
################################################################################
Occupancy matrix of Hubbard site      1 and spin      2 is 
  m_l =   -2          -1           0           1           2
  0.25733195 -0.13165370 -0.00000212  0.00000135  0.00000169
 -0.13168514  0.36136657  0.00000226  0.00000201 -0.00000010
 -0.00000073  0.00000043  0.15738939  0.00000026  0.00000159
  0.00000031  0.00000206  0.00000126  0.36136581  0.13168588
  0.00000174 -0.00000118  0.00000236  0.13165566  0.25733522
################################################################################
Total occupancy of Hubbard site      1 is         5.72574817 e
Local magnetic moment of Hubbard site      1 is   2.93617029 mu_B
DFT+U energy of Hubbard site      1 is           -0.01591598 Ha
################################################################################

     Trial step:       0.335328277810
             Q1:       -8818.941162310697
 Quadratic coef:       0.000011561106
 Linear coef   :      -0.000014319629
           Qmin:       -8818.941163986261
Quadratic minimum step length (  0.207669435098) accepted
    Initial Ne1:    1367.99999938
    Initial Ne2:    1151.99999922
      Final Ne1:    1368.00000000
      Final Ne2:    1152.00000000

=================== Penalty functional idempotency correction ==================
 RMS occupancy error at iteration   1:  0.000000 (step -0.5000 Ne1=   1368.0000)
                                                               Ne2=   1152.0000
            Final RMS occupancy error   :  0.000000 (Ne1=   1368.0000)
                                                     Ne2=   1152.0000
            Final occupancy bounds spin 1: [  0.000,  1.000]
            Final occupancy bounds spin 2: [ -0.000,  1.000]
================================================================================

    2        -8.818941159552E+03     4.8629E-06     2.5057E-06    -1.9542E-05

################################################################################
DFT+U information on atom      1 of Hubbard species CrU 
################################################################################
Occupancy matrix of Hubbard site      1 and spin      1 is 
  m_l =   -2          -1           0           1           2
  0.89234256  0.14642292  0.00000213  0.00000106  0.00000400
  0.14645919  0.77753936 -0.00000403  0.00000427 -0.00000245
  0.00000076 -0.00000200  0.99127655 -0.00000118 -0.00000035
  0.00000224  0.00000421 -0.00000230  0.77753556 -0.14645540
  0.00000394 -0.00000123 -0.00000111 -0.14642050  0.89234827
WARNING: DFT+U ENERGY of Hubbard site      1 and spin      1 is negative.
################################################################################
[...]
*    I     144      0.00132805  -0.00233834   0.00481584 *
*    Cr    145     -0.00002389   0.00000972  -0.00000225 *
*    Cr    146     -0.00000089  -0.00001943  -0.00000176 *
*    I     147      0.00269576   0.00001924  -0.00481301 *
*    I     148     -0.00132582  -0.00230081  -0.00481829 *
*    I     149     -0.00133328   0.00233922  -0.00481537 *
*    I     150     -0.00269272  -0.00001451   0.00481656 *
*    I     151      0.00133029   0.00229976   0.00481785 *
*    I     152      0.00133075  -0.00234019   0.00481608 *
*    Cr    153      0.00000872   0.00000296  -0.00000056 *
*    Cr    154     -0.00001160  -0.00000529  -0.00000088 *
*    I     155      0.00269676   0.00002685  -0.00481598 *
*    I     156     -0.00132543  -0.00230067  -0.00481531 *
*    I     157     -0.00132925   0.00233938  -0.00481923 *
*    I     158     -0.00269393  -0.00001162   0.00481434 *
*    I     159      0.00132968   0.00229630   0.00481741 *
*    I     160      0.00132838  -0.00233694   0.00481746 *
*    Cr    161      0.00001133  -0.00000583  -0.00000062 *
*    Cr    162     -0.00002381   0.00001239  -0.00000077 *
*    I     163      0.00268979   0.00002359  -0.00481547 *
*    I     164     -0.00132339  -0.00230462  -0.00481637 *
*    I     165     -0.00133147   0.00234152  -0.00481941 *
*    I     166     -0.00269371  -0.00001679   0.00481674 *
*    I     167      0.00133417   0.00230107   0.00481703 *
*    I     168      0.00133083  -0.00234301   0.00482048 *
*    Cr    169     -0.00002654   0.00000837  -0.00000388 *
*    Cr    170     -0.00002509  -0.00000017  -0.00000245 *
*    I     171      0.00269728   0.00002879  -0.00481921 *
*    I     172     -0.00131994  -0.00230136  -0.00482017 *
*    I     173     -0.00133394   0.00234063  -0.00482073 *
*    I     174     -0.00268585  -0.00001112   0.00482215 *
*    I     175      0.00133353   0.00229714   0.00482080 *
*    I     176      0.00132960  -0.00234395   0.00481907 *
*    Cr    177     -0.00002949   0.00001725  -0.00000279 *
*    Cr    178      0.00000756  -0.00000360  -0.00000238 *
*    I     179      0.00269823   0.00002388  -0.00481933 *
*    I     180     -0.00132561  -0.00229951  -0.00481907 *
*    I     181     -0.00133148   0.00233698  -0.00481555 *
*    I     182     -0.00269152  -0.00001466   0.00482284 *
*    I     183      0.00132876   0.00229757   0.00481976 *
*    I     184      0.00132604  -0.00234619   0.00481674 *
*    Cr    185      0.00000275  -0.00000999  -0.00000029 *
*    Cr    186     -0.00000122   0.00001249  -0.00000129 *
*    I     187      0.00269161   0.00001900  -0.00481294 *
*    I     188     -0.00132240  -0.00229838  -0.00481647 *
*    I     189     -0.00133392   0.00233811  -0.00481348 *
*    I     190     -0.00269373  -0.00001798   0.00481779 *
*    I     191      0.00133089   0.00229825   0.00481767 *
*    I     192      0.00132554  -0.00234494   0.00481825 *
*    Cr    193     -0.00000018  -0.00000143   0.00000063 *
*    Cr    194     -0.00001818   0.00000681  -0.00000312 *
*    I     195      0.00269309   0.00002087  -0.00482069 *
*    I     196     -0.00132275  -0.00230360  -0.00482393 *
*    I     197     -0.00133254   0.00233382  -0.00482275 *
*    I     198     -0.00269205  -0.00001564   0.00482590 *
*    I     199      0.00133297   0.00229938   0.00482455 *
*    I     200      0.00132498  -0.00234667   0.00482089 *
*    Cr    201     -0.00002086   0.00001764  -0.00000252 *
*    Cr    202     -0.00001348   0.00002248  -0.00000216 *
*    I     203      0.00269148   0.00002505  -0.00481569 *
*    I     204     -0.00131833  -0.00230322  -0.00481851 *
*    I     205     -0.00133661   0.00233442  -0.00481912 *
*    I     206     -0.00268901  -0.00001363   0.00482294 *
*    I     207      0.00133467   0.00229290   0.00481885 *
*    I     208      0.00132706  -0.00234984   0.00482156 *
*    Cr    209     -0.00002118   0.00001455  -0.00000037 *
*    Cr    210      0.00001311   0.00001448  -0.00000089 *
*    I     211      0.00269336   0.00001889  -0.00481673 *
*    I     212     -0.00132653  -0.00230212  -0.00481647 *
*    I     213     -0.00133776   0.00233950  -0.00481358 *
*    I     214     -0.00269020  -0.00001229   0.00481882 *
*    I     215      0.00133024   0.00230075   0.00481799 *
*    I     216      0.00132851  -0.00234416   0.00481538 *
*    Cr    217      0.00000042  -0.00003300  -0.00000074 *
*    Cr    218     -0.00006216  -0.00003248  -0.00000031 *
*    I     219      0.00268896   0.00002229  -0.00481117 *
*    I     220     -0.00132113  -0.00229996  -0.00480925 *
*    I     221     -0.00132077   0.00234076  -0.00479011 *
*    I     222     -0.00269103  -0.00001160   0.00481410 *
*    I     223      0.00133078   0.00229926   0.00481065 *
*    I     224      0.00133711  -0.00233276   0.00479343 *
*    Cr    225     -0.00000128  -0.00002536  -0.00000213 *
*    Cr    226     -0.00003520  -0.00001555  -0.00000204 *
*    I     227      0.00268664   0.00001702  -0.00481033 *
*    I     228     -0.00132369  -0.00229935  -0.00481690 *
*    I     229     -0.00133443   0.00233092  -0.00481297 *
*    I     230     -0.00268327  -0.00001308   0.00481130 *
*    I     231      0.00133046   0.00230036   0.00481701 *
*    I     232      0.00132288  -0.00233920   0.00481454 *
*    Cr    233     -0.00001792   0.00000359  -0.00000194 *
*    Cr    234     -0.00003068  -0.00000664  -0.00000130 *
*    I     235      0.00269392   0.00001958  -0.00481364 *
*    I     236     -0.00132424  -0.00229950  -0.00481701 *
*    I     237     -0.00133204   0.00233876  -0.00481627 *
*    I     238     -0.00268755  -0.00001127   0.00481684 *
*    I     239      0.00133122   0.00229795   0.00481674 *
*    I     240      0.00133406  -0.00233682   0.00481636 *
*    Cr    241      0.00000528  -0.00003928  -0.00000241 *
*    Cr    242     -0.00002037  -0.00001233  -0.00000230 *
*    I     243      0.00268796   0.00001716  -0.00481619 *
*    I     244     -0.00132203  -0.00230202  -0.00482151 *
*    I     245     -0.00133820   0.00233346  -0.00481317 *
*    I     246     -0.00268900  -0.00001563   0.00481840 *
*    I     247      0.00133515   0.00230046   0.00482140 *
*    I     248      0.00132270  -0.00233994   0.00481566 *
*    Cr    249      0.00000112  -0.00003100  -0.00000220 *
*    Cr    250     -0.00002820  -0.00001365  -0.00000185 *
*    I     251      0.00268818   0.00002640  -0.00481632 *
*    I     252     -0.00131625  -0.00229718  -0.00482028 *
*    I     253     -0.00133471   0.00233444  -0.00481808 *
*    I     254     -0.00268399  -0.00000340   0.00481570 *
*    I     255      0.00133670   0.00229779   0.00481874 *
*    I     256      0.00132666  -0.00233353   0.00481745 *
*    Cr    257     -0.00000516  -0.00001107  -0.00000242 *
*    Cr    258     -0.00003235  -0.00000636  -0.00000347 *
*    I     259      0.00269334   0.00002359  -0.00481860 *
*    I     260     -0.00132020  -0.00229922  -0.00482403 *
*    I     261     -0.00133271   0.00233587  -0.00481994 *
*    I     262     -0.00268690  -0.00001185   0.00482148 *
*    I     263      0.00133356   0.00230043   0.00482140 *
*    I     264      0.00132644  -0.00234116   0.00481841 *
*    Cr    265      0.00001011  -0.00003162  -0.00000148 *
*    Cr    266      0.00001152  -0.00001284  -0.00000185 *
*    I     267      0.00269119   0.00001841  -0.00481532 *
*    I     268     -0.00132326  -0.00230205  -0.00482091 *
*    I     269     -0.00133814   0.00234085  -0.00481773 *
*    I     270     -0.00269006  -0.00001125   0.00481527 *
*    I     271      0.00133206   0.00230001   0.00482081 *
*    I     272      0.00132856  -0.00233881   0.00482081 *
*    Cr    273      0.00001081  -0.00003171  -0.00000358 *
*    Cr    274     -0.00000593  -0.00000993  -0.00000228 *
*    I     275      0.00268945   0.00002598  -0.00481987 *
*    I     276     -0.00132052  -0.00229888  -0.00482406 *
*    I     277     -0.00133868   0.00233566  -0.00481661 *
*    I     278     -0.00269086  -0.00000997   0.00481839 *
*    I     279      0.00133536   0.00229921   0.00482142 *
*    I     280      0.00132021  -0.00233900   0.00481947 *
*    Cr    281      0.00000643  -0.00000921  -0.00000006 *
*    Cr    282     -0.00001185  -0.00000075   0.00000020 *
*    I     283      0.00269305   0.00002652  -0.00482318 *
*    I     284     -0.00132288  -0.00230071  -0.00482358 *
*    I     285     -0.00133206   0.00233977  -0.00482172 *
*    I     286     -0.00269156  -0.00001127   0.00482256 *
*    I     287      0.00133083   0.00229658   0.00482354 *
*    I     288      0.00132666  -0.00234118   0.00482090 *
*                                                        *
**********************************************************
* TOTAL:            0.00000000   0.00000000  -0.00000000 *
**********************************************************
 
 
***********************************************************
********** Summary of Forces (values in Eh/a) *************
*                                                         *
* ---------------------- Minimum ------------------------ *
* Atom:       193, |F|min =    0.00000157                 *
* Components:     Fx|min       Fy|min       Fz|min        *
*              -0.00000018  -0.00000143   0.00000063      *
*                                                         *
* ---------------------- Maximum ------------------------ *
* Atom:       136, |F|max =    0.00553099                 *
* Components:     Fx|max       Fy|max       Fz|max        *
*               0.00133221  -0.00234733   0.00482774      *
*                                                         *
* ---------------- Root Mean Square Force --------------- *
*                  |F|rms =    0.00477410                 *
* Components:     Fx|rms       Fy|rms       Fz|rms        *
*               0.00164129   0.00164025   0.00417227      *
***********************************************************
 

------------------------------ TIMING INFORMATION ------------------------------
AVERAGE TIME:    2150.195s on     56 proc(s)                                    
TOTAL TIME:      2150.195s on     56 proc(s)                                    
==================== AVERAGE TIMINGS FROM ALL PROCS (CUMULATIVE) =====================
|| TAG                                         #calls     cpu time   %total  Gflops ||
|| hash_table_free                            :     3        0.00s   0.000%  ------ ||
|| hubbard_species_proj                       :     1        0.00s   0.000%  ------ ||
|| onetep.F90 main loop imbalance             :     1        0.00s   0.000%  ------ ||
|| hubbard_ngwf_on_grid                       :     1        0.00s   0.000%  ------ ||
|| density_fftbox_interp_mult_imbal           :  1122        0.00s   0.000%  ------ ||
|| linalg_invert_sym_matrix                   :     4        0.01s   0.000%  ------ || (1 procs only)
|| sw_bessel_init_cpu                         :     1        0.01s   0.001%  ------ || (1 procs only)
|| hubbard_tensorial_correction               :     2        0.00s   0.000%  ------ ||
|| hubbard_ngwf_select                        :     1        0.00s   0.000%  ------ ||
|| hubbard_projector_character                :     1        0.00s   0.000%  ------ ||
|| ewald_calculate_forces_realspace           :     1        0.00s   0.000%  ------ ||
|| onetep.F90 final imbalance                 :     1        0.00s   0.000%  ------ ||
|| sparse_set_to_garbage                      :    58        0.01s   0.000%  ------ ||
|| paw_dij_hartree                            :    17        0.01s   0.000%  ------ ||
|| sparse_blacstospam3_real_fast_imbal        :    24        0.01s   0.000%  ------ ||
|| hubbard_projection_mtx                     :     5        0.02s   0.001%  ------ ||
|| sparse_spam3toblacs_real_fast_B2           :   560        0.02s   0.001%  ------ ||
|| linalg_dgemv                               :    32        0.02s   0.001%  ------ ||
|| sparse_spam3toblacs_real_fast_imbal        :    10        0.04s   0.002%  ------ ||
|| hubbard_projector_ham                      :     7        0.05s   0.002%  ------ ||
|| ewald_calculate_energy                     :     1        0.05s   0.003%  ------ ||
|| ewald_calculate_forces_recipspace          :     1        0.06s   0.003%  ------ ||
|| ewald_calculate_forces                     :     1        0.06s   0.003%  ------ ||
|| hubbard_ham_matrix                         :     7        0.07s   0.003%  ------ ||
|| paw_tcore_hartree_on_grid                  :     1        0.10s   0.005%  ------ ||
|| hubbard_energy_total                       :    13        0.11s   0.005%  ------ ||
|| sw_init                                    :    34        0.11s   0.005%  ------ ||
|| restart_kernel_write                       :     1        0.15s   0.007%  ------ ||
|| pseudo_make_structure_factor               :     1        0.15s   0.007%  ------ ||
|| sparse_spam3toblacs_real_fast_B1           :   560        0.23s   0.011%  ------ ||
|| basis_extract_function_from_box            :   385        0.24s   0.011%  ------ ||
|| sparse_spam3toblacs_real_fast              :    10        0.34s   0.016%  ------ ||
|| augmentation_density_forces                :     1        0.37s   0.017%  ------ ||
|| sparse_init                                :     1        0.40s   0.019%  ------ ||
|| paw_tcore_hartree_calc_forces              :     1        0.68s   0.032%  ------ ||
|| sparse_trace                               :   432        0.71s   0.033%  ------ ||
|| dense_eigensolve                           :     2        0.72s   0.033%  ------ ||
|| kernel_fix                                 :     5        0.74s   0.034%  ------ ||
|| sparse_embed_array_hotelling_invert        :     3        0.85s   0.040%  ------ ||
|| lnv_gradient_norm                          :     5        0.90s   0.042%  ------ ||
|| kernel_purify                              :    19        0.98s   0.045%  ------ ||
|| restart_kernel_read                        :     1        1.20s   0.056%  ------ ||
|| restart_hamiltonian_write                  :     1        1.32s   0.061%  ------ ||
|| sparse_blacstospam3_real_fast              :    24        1.36s   0.063%  ------ ||
|| paw_tcore_density                          :     1        1.79s   0.083%  ------ ||
|| ngwf_gradient_coeffs                       :     2        1.79s   0.083%  ------ ||
|| fourier_filter_cell                        :    24        1.89s   0.088% 140.973 ||
|| hartree_on_grid_single                     :    15        1.97s   0.092%  ------ ||
|| paw_dataset_init                           :     2        2.15s   0.100%  ------ ||
|| paw_nlcc_calculate_forces                  :     1        2.23s   0.103%  ------ ||
|| paw_sphere_density_on_grid                 :     1        2.78s   0.129%  ------ ||
|| fourier_interpolate_cell                   :    34        2.86s   0.133% 132.205 ||
|| fourier_apply_box_pair                     :   388        2.98s   0.139%  1.771k ||
|| nonsc_forces_ngwfs_calc                    :     1        3.09s   0.144%  ------ ||
|| basis_copy_function_to_box                 :  2828        3.55s   0.165%  ------ ||
|| augmentation_screen_dij_spam3              :    16        5.29s   0.246%  ------ ||
|| paw_species_calc_proj_prec_mat             :     1        5.83s   0.271%  ------ ||
|| aug_nonlocal_mat_spam3_embed_array         :    14        7.17s   0.334%  ------ ||
|| sparse_product                             :  1108        7.49s   0.348%  ------ ||
|| paw_dij_xc                                 :    17        8.34s   0.388%  ------ ||
|| fourier_apply_cell_backward                :   136        9.06s   0.421% 149.901 ||
|| fourier_apply_cell_forward                 :   136        9.26s   0.431% 146.662 ||
|| hubbard_calculate_forces                   :     1       10.47s   0.487%  ------ ||
|| aug_density_on_grid_spam3                  :    17       12.34s   0.574%  ------ ||
|| energy_and_force_init_cell                 :     1       12.83s   0.597%  ------ ||
|| fourier_filter                             :   424       13.36s   0.621%  ------ ||
|| integrals_grad_spam3                       :     4       13.54s   0.630%  ------ ||
|| cell_grid_deposit_box_real                 :  2136       17.26s   0.803%  ------ ||
|| xc_energy_potential                        :    15       20.42s   0.950%  ------ ||
|| fourier_interpolate                        :   424       20.77s   0.966%  ------ ||
|| projectors_init_fftbox_recip               :    61       21.87s   1.017%  ------ ||
|| restart_ngwfs_tightbox_input               :     2       22.97s   1.068%  ------ ||
|| function_ops_brappd_ketppd_spam3           :    16       28.57s   1.329%  ------ ||
|| restart_ngwfs_tightbox_output              :     2       31.08s   1.445%  ------ ||
|| eigenstates_calculate                      :     1       36.75s   1.709%  ------ ||
|| projectors_func_grad_ovlp_box_spam3        :     6       39.08s   1.817%  ------ ||
|| aug_nl_calculate_forces                    :     1       40.10s   1.865%  ------ ||
|| density_fftbox_deposit_to_cell             :  1122       44.22s   2.056%  ------ ||
|| integrals_kinetic_spam3                    :     6       50.00s   2.326%  ------ ||
|| hubbard_projector_update                   :     1       55.25s   2.569%  ------ ||
|| projectors_func_ovlp_box_spam3             :    18       63.28s   2.943%  ------ ||
|| basis_dot_function_with_box                : 853.0k      89.29s   4.153%  ------ ||
|| hamiltonian_energy_components              :     1       96.01s   4.465%  ------ ||
|| potential_apply_to_ngwf_batch              :    56      102.46s   4.765%  ------ ||
|| forces_calculate                           :     1      123.93s   5.764%  ------ ||
|| projectors_gradient_batch                  :    24      129.85s   6.039%  ------ ||
|| fourier_apply_box                          :  7058      145.99s   6.790%  2.049k ||
|| fourier_interpolate_product                :  1092      153.08s   7.120%  ------ ||
|| density_fftbox_interpolate_multiply        :  1122      160.78s   7.477%  ------ ||
|| integrals_locpot_mat_els_batch             :    56      160.97s   7.486%  ------ ||
|| basis_add_function_to_box                  : 1.473M     176.61s   8.214%  ------ ||
|| cell_grid_extract_box_real                 :  1002      249.72s  11.614%  ------ ||
|| projectors_grad_precond_batch              :    12      258.17s  12.007%  ------ ||
|| integrals_locpot_dbl_grid                  :    20      263.57s  12.258%  ------ ||
|| density_batch_interp_deposit               :   102      274.51s  12.767%  ------ ||
|| density_batch_row_sums                     :   102      283.04s  13.163%  ------ ||
|| ngwf_gradient_build_batch                  :    12      431.26s  20.057%  ------ ||
|| hamiltonian_lhxc_calculate                 :    13      468.25s  21.777%  ------ ||
|| properties_calculate                       :     1      471.65s  21.935%  ------ ||
|| lnv_denskernel_optimise_cg                 :     1      478.53s  22.255%  ------ ||
|| density_on_dbl_grid                        :    34      562.03s  26.139%  ------ ||
|| ngwf_gradient_batch                        :    12      618.87s  28.782%  ------ ||
|| ngwf_gradient_lnv                          :     2      628.58s  29.234%  ------ ||
|| ngwf_cg_optimise                           :     1     1413.20s  65.724%  ------ ||
|| energy_and_forces                          :     1     2136.02s  99.341%  ------ ||
|| total_time                                 :     1     2150.19s 100.000%  ------ ||
======================================================================================
Overhead of generating timer report: 
- 0 ms averaging over threads,
- 4 ms ensuring consistency across MPI ranks,
- 1 ms printing in order.

Job completed: 02-10-2024 12:52 (+0100)

onetep_launcher: ONETEP seems to have finished correctly (zero exit code).
                 Brought to you by PID 200834 on nid004350.
