==================================================================================
It's Mon 21 Oct 2024 04:13:07 PM BST.
*** Starting onetep_launcher (node nid001310, PIDs 247382 247383 247384 247385 247386 247387 247388 247389)...
    - ONETEP arguments: U_-0.1_0.dat
    - Current directory: /mnt/lustre/a2fs-work3/work/e89/e89/phsmea/U_det_2/U_-0.1_0
    - Launcher executable directory: /mnt/lustre/a2fs-work3/work/e89/e89/phsmea/U_det_2/U_-0.1_0
    - (-e) ONETEP executable specified through command-line: /work/e89/e89/phsmea/onetep.archer2_2024_cray
      ... trying /work/e89/e89/phsmea/onetep.archer2_2024_cray
          -> looks OK
*** Setting up environment...
    - (-s) Process stack size: unlimited
    - (-t) OMP_NUM_THREADS: 16
    - (-o) OMP_STACKSIZE: 64M
    - (-c) Maximum core file size: 2048000
    - (-d) decfort_dump_flag: n
    - (-m) I_MPI_OFA_TRANSLATION_CACHE: 0
    - (-m) I_MPI_DAPL_TRANSLATION_CACHE: 0
    - (-m) I_MPI_DAPL_UD_TRANSLATION_CACHE: 0
*** Starting ONETEP...
    - /work/e89/e89/phsmea/onetep.archer2_2024_cray U_-0.1_0.dat
=================================================================================
_________________________________________________________________________________
 +---------------------------------------------------------------+
 |                                                               |
 |        ####### #     # ####### ####### ####### ######         |
 |        #     # ##    # #          #    #       #     #        |
 |        #     # # #   # #          #    #       #     #        |
 |        #     # #  #  # #####      #    #####   ######         |
 |        #     # #   # # #          #    #       #              |
 |        #     # #    ## #          #    #       #              |
 |        ####### #     # #######    #    ####### #              |
 |                                                               |
 |        Linear-Scaling Ab Initio Total Energy Program          |
 |                                                               |
 |          Release for academic collaborators of ODG            |
 |                                             Version 7.3.0     |
 | Remote: git@github.com:Miesaz/onetep_mea.git                  |
 | Local branch: master                                          |
 | Commit ID: 4af45e89288c8df5499704252eec3e032ee3d0c8           |
 | Date: Tue Aug 6 11:28:44 2024 +0100                           |
 | Working tree clean                                            |
 |                                                               |
 +---------------------------------------------------------------+
 |                                                               |
 |  Authors:                                                     |
 |  Jacek Dziedzic, Peter D. Haynes, Nicholas D. M. Hine,        |
 |  Arash A. Mostofi, Mike C. Payne and Chris-Kriton Skylaris    |
 |                                                               |
 |  Contributors:                                                |
 |  J. Aarons, L. Andrinopoulos, P. W. Avraam, R. A. Bell,       |
 |  A. Bhandari, G. A. Bramley, R. J. Charlton, S. J. Clark,     |
 |  R. J. Clements, G. C. Constantinescu, F. Corsetti,           |
 |  N. Corsini, O. Dieguez, S. M. M. Dubois, K. K. B. Duff,      |
 |  J. M. Escartin, M. Escobar Azor, A. Greco,                   |
 |  H. Helal, Q. O. Hill, L. P. Lee, J.-H. Li,                   |
 |  T. Li, E. B. Linscott, G. Moynihan, D. D. O`Regan,           |
 |  O. K. Okan, E. Parkinson, M. J. S. Phipps,                   |
 |  C. J. Pickard, J. C. A. Prentice, M. I. J. Probert,          |
 |  L. E. Ratcliff, M. Robinson, A. Ruiz Serrano,                |
 |  M. dos Santos Dias, J. S. Spencer, E. W. Tait,               |
 |  G. Teobaldi, D. Turban, V. Vitale, K. A. Wilkinson,          |
 |  C. Weber, J. C. Womack, Chengcheng Xiao, N. Yeung,           |
 |  and T. J. Zuehlsdorff.                                       |
 |                                                               |
 |                                   Copyright (c) 2004-2024     |
 |                                                               |
 |  Please cite:                                                 |
 |  "The ONETEP linear-scaling density functional theory program"|
 |   J. Chem. Phys. 152(17) 174111 (2020)                        |
 |                                                               |
 |          in all publications arising from your use of ONETEP. |
 |                                                               |
 +---------------------------------------------------------------+
 |                                                               |
 |   ONETEP is based on developments described in the following  |
 |   publications:                                               |
 |                                                               |
 |  "Nonorthogonal generalized Wannier function pseudopotential  |
 |   plane-wave method".                                         |
 |   C.-K. Skylaris, A. A. Mostofi, P. D. Haynes, O. Dieguez,    |
 |   M. C. Payne.                                                |
 |   Phys. Rev. B 66 035119 (2002).                              |
 |                                                               |
 |  "Preconditioned iterative minimization for linear-scaling    |
 |   electronic structure calculations".                         |
 |   A. A. Mostofi, P. D. Haynes, C.-K. Skylaris, M. C. Payne.   |
 |   J. Chem. Phys. 119(17), pp.8842-8848 (2003).                |
 |                                                               |
 |  "Total-energy calculations on a real space grid with         |
 |   localized functions and a plane-wave basis".                |
 |   A. A. Mostofi, C.-K. Skylaris, P. D. Haynes, M. C. Payne.   |
 |   Comput. Phys. Commun. 147, pp.788-802 (2002).               |
 |                                                               |
 |  "Accurate kinetic energy evaluation in electronic structure  |
 |   calculations with localized functions on real space grids"  |
 |   C.-K. Skylaris, A. A. Mostofi, P. D. Haynes, C. J. Pickard, |
 |   M. C. Payne.                                                |
 |   Comput. Phys. Commun. 140, pp.315-322 (2001).               |
 |                                                               |
 |  "Accurate ionic forces and geometry optimization in linear-  |
 |   scaling density-functional theory with local orbitals"      |
 |   N. D. M. Hine, M. Robinson, P. D. Haynes, C.-K. Skylaris,   |
 |   M. C. Payne, and A. A. Mostofi.                             |
 |   Phys. Rev. B 83 195102 (2011).                              |
 |                                                               |
 +---------------------------------------------------------------+

Job started: 21-10-2024 16:13 (+0100)
 
Reading parameters from file "U_-0.1_0.dat" ...
WARNING in get_rundat: hubbard_calculating_u is TRUE, so do_properties will be
overridden to TRUE.
... done

If your calculation crashes here, before "Checking processes and threads..."
is displayed, then your stack size is insufficient.
If so, use "ulimit -s unlimited" at runtime.
You can disable this check with "check_stack_size F".

Checking processes and threads...
   Running with 56 MPI processes.
   There are 8 MPI processes running on the same node as the root process.
   Each MPI process is using: 
               1 threads for simulation cell FFTs.
               1 threads for threaded FFT box operations.
              16 threads for loops over batched FFT box operations.
              16 threads in other parallel regions.
   MPI Interface: S1 (use mpi_f08) (-DMPI -DUSE_MPI_F08).
   MPI_ASYNC_PROTECTS_NONBLOCKING: Yes. MPI_SUBARRAYS_SUPPORTED: Yes.
   FFTW Interface: OMP-capable and MODERN. (-DUSE_MODERN_FFTW specified).
   GPU Interface: None.
   GPU FFT Backend: None.
... done

Basic input checks...... done

Reading geometry and species blocks from file "U_-0.1_0.dat" ...... done


--------------------------------------------------------------------------------
---------------------------------- INPUT FILE ----------------------------------
--------------------------------------------------------------------------------

charge : 0                                                                      
cutoff_energy : 1000 eV                                                         
do_properties : T                                                               
edft : F                                                                        
edft_init_maxit : 5                                                             
elec_energy_tol : 2e-07 Ha                                                      
fine_grid_scale : 4                                                             
forces_output_detail : VERBOSE                                                  
hubbard_calculating_u : T                                                       
maxit_ngwf_cg : 40                                                              
ngwf_threshold_orig : 1e-06                                                     
output_detail : BRIEF                                                           
paw : T                                                                         
spin_polarized : T                                                              
ngwfs_spin_polarized : T                                                        
read_denskern : F                                                               
read_hamiltonian : F                                                            
read_tightbox_ngwfs : F                                                         
spin : 216                                                                      
task : SinglePoint                                                              
write_denskern : T                                                              
write_forces : T                                                                
write_hamiltonian : T                                                           
write_tightbox_ngwfs : T                                                        
xc_functional : PBE                                                             
%BLOCK LATTICE_CART                                                             
ang                                                                             
41.261892132    0.000000000     0.000000000                                     
-20.630946066   35.733846792     0.000000000                                    
0.0000000000    0.000000000    17.192455055                                     
%ENDBLOCK LATTICE_CART                                                          
%BLOCK POSITIONS_ABS                                                            
ang                                                                             
Cr       3.43849101       1.98521371       9.03176873                           
Cr       0.00000000       3.97042742       9.03176919                           
I        4.42260340      -0.00001318       7.48054615                           
I        1.22717790       2.12556082       7.48054615                           
I       -2.21129029       3.83009349       7.48054615                           
I        2.45437873      -0.00001140      10.58299027                           
I        2.21129177       3.83009250      10.58299027                           
I       -1.22717949       2.12556004      10.58299027                           
Cr       0.00000000       7.94085485       9.03176873                           
Cr      -3.43849101       9.92606855       9.03176919                           
I        0.98411239       5.95562795       7.48054615                           
I       -2.21131311       8.08120195       7.48054615                           
I       -5.64978130       9.78573462       7.48054615                           
I       -0.98411228       5.95562973      10.58299027                           
I       -1.22719924       9.78573363      10.58299027                           
I       -4.66567050       8.08120117      10.58299027                           
Cr      -3.43849101      13.89649598       9.03176873                           
Cr      -6.87698202      15.88170968       9.03176919                           
I       -2.45437862      11.91126909       7.48054615                           
I       -5.64980412      14.03684309       7.48054615                           
I       -9.08827231      15.74137575       7.48054615                           
I       -4.42260329      11.91127086      10.58299027                           
I       -4.66569025      15.74137476      10.58299027                           
I       -8.10416151      14.03684230      10.58299027                           
Cr      10.31547303       1.98521371       9.03176873                           
Cr       6.87698202       3.97042742       9.03176919                           
I       11.29958542      -0.00001318       7.48054615                           
I        8.10415992       2.12556082       7.48054615                           
I        4.66569173       3.83009349       7.48054615                           
I        9.33136075      -0.00001140      10.58299027                           
I        9.08827380       3.83009250      10.58299027                           
I        5.64980253       2.12556004      10.58299027                           
Cr       6.87698202       7.94085485       9.03176873                           
Cr       3.43849101       9.92606855       9.03176919                           
I        7.86109441       5.95562795       7.48054615                           
I        4.66566891       8.08120195       7.48054615                           
I        1.22720072       9.78573462       7.48054615                           
I        5.89286974       5.95562973      10.58299027                           
I        5.64978278       9.78573363      10.58299027                           
I        2.21131152       8.08120117      10.58299027                           
Cr       3.43849101      13.89649598       9.03176873                           
Cr       0.00000000      15.88170968       9.03176919                           
I        4.42260340      11.91126909       7.48054615                           
I        1.22717790      14.03684309       7.48054615                           
I       -2.21129029      15.74137575       7.48054615                           
I        2.45437873      11.91127086      10.58299027                           
I        2.21129177      15.74137476      10.58299027                           
I       -1.22717949      14.03684230      10.58299027                           
Cr      17.19245505       1.98521371       9.03176873                           
Cr      13.75396404       3.97042742       9.03176919                           
I       18.17656744      -0.00001318       7.48054615                           
I       14.98114195       2.12556082       7.48054615                           
I       11.54267375       3.83009349       7.48054615                           
I       16.20834277      -0.00001140      10.58299027                           
I       15.96525582       3.83009250      10.58299027                           
I       12.52678455       2.12556004      10.58299027                           
Cr      13.75396404       7.94085485       9.03176873                           
Cr      10.31547303       9.92606855       9.03176919                           
I       14.73807643       5.95562795       7.48054615                           
I       11.54265094       8.08120195       7.48054615                           
I        8.10418274       9.78573462       7.48054615                           
I       12.76985176       5.95562973      10.58299027                           
I       12.52676481       9.78573363      10.58299027                           
I        9.08829354       8.08120117      10.58299027                           
Cr      10.31547303      13.89649598       9.03176873                           
Cr       6.87698202      15.88170968       9.03176919                           
I       11.29958542      11.91126909       7.48054615                           
I        8.10415992      14.03684309       7.48054615                           
I        4.66569173      15.74137575       7.48054615                           
I        9.33136075      11.91127086      10.58299027                           
I        9.08827380      15.74137476      10.58299027                           
I        5.64980253      14.03684230      10.58299027                           
Cr      -6.87698202      19.85213711       9.03176873                           
Cr     -10.31547303      21.83735082       9.03176919                           
I       -5.89286963      17.86691022       7.48054615                           
I       -9.08829513      19.99248422       7.48054615                           
I      -12.52676332      21.69701689       7.48054615                           
I       -7.86109430      17.86691200      10.58299027                           
I       -8.10418126      21.69701590      10.58299027                           
I      -11.54265252      19.99248344      10.58299027                           
Cr     -10.31547303      25.80777825       9.03176873                           
Cr     -13.75396404      27.79299195       9.03176919                           
I       -9.33136064      23.82255135       7.48054615                           
I      -12.52678614      25.94812535       7.48054615                           
I      -15.96525433      27.65265802       7.48054615                           
I      -11.29958531      23.82255313      10.58299027                           
I      -11.54267227      27.65265703      10.58299027                           
I      -14.98114353      25.94812457      10.58299027                           
Cr     -13.75396404      31.76341938       9.03176873                           
Cr     -17.19245505      33.74863308       9.03176919                           
I      -12.76985165      29.77819249       7.48054615                           
I      -15.96527715      31.90376649       7.48054615                           
I      -19.40374534      33.60829915       7.48054615                           
I      -14.73807632      29.77819426      10.58299027                           
I      -14.98116328      33.60829816      10.58299027                           
I      -18.41963454      31.90376570      10.58299027                           
Cr      -0.00000000      19.85213711       9.03176873                           
Cr      -3.43849101      21.83735082       9.03176919                           
I        0.98411239      17.86691022       7.48054615                           
I       -2.21131311      19.99248422       7.48054615                           
I       -5.64978130      21.69701689       7.48054615                           
I       -0.98411228      17.86691200      10.58299027                           
I       -1.22719923      21.69701590      10.58299027                           
I       -4.66567050      19.99248344      10.58299027                           
Cr      -3.43849101      25.80777825       9.03176873                           
Cr      -6.87698202      27.79299195       9.03176919                           
I       -2.45437862      23.82255135       7.48054615                           
I       -5.64980412      25.94812535       7.48054615                           
I       -9.08827231      27.65265802       7.48054615                           
I       -4.42260329      23.82255313      10.58299027                           
I       -4.66569025      27.65265703      10.58299027                           
I       -8.10416151      25.94812457      10.58299027                           
Cr      -6.87698202      31.76341938       9.03176873                           
Cr     -10.31547303      33.74863308       9.03176919                           
I       -5.89286963      29.77819249       7.48054615                           
I       -9.08829513      31.90376649       7.48054615                           
I      -12.52676332      33.60829915       7.48054615                           
I       -7.86109430      29.77819426      10.58299027                           
I       -8.10418126      33.60829816      10.58299027                           
I      -11.54265252      31.90376570      10.58299027                           
CrU       6.87698202      19.85213711       9.03176873                          
Cr       3.43849101      21.83735082       9.03176919                           
I        7.86109441      17.86691022       7.48054615                           
I        4.66566892      19.99248422       7.48054615                           
I        1.22720072      21.69701689       7.48054615                           
I        5.89286974      17.86691200      10.58299027                           
I        5.64978279      21.69701590      10.58299027                           
I        2.21131152      19.99248344      10.58299027                           
Cr       3.43849101      25.80777825       9.03176873                           
Cr      -0.00000000      27.79299195       9.03176919                           
I        4.42260340      23.82255135       7.48054615                           
I        1.22717791      25.94812535       7.48054615                           
I       -2.21129029      27.65265802       7.48054615                           
I        2.45437873      23.82255313      10.58299027                           
I        2.21129178      27.65265703      10.58299027                           
I       -1.22717949      25.94812457      10.58299027                           
Cr      -0.00000000      31.76341938       9.03176873                           
Cr      -3.43849101      33.74863308       9.03176919                           
I        0.98411239      29.77819249       7.48054615                           
I       -2.21131311      31.90376649       7.48054615                           
I       -5.64978130      33.60829915       7.48054615                           
I       -0.98411228      29.77819426      10.58299027                           
I       -1.22719923      33.60829816      10.58299027                           
I       -4.66567050      31.90376570      10.58299027                           
Cr      24.06943708       1.98521371       9.03176873                           
Cr      20.63094607       3.97042742       9.03176919                           
I       25.05354947      -0.00001318       7.48054615                           
I       21.85812397       2.12556082       7.48054615                           
I       18.41965578       3.83009349       7.48054615                           
I       23.08532480      -0.00001140      10.58299027                           
I       22.84223784       3.83009250      10.58299027                           
I       19.40376658       2.12556004      10.58299027                           
Cr      20.63094607       7.94085485       9.03176873                           
Cr      17.19245506       9.92606855       9.03176919                           
I       21.61505846       5.95562795       7.48054615                           
I       18.41963296       8.08120195       7.48054615                           
I       14.98116477       9.78573462       7.48054615                           
I       19.64683379       5.95562973      10.58299027                           
I       19.40374683       9.78573363      10.58299027                           
I       15.96527557       8.08120117      10.58299027                           
Cr      17.19245506      13.89649598       9.03176873                           
Cr      13.75396405      15.88170968       9.03176919                           
I       18.17656745      11.91126909       7.48054615                           
I       14.98114195      14.03684309       7.48054615                           
I       11.54267376      15.74137575       7.48054615                           
I       16.20834278      11.91127086      10.58299027                           
I       15.96525582      15.74137476      10.58299027                           
I       12.52678456      14.03684230      10.58299027                           
Cr      30.94641910       1.98521371       9.03176873                           
Cr      27.50792809       3.97042742       9.03176919                           
I       31.93053149      -0.00001318       7.48054615                           
I       28.73510599       2.12556082       7.48054615                           
I       25.29663780       3.83009349       7.48054615                           
I       29.96230682      -0.00001140      10.58299027                           
I       29.71921987       3.83009250      10.58299027                           
I       26.28074860       2.12556004      10.58299027                           
Cr      27.50792809       7.94085485       9.03176873                           
Cr      24.06943708       9.92606855       9.03176919                           
I       28.49204048       5.95562795       7.48054615                           
I       25.29661498       8.08120195       7.48054615                           
I       21.85814679       9.78573462       7.48054615                           
I       26.52381581       5.95562973      10.58299027                           
I       26.28072885       9.78573363      10.58299027                           
I       22.84225759       8.08120117      10.58299027                           
Cr      24.06943708      13.89649598       9.03176873                           
Cr      20.63094607      15.88170968       9.03176919                           
I       25.05354947      11.91126909       7.48054615                           
I       21.85812397      14.03684309       7.48054615                           
I       18.41965578      15.74137575       7.48054615                           
I       23.08532480      11.91127086      10.58299027                           
I       22.84223784      15.74137476      10.58299027                           
I       19.40376658      14.03684230      10.58299027                           
Cr      37.82340112       1.98521371       9.03176873                           
Cr      34.38491011       3.97042742       9.03176919                           
I       38.80751351      -0.00001318       7.48054615                           
I       35.61208802       2.12556082       7.48054615                           
I       32.17361982       3.83009349       7.48054615                           
I       36.83928884      -0.00001140      10.58299027                           
I       36.59620189       3.83009250      10.58299027                           
I       33.15773062       2.12556004      10.58299027                           
Cr      34.38491011       7.94085485       9.03176873                           
Cr      30.94641910       9.92606855       9.03176919                           
I       35.36902250       5.95562795       7.48054615                           
I       32.17359701       8.08120195       7.48054615                           
I       28.73512881       9.78573462       7.48054615                           
I       33.40079783       5.95562973      10.58299027                           
I       33.15771088       9.78573363      10.58299027                           
I       29.71923961       8.08120117      10.58299027                           
Cr      30.94641910      13.89649598       9.03176873                           
Cr      27.50792809      15.88170968       9.03176919                           
I       31.93053149      11.91126909       7.48054615                           
I       28.73510599      14.03684309       7.48054615                           
I       25.29663780      15.74137575       7.48054615                           
I       29.96230682      11.91127086      10.58299027                           
I       29.71921987      15.74137476      10.58299027                           
I       26.28074860      14.03684230      10.58299027                           
Cr      13.75396404      19.85213711       9.03176873                           
Cr      10.31547303      21.83735082       9.03176919                           
I       14.73807643      17.86691022       7.48054615                           
I       11.54265093      19.99248422       7.48054615                           
I        8.10418274      21.69701689       7.48054615                           
I       12.76985176      17.86691200      10.58299027                           
I       12.52676480      21.69701590      10.58299027                           
I        9.08829354      19.99248344      10.58299027                           
Cr      10.31547303      25.80777825       9.03176873                           
Cr       6.87698202      27.79299195       9.03176919                           
I       11.29958542      23.82255135       7.48054615                           
I        8.10415992      25.94812535       7.48054615                           
I        4.66569173      27.65265802       7.48054615                           
I        9.33136075      23.82255313      10.58299027                           
I        9.08827379      27.65265703      10.58299027                           
I        5.64980253      25.94812457      10.58299027                           
Cr       6.87698202      31.76341938       9.03176873                           
Cr       3.43849101      33.74863308       9.03176919                           
I        7.86109441      29.77819249       7.48054615                           
I        4.66566891      31.90376649       7.48054615                           
I        1.22720072      33.60829915       7.48054615                           
I        5.89286974      29.77819426      10.58299027                           
I        5.64978278      33.60829816      10.58299027                           
I        2.21131152      31.90376570      10.58299027                           
Cr      20.63094606      19.85213711       9.03176873                           
Cr      17.19245505      21.83735082       9.03176919                           
I       21.61505845      17.86691022       7.48054615                           
I       18.41963295      19.99248422       7.48054615                           
I       14.98116476      21.69701689       7.48054615                           
I       19.64683378      17.86691200      10.58299027                           
I       19.40374683      21.69701590      10.58299027                           
I       15.96527556      19.99248344      10.58299027                           
Cr      17.19245505      25.80777825       9.03176873                           
Cr      13.75396404      27.79299195       9.03176919                           
I       18.17656744      23.82255135       7.48054615                           
I       14.98114194      25.94812535       7.48054615                           
I       11.54267375      27.65265802       7.48054615                           
I       16.20834277      23.82255313      10.58299027                           
I       15.96525581      27.65265703      10.58299027                           
I       12.52678455      25.94812457      10.58299027                           
Cr      13.75396404      31.76341938       9.03176873                           
Cr      10.31547303      33.74863308       9.03176919                           
I       14.73807643      29.77819249       7.48054615                           
I       11.54265093      31.90376649       7.48054615                           
I        8.10418274      33.60829915       7.48054615                           
I       12.76985176      29.77819426      10.58299027                           
I       12.52676480      33.60829816      10.58299027                           
I        9.08829354      31.90376570      10.58299027                           
Cr      27.50792808      19.85213711       9.03176873                           
Cr      24.06943707      21.83735082       9.03176919                           
I       28.49204047      17.86691022       7.48054615                           
I       25.29661498      19.99248422       7.48054615                           
I       21.85814678      21.69701689       7.48054615                           
I       26.52381580      17.86691200      10.58299027                           
I       26.28072885      21.69701590      10.58299027                           
I       22.84225758      19.99248344      10.58299027                           
Cr      24.06943707      25.80777825       9.03176873                           
Cr      20.63094606      27.79299195       9.03176919                           
I       25.05354946      23.82255135       7.48054615                           
I       21.85812397      25.94812535       7.48054615                           
I       18.41965577      27.65265802       7.48054615                           
I       23.08532479      23.82255313      10.58299027                           
I       22.84223784      27.65265703      10.58299027                           
I       19.40376657      25.94812457      10.58299027                           
Cr      20.63094606      31.76341938       9.03176873                           
Cr      17.19245505      33.74863308       9.03176919                           
I       21.61505845      29.77819249       7.48054615                           
I       18.41963295      31.90376649       7.48054615                           
I       14.98116476      33.60829915       7.48054615                           
I       19.64683378      29.77819426      10.58299027                           
I       19.40374683      33.60829816      10.58299027                           
I       15.96527556      31.90376570      10.58299027                           
%ENDBLOCK POSITIONS_ABS                                                         
%BLOCK SPECIES                                                                  
Cr Cr 24 -1 15                                                                  
I   I  53 -1 15                                                                 
CrU Cr 24 -1 15                                                                 
%ENDBLOCK SPECIES                                                               
%BLOCK SPECIES_ATOMIC_SET                                                       
Cr  "SOLVE INIT SPIN=3"                                                         
I   "SOLVE"                                                                     
CrU "SOLVE INIT SPIN=3"                                                         
%ENDBLOCK SPECIES_ATOMIC_SET                                                    
%BLOCK HUBBARD                                                                  
CrU 2 0.0 0.0 -10.0 -0.10 0.0                                                   
%ENDBLOCK HUBBARD                                                               
%BLOCK SPECIES_LDOS_GROUPS                                                      
Cr                                                                              
I                                                                               
CrU                                                                             
%ENDBLOCK SPECIES_LDOS_GROUPS                                                   
%BLOCK SPECIES_POT                                                              
Cr  "/work/e89/e89/phsmea/U_det/Cr.PBE-paw.abinit"                              
I   "/work/e89/e89/phsmea/U_det/I.PBE-paw.abinit"                               
CrU "/work/e89/e89/phsmea/U_det/Cr.PBE-paw.abinit"                              
%ENDBLOCK SPECIES_POT                                                           

--------------------------------------------------------------------------------
-------------------------------- END INPUT FILE --------------------------------
--------------------------------------------------------------------------------


 
 ESDF WARNING(1): "charge" (esdf_physical) has no units. Assume "e".
<<<<<<<<<<<<<<<<<<<<<<<<<<<<<<<<< Full system >>>>>>>>>>>>>>>>>>>>>>>>>>>>>>>>>>
<<<<<<<<<<<<<<<<<<<<<<<<<<< PAW Dataset information >>>>>>>>>>>>>>>>>>>>>>>>>>>
File: /work/e89/e89/phsmea/U_det/Cr.PBE-paw.abinit; rc = 2.11 bohr; shape type =  2; rshape = 1.80 bohr;
  Atomic number: 24;  ionic charge: 14.000000
    Partial Wave 1: l = 0
    Partial Wave 2: l = 0
    Partial Wave 3: l = 1
    Partial Wave 4: l = 1
    Partial Wave 5: l = 2
    Partial Wave 6: l = 2
  Core charge supplied for Nonlinear Core Corrections
File: /work/e89/e89/phsmea/U_det/I.PBE-paw.abinit; rc = 2.30 bohr; shape type =  2; rshape = 2.11 bohr;
  Atomic number: 53;  ionic charge:  7.000000
    Partial Wave 1: l = 0
    Partial Wave 2: l = 0
    Partial Wave 3: l = 1
    Partial Wave 4: l = 1
  Core charge supplied for Nonlinear Core Corrections
<<<<<<<<<<<<<<<<<<<<<<<<<<<<<<<<<<<<<<< >>>>>>>>>>>>>>>>>>>>>>>>>>>>>>>>>>>>>>>

-------------------------- Atom counting information ---------------------------
Symbol    Natoms    Nngwfs    Nprojs
  Cr        72       936      1296
  I        216       864      1728
.......   ......    ......    ......
Totals:    288      1800      3024
--------------------------------------------------------------------------------

=============================== PSINC grid sizes ===============================
                      Simulation cell:  175 x 175 x  75
                              FFT-box:  175 x 175 x  75
                                  PPD:    5 x   5 x   1
================================================================================

Atom SCF Calculation for Cr : Z (AE atom) =  24 : Z (PS atom) =  14
Config String: 3s2.0 3p6.0 3d5.0 4s1.0 4p0.0 INIT SPIN=3
Orbitals (num,occ):  5     2.00 6.00 5.00 1.00 0.00
Orbitals   (num,l):  5        0    1    2    0    1
Atom SCF converged after  64 iterations to a total energy of    -87.07044631
Adjusting orbital occupancies:
Orbitals (num,spin,occ):  5  1     1.00 3.00 3.50 1.00 0.00
Orbitals   (num,spin,l):  5  1        0    1    2    0    1
Orbitals (num,spin,occ):  5  2     1.00 3.00 1.00 0.50 0.00
Orbitals   (num,spin,l):  5  2        0    1    2    0    1

Atom SCF Calculation for I  : Z (AE atom) =  53 : Z (PS atom) =   7
Config String: 5s2.0 5p5.0
Orbitals (num,occ):  2     2.00 5.00
Orbitals   (num,l):  2        0    1
Atom SCF converged after  28 iterations to a total energy of    -11.61352964

Atom SCF Calculation for Cr : Z (AE atom) =  24 : Z (PS atom) =  14
Config String: 3s2.0 3p6.0 3d5.0 4s1.0 4p0.0 INIT SPIN=3
Orbitals (num,occ):  5     2.00 6.00 5.00 1.00 0.00
Orbitals   (num,l):  5        0    1    2    0    1
Atom SCF converged after  64 iterations to a total energy of    -87.07044631
Adjusting orbital occupancies:
Orbitals (num,spin,occ):  5  1     1.00 3.00 3.50 1.00 0.00
Orbitals   (num,spin,l):  5  1        0    1    2    0    1
Orbitals (num,spin,occ):  5  2     1.00 3.00 1.00 0.50 0.00
Orbitals   (num,spin,l):  5  2        0    1    2    0    1

Atom SCF Calculation for Cr : Z (AE atom) =  24 : Z (PS atom) =  14
Config String: 3s2.0 3p6.0 3d5.0 4s1.0 4p0.0 INIT SPIN=3
Orbitals (num,occ):  5     2.00 6.00 5.00 1.00 0.00
Orbitals   (num,l):  5        0    1    2    0    1
Atom SCF converged after  64 iterations to a total energy of    -87.07044631

Atom SCF Calculation for I  : Z (AE atom) =  53 : Z (PS atom) =   7
Config String: 5s2.0 5p5.0
Orbitals (num,occ):  2     2.00 5.00
Orbitals   (num,l):  2        0    1
Atom SCF converged after  28 iterations to a total energy of    -11.61352964

Atom SCF Calculation for Cr : Z (AE atom) =  24 : Z (PS atom) =  14
Config String: 3s2.0 3p6.0 3d5.0 4s1.0 4p0.0 INIT SPIN=3
Orbitals (num,occ):  5     2.00 6.00 5.00 1.00 0.00
Orbitals   (num,l):  5        0    1    2    0    1
Atom SCF converged after  64 iterations to a total energy of    -87.07044631
Calculating Ewald energy ...             6126.916246 Hartree

============================= Charge Augmentation ==============================
                           Aug box size:   49 x  49 x  45
================================================================================

================================= Core Density =================================
               Core den box size:  125 x 125 x 117
================================================================================
Density kernel initialisation

################################################################################
###################### NGWF self-consistent optimisation #######################
################################################################################
|ITER|    RMS GRADIENT   |     TOTAL ENERGY    |   step   |     Epredicted      
   0     0.00009869106353  -8812.34445176768531   2.349433  -8816.25373961843070        
   1     0.00006751921675  -8816.47330724726271   1.629135  -8817.81195313971875        
   2     0.00004160371990  -8817.84785906198704   1.808554  -8818.39685638399715        
   3     0.00002882767240  -8818.42110239846443   1.957827  -8818.71144954626652        
   4     0.00002025701035  -8818.71273596504216   1.139449  -8818.79261342603968        
   5     0.00001352708508  -8818.79276997008856   1.992285  -8818.85482389441677        
   6     0.00001151161269  -8818.85374107464668   1.751023  -8818.89252835024126        
   7     0.00000899906186  -8818.89108976174612   1.582094  -8818.91213239350691        
   8     0.00000728301193  -8818.91112871961195   0.930226  -8818.91955797746232        
   9     0.00000480698218  -8818.91934178771589   2.208118  -8818.92806761555221        
  10     0.00000453920276  -8818.92768704084119   1.604146  -8818.93308568587599        
  11     0.00000320404969  -8818.93271051266674   2.304152  -8818.93655445499826        
  12     0.00000401562128  -8818.93550729615345   0.966860  -8818.93817076717642        
  13     0.00000215073166  -8818.93814195726918   2.497116  -8818.94009253473450        
  14     0.00000232223067  -8818.93980538931282   2.529328  -8818.94178986568295        
  15     0.00000218530400  -8818.94061089844217   3.115242  -8818.94195594133453        
  16     0.00000392131458  -8818.93941923109742   0.753699  -8818.94139911588536        
  17     0.00000189970165  -8818.94139948448537   2.083490  -8818.94268142768306        
  18     0.00000153807540  -8818.94265290973453   1.492855  -8818.94327710902689        
  19     0.00000097641353  -8818.94317533011417   1.388826  -8818.94337827723211        
  20     0.00000067357078  -8818.94335488356774   1.323227  -8818.94345744393831        
  21     0.00000066679822  -8818.94343319539257   3.912974  -8818.94369277434089        
  22     0.00000122468539  -8818.94320141747266   1.289102  -8818.94353172247975        
  23     0.00000067948519  -8818.94351513611582   1.374253  -8818.94361895268412        
  24     0.00000055164065  -8818.94360784477976   1.900344  -8818.94370206083659        
  25     0.00000053008768  -8818.94364284167750   0.000008  -8818.94364284193944        

================================================================================
           ---------------- ENERGY COMPONENTS (Eh) ----------------
           | Kinetic                    :     1819.31673407730796 |
           | Core Hartree               :   -28372.52692652064800 |
           | CoreHart (non-coul chg cor):        0.00000000000000
           | Hartree                    :    13503.97154892870090 |
           | Exchange-correlation       :    -1248.29142938920518 |
           | Hubbard DFT+U correction   :       -0.02111369741398 |
           | Ewald                      :     6126.91624599049464 |
           | Dij0                       :     -555.67678640185829 |
           | Dijhartree                 :      248.94758751526996 |
           | Exc [AE core]              :   -42415.11150248869670 |
           | Exc DC [AE core]           :    -1638.58424961703349 |
           | Exc [PS core]              :    -1032.29206052330187 |
           | Exc DC [PS core]           :     -982.36499053059356 |
           | Exc [Core]                 :   -41041.23993575423080 |
           | Total [Sphere]             :     -648.30870509774832 |
           | Total                      :    -8818.94364570851212 |
           --------------------------------------------------------
           Integrated compensation chrg.:      189.14196423935789
           Integrated density           :     2519.99993594918669
           Integrated spin density      :      215.99995948309817
           Integrated |spin density|    :      164.21360509226295
================================================================================

  26     0.00000049374908  -8818.94364570850121  <-- CG                                 

################################################################################
DFT+U information on atom      1 of Hubbard species CrU 
################################################################################
Occupancy matrix of Hubbard site      1 and spin      1 is 
  m_l =   -2          -1           0           1           2
  0.89006921  0.14942102  0.00000138  0.00000079  0.00000310
  0.14945803  0.77291796 -0.00000209  0.00000332 -0.00000257
 -0.00000002 -0.00000002  0.99107210  0.00000027  0.00000011
  0.00000200  0.00000326 -0.00000088  0.77291485 -0.14945551
  0.00000304 -0.00000133 -0.00000066 -0.14941989  0.89007225
WARNING: DFT+U ENERGY of Hubbard site      1 and spin      1 is negative.
################################################################################
Occupancy matrix of Hubbard site      1 and spin      2 is 
  m_l =   -2          -1           0           1           2
  0.26372859 -0.13294826 -0.00000249  0.00000219  0.00000208
 -0.13297955  0.36909649  0.00000186  0.00000189 -0.00000085
 -0.00000109  0.00000001  0.16263205 -0.00000004  0.00000066
  0.00000114  0.00000194  0.00000098  0.36909419  0.13298094
  0.00000213 -0.00000194  0.00000143  0.13295086  0.26373170
WARNING: DFT+U ENERGY of Hubbard site      1 and spin      2 is negative.
################################################################################
Total occupancy of Hubbard site      1 is         5.74532941 e
Local magnetic moment of Hubbard site      1 is   2.88876336 mu_B
DFT+U energy of Hubbard site      1 is           -0.02111370 Ha
################################################################################

##### For calculating the Hubbard U and Hund J #################################
DFT+U information on Hubbard site      1 of species CrU  and spin      1
The average Hxc+local potential is            -18.98544048 eV.
The average Hubbard potential is               -0.10000000 eV.
The average non-local PAW contribution is     -10.91375737 eV.
################################################################################
DFT+U information on Hubbard site      1 of species CrU  and spin      2
The average Hxc+local potential is            -17.91964842 eV.
The average Hubbard potential is               -0.10000000 eV.
The average non-local PAW contribution is      -9.47145678 eV.
################################################################################

======================== Writing density and potential =========================
Writing "U_-0.1_0_ps_density.cube" ... done
Writing "U_-0.1_0_ps_spindensity.cube" ... done
Writing "U_-0.1_0_ae_density.cube" ... done
Writing "U_-0.1_0_ae_spindensity.cube" ... done
Writing "U_-0.1_0_potential.cube" ... done
Writing "U_-0.1_0_electrostatic_potential.cube" ... done
================================================================================

    Mulliken Atomic Populations
    ---------------------------
Species  Ion    Total   Charge (e)    Spin (hbar)
=================================================
  Cr     1      13.838      0.162      1.68
  Cr     2      13.835      0.165      1.68
  I      3       7.055     -0.055     -0.06
  I      4       7.054     -0.054     -0.06
  I      5       7.055     -0.055     -0.06
  I      6       7.054     -0.054     -0.06
  I      7       7.054     -0.054     -0.06
  I      8       7.054     -0.054     -0.06
  Cr     9      13.838      0.162      1.68
  Cr    10      13.835      0.165      1.68
  I     11       7.055     -0.055     -0.06
  I     12       7.054     -0.054     -0.06
  I     13       7.055     -0.055     -0.06
  I     14       7.055     -0.055     -0.06
  I     15       7.054     -0.054     -0.06
  I     16       7.054     -0.054     -0.06
  Cr    17      13.837      0.163      1.68
  Cr    18      13.836      0.164      1.68
  I     19       7.055     -0.055     -0.06
  I     20       7.054     -0.054     -0.06
  I     21       7.055     -0.055     -0.06
  I     22       7.055     -0.055     -0.06
  I     23       7.054     -0.054     -0.06
  I     24       7.054     -0.054     -0.06
  Cr    25      13.838      0.162      1.68
  Cr    26      13.835      0.165      1.68
  I     27       7.055     -0.055     -0.06
  I     28       7.054     -0.054     -0.06
  I     29       7.055     -0.055     -0.06
  I     30       7.054     -0.054     -0.06
  I     31       7.054     -0.054     -0.06
  I     32       7.055     -0.055     -0.06
  Cr    33      13.838      0.162      1.68
  Cr    34      13.835      0.165      1.68
  I     35       7.055     -0.055     -0.06
  I     36       7.054     -0.054     -0.06
  I     37       7.055     -0.055     -0.06
  I     38       7.054     -0.054     -0.06
  I     39       7.055     -0.055     -0.06
  I     40       7.054     -0.054     -0.06
  Cr    41      13.839      0.161      1.68
  Cr    42      13.837      0.163      1.68
  I     43       7.054     -0.054     -0.06
  I     44       7.054     -0.054     -0.06
  I     45       7.054     -0.054     -0.06
  I     46       7.054     -0.054     -0.06
  I     47       7.054     -0.054     -0.06
  I     48       7.054     -0.054     -0.06
  Cr    49      13.837      0.163      1.68
  Cr    50      13.836      0.164      1.68
  I     51       7.055     -0.055     -0.06
  I     52       7.054     -0.054     -0.06
  I     53       7.054     -0.054     -0.06
  I     54       7.054     -0.054     -0.06
  I     55       7.054     -0.054     -0.06
  I     56       7.054     -0.054     -0.06
  Cr    57      13.837      0.163      1.68
  Cr    58      13.836      0.164      1.68
  I     59       7.054     -0.054     -0.06
  I     60       7.054     -0.054     -0.06
  I     61       7.054     -0.054     -0.06
  I     62       7.054     -0.054     -0.06
  I     63       7.054     -0.054     -0.06
  I     64       7.054     -0.054     -0.06
  Cr    65      13.838      0.162      1.68
  Cr    66      13.838      0.162      1.68
  I     67       7.054     -0.054     -0.06
  I     68       7.054     -0.054     -0.06
  I     69       7.054     -0.054     -0.06
  I     70       7.054     -0.054     -0.06
  I     71       7.054     -0.054     -0.06
  I     72       7.054     -0.054     -0.06
  Cr    73      13.837      0.163      1.68
  Cr    74      13.836      0.164      1.68
  I     75       7.054     -0.054     -0.06
  I     76       7.054     -0.054     -0.06
  I     77       7.054     -0.054     -0.06
  I     78       7.055     -0.055     -0.06
  I     79       7.054     -0.054     -0.06
  I     80       7.055     -0.055     -0.06
  Cr    81      13.837      0.163      1.68
  Cr    82      13.835      0.165      1.68
  I     83       7.054     -0.054     -0.06
  I     84       7.054     -0.054     -0.06
  I     85       7.054     -0.054     -0.06
  I     86       7.054     -0.054     -0.06
  I     87       7.054     -0.054     -0.06
  I     88       7.055     -0.055     -0.06
  Cr    89      13.838      0.162      1.68
  Cr    90      13.835      0.165      1.68
  I     91       7.055     -0.055     -0.06
  I     92       7.054     -0.054     -0.06
  I     93       7.054     -0.054     -0.06
  I     94       7.054     -0.054     -0.06
  I     95       7.054     -0.054     -0.06
  I     96       7.055     -0.055     -0.06
  Cr    97      13.838      0.162      1.68
  Cr    98      13.837      0.163      1.68
  I     99       7.054     -0.054     -0.06
  I    100       7.054     -0.054     -0.06
  I    101       7.054     -0.054     -0.06
  I    102       7.054     -0.054     -0.06
  I    103       7.054     -0.054     -0.06
  I    104       7.054     -0.054     -0.06
  Cr   105      13.837      0.163      1.68
  Cr   106      13.837      0.163      1.68
  I    107       7.054     -0.054     -0.06
  I    108       7.054     -0.054     -0.06
  I    109       7.054     -0.054     -0.06
  I    110       7.054     -0.054     -0.06
  I    111       7.054     -0.054     -0.06
  I    112       7.054     -0.054     -0.06
  Cr   113      13.838      0.162      1.68
  Cr   114      13.835      0.165      1.68
  I    115       7.054     -0.054     -0.06
  I    116       7.054     -0.054     -0.06
  I    117       7.054     -0.054     -0.06
  I    118       7.054     -0.054     -0.06
  I    119       7.054     -0.054     -0.06
  I    120       7.055     -0.055     -0.06
  Cr   121      13.848      0.152      1.67
  Cr   122      13.838      0.162      1.68
  I    123       7.052     -0.052     -0.06
  I    124       7.052     -0.052     -0.06
  I    125       7.054     -0.054     -0.06
  I    126       7.052     -0.052     -0.06
  I    127       7.052     -0.052     -0.06
  I    128       7.054     -0.054     -0.06
  Cr   129      13.838      0.162      1.68
  Cr   130      13.837      0.163      1.68
  I    131       7.054     -0.054     -0.06
  I    132       7.054     -0.054     -0.06
  I    133       7.054     -0.054     -0.06
  I    134       7.054     -0.054     -0.06
  I    135       7.054     -0.054     -0.06
  I    136       7.054     -0.054     -0.06
  Cr   137      13.837      0.163      1.68
  Cr   138      13.836      0.164      1.68
  I    139       7.054     -0.054     -0.06
  I    140       7.054     -0.054     -0.06
  I    141       7.054     -0.054     -0.06
  I    142       7.054     -0.054     -0.06
  I    143       7.054     -0.054     -0.06
  I    144       7.054     -0.054     -0.06
  Cr   145      13.837      0.163      1.68
  Cr   146      13.836      0.164      1.68
  I    147       7.054     -0.054     -0.06
  I    148       7.054     -0.054     -0.06
  I    149       7.054     -0.054     -0.06
  I    150       7.055     -0.055     -0.06
  I    151       7.054     -0.054     -0.06
  I    152       7.054     -0.054     -0.06
  Cr   153      13.838      0.162      1.68
  Cr   154      13.836      0.164      1.68
  I    155       7.054     -0.054     -0.06
  I    156       7.054     -0.054     -0.06
  I    157       7.054     -0.054     -0.06
  I    158       7.054     -0.054     -0.06
  I    159       7.054     -0.054     -0.06
  I    160       7.054     -0.054     -0.06
  Cr   161      13.837      0.163      1.68
  Cr   162      13.837      0.163      1.68
  I    163       7.054     -0.054     -0.06
  I    164       7.054     -0.054     -0.06
  I    165       7.054     -0.054     -0.06
  I    166       7.054     -0.054     -0.06
  I    167       7.054     -0.054     -0.06
  I    168       7.054     -0.054     -0.06
  Cr   169      13.838      0.162      1.68
  Cr   170      13.836      0.164      1.68
  I    171       7.054     -0.054     -0.06
  I    172       7.054     -0.054     -0.06
  I    173       7.054     -0.054     -0.06
  I    174       7.055     -0.055     -0.06
  I    175       7.054     -0.054     -0.06
  I    176       7.054     -0.054     -0.06
  Cr   177      13.837      0.163      1.68
  Cr   178      13.836      0.164      1.68
  I    179       7.054     -0.054     -0.06
  I    180       7.054     -0.054     -0.06
  I    181       7.054     -0.054     -0.06
  I    182       7.054     -0.054     -0.06
  I    183       7.054     -0.054     -0.06
  I    184       7.054     -0.054     -0.06
  Cr   185      13.838      0.162      1.68
  Cr   186      13.836      0.164      1.68
  I    187       7.054     -0.054     -0.06
  I    188       7.054     -0.054     -0.06
  I    189       7.054     -0.054     -0.06
  I    190       7.054     -0.054     -0.06
  I    191       7.054     -0.054     -0.06
  I    192       7.054     -0.054     -0.06
  Cr   193      13.838      0.162      1.68
  Cr   194      13.835      0.165      1.68
  I    195       7.054     -0.054     -0.06
  I    196       7.054     -0.054     -0.06
  I    197       7.055     -0.055     -0.06
  I    198       7.055     -0.055     -0.06
  I    199       7.054     -0.054     -0.06
  I    200       7.054     -0.054     -0.06
  Cr   201      13.838      0.162      1.68
  Cr   202      13.836      0.164      1.68
  I    203       7.054     -0.054     -0.06
  I    204       7.054     -0.054     -0.06
  I    205       7.054     -0.054     -0.06
  I    206       7.055     -0.055     -0.06
  I    207       7.054     -0.054     -0.06
  I    208       7.054     -0.054     -0.06
  Cr   209      13.837      0.163      1.68
  Cr   210      13.836      0.164      1.68
  I    211       7.054     -0.054     -0.06
  I    212       7.054     -0.054     -0.06
  I    213       7.054     -0.054     -0.06
  I    214       7.054     -0.054     -0.06
  I    215       7.054     -0.054     -0.06
  I    216       7.054     -0.054     -0.06
  Cr   217      13.838      0.162      1.68
  Cr   218      13.838      0.162      1.68
  I    219       7.054     -0.054     -0.06
  I    220       7.054     -0.054     -0.06
  I    221       7.052     -0.052     -0.06
  I    222       7.054     -0.054     -0.06
  I    223       7.054     -0.054     -0.06
  I    224       7.052     -0.052     -0.06
  Cr   225      13.839      0.161      1.68
  Cr   226      13.837      0.163      1.68
  I    227       7.054     -0.054     -0.06
  I    228       7.054     -0.054     -0.06
  I    229       7.054     -0.054     -0.06
  I    230       7.054     -0.054     -0.06
  I    231       7.054     -0.054     -0.06
  I    232       7.054     -0.054     -0.06
  Cr   233      13.837      0.163      1.68
  Cr   234      13.836      0.164      1.68
  I    235       7.054     -0.054     -0.06
  I    236       7.054     -0.054     -0.06
  I    237       7.055     -0.055     -0.06
  I    238       7.054     -0.054     -0.06
  I    239       7.054     -0.054     -0.06
  I    240       7.054     -0.054     -0.06
  Cr   241      13.837      0.163      1.68
  Cr   242      13.836      0.164      1.68
  I    243       7.054     -0.054     -0.06
  I    244       7.054     -0.054     -0.06
  I    245       7.054     -0.054     -0.06
  I    246       7.054     -0.054     -0.06
  I    247       7.054     -0.054     -0.06
  I    248       7.054     -0.054     -0.06
  Cr   249      13.838      0.162      1.68
  Cr   250      13.835      0.165      1.68
  I    251       7.054     -0.054     -0.06
  I    252       7.055     -0.055     -0.06
  I    253       7.054     -0.054     -0.06
  I    254       7.054     -0.054     -0.06
  I    255       7.054     -0.054     -0.06
  I    256       7.054     -0.054     -0.06
  Cr   257      13.838      0.162      1.68
  Cr   258      13.835      0.165      1.68
  I    259       7.054     -0.054     -0.06
  I    260       7.054     -0.054     -0.06
  I    261       7.055     -0.055     -0.06
  I    262       7.055     -0.055     -0.06
  I    263       7.054     -0.054     -0.06
  I    264       7.055     -0.055     -0.06
  Cr   265      13.837      0.163      1.68
  Cr   266      13.836      0.164      1.68
  I    267       7.054     -0.054     -0.06
  I    268       7.054     -0.054     -0.06
  I    269       7.054     -0.054     -0.06
  I    270       7.054     -0.054     -0.06
  I    271       7.054     -0.054     -0.06
  I    272       7.054     -0.054     -0.06
  Cr   273      13.838      0.162      1.68
  Cr   274      13.835      0.165      1.68
  I    275       7.054     -0.054     -0.06
  I    276       7.054     -0.054     -0.06
  I    277       7.054     -0.054     -0.06
  I    278       7.054     -0.054     -0.06
  I    279       7.054     -0.054     -0.06
  I    280       7.055     -0.055     -0.06
  Cr   281      13.838      0.162      1.68
  Cr   282      13.835      0.165      1.68
  I    283       7.055     -0.055     -0.06
  I    284       7.054     -0.054     -0.06
  I    285       7.055     -0.055     -0.06
  I    286       7.055     -0.055     -0.06
  I    287       7.054     -0.054     -0.06
  I    288       7.055     -0.055     -0.06
=================================================

        Bond         Population      Spin       Length (bohr)
=============================================================
 Cr  186 -- I   191        0.31     -0.03      4.86412
 Cr  178 -- I   183        0.31     -0.03      4.86412
 Cr  154 -- I   159        0.31     -0.03      4.86412
 Cr  162 -- I   167        0.31     -0.03      4.86412
 Cr  146 -- I   151        0.31     -0.03      4.86412
 Cr   82 -- I    87        0.31     -0.03      4.86412
 Cr  250 -- I   255        0.31     -0.03      4.86412
 Cr  226 -- I   231        0.31     -0.03      4.86412
 Cr   74 -- I    79        0.31     -0.03      4.86412
 Cr   10 -- I    15        0.31     -0.03      4.86412
 Cr  106 -- I   111        0.31     -0.03      4.86412
 Cr   34 -- I    39        0.31     -0.03      4.86412
 Cr   42 -- I    47        0.31     -0.03      4.86412
 Cr   18 -- I    23        0.31     -0.03      4.86412
 Cr  114 -- I   119        0.31     -0.03      4.86412
 Cr    2 -- I     7        0.31     -0.03      4.86412
 Cr   90 -- I    95        0.31     -0.03      4.86412
 Cr  218 -- I   223        0.31     -0.03      4.86412
 Cr  258 -- I   263        0.31     -0.03      4.86412
 Cr  234 -- I   239        0.31     -0.03      4.86412
 Cr  274 -- I   279        0.31     -0.03      4.86412
 Cr  130 -- I   135        0.31     -0.03      4.86412
 Cr   98 -- I   103        0.31     -0.03      4.86412
 Cr   66 -- I    71        0.31     -0.03      4.86412
 Cr  242 -- I   247        0.31     -0.03      4.86412
 Cr   50 -- I    55        0.31     -0.03      4.86412
 Cr   26 -- I    31        0.31     -0.03      4.86412
 Cr   58 -- I    63        0.31     -0.03      4.86412
 Cr  210 -- I   215        0.31     -0.03      4.86412
 Cr  170 -- I   175        0.31     -0.03      4.86412
 Cr  122 -- I   127        0.31     -0.03      4.86412
 Cr  266 -- I   271        0.31     -0.03      4.86412
 Cr  282 -- I   287        0.31     -0.03      4.86412
 Cr  138 -- I   143        0.31     -0.03      4.86412
 Cr  202 -- I   207        0.31     -0.03      4.86412
 Cr  194 -- I   199        0.31     -0.03      4.86412
 Cr  210 -- I   212        0.31     -0.03      4.86413
 Cr  138 -- I   140        0.31     -0.03      4.86413
 Cr   90 -- I    92        0.31     -0.03      4.86413
 Cr  258 -- I   260        0.31     -0.03      4.86413
 Cr  234 -- I   236        0.31     -0.03      4.86413
 Cr   42 -- I    44        0.31     -0.03      4.86413
 Cr   66 -- I    68        0.31     -0.03      4.86413
 Cr  114 -- I   116        0.31     -0.03      4.86413
 Cr   18 -- I    20        0.31     -0.03      4.86413
 Cr  162 -- I   164        0.31     -0.03      4.86413
 Cr  282 -- I   284        0.31     -0.03      4.86413
 Cr  186 -- I   188        0.31     -0.03      4.86413
 Cr  194 -- I   196        0.31     -0.03      4.86413
 Cr  202 -- I   204        0.31     -0.03      4.86413
 Cr   50 -- I    52        0.31     -0.03      4.86413
 Cr   58 -- I    60        0.31     -0.03      4.86413
 Cr  122 -- I   124        0.31     -0.03      4.86413
 Cr  266 -- I   268        0.31     -0.03      4.86413
 Cr  274 -- I   276        0.31     -0.03      4.86413
 Cr  130 -- I   132        0.31     -0.03      4.86413
 Cr  154 -- I   156        0.31     -0.03      4.86413
 Cr  170 -- I   172        0.31     -0.03      4.86413
 Cr   34 -- I    36        0.31     -0.03      4.86413
 Cr   10 -- I    12        0.31     -0.03      4.86413
 Cr  146 -- I   148        0.31     -0.03      4.86413
 Cr    2 -- I     4        0.31     -0.03      4.86413
 Cr   26 -- I    28        0.31     -0.03      4.86413
 Cr  242 -- I   244        0.31     -0.03      4.86413
 Cr  218 -- I   220        0.31     -0.03      4.86413
 Cr  178 -- I   180        0.31     -0.03      4.86413
 Cr   74 -- I    76        0.31     -0.03      4.86413
 Cr   98 -- I   100        0.31     -0.03      4.86413
 Cr  250 -- I   252        0.31     -0.03      4.86413
 Cr  226 -- I   228        0.31     -0.03      4.86413
 Cr  106 -- I   108        0.31     -0.03      4.86413
 Cr   82 -- I    84        0.31     -0.03      4.86413
 Cr  153 -- I   159        0.31     -0.03      4.86414
 Cr  177 -- I   183        0.31     -0.03      4.86414
 Cr   41 -- I    47        0.31     -0.03      4.86414
 Cr  161 -- I   167        0.31     -0.03      4.86414
 Cr    9 -- I    15        0.31     -0.03      4.86414
 Cr  185 -- I   191        0.31     -0.03      4.86414
 Cr   33 -- I    39        0.31     -0.03      4.86414
 Cr   17 -- I    23        0.31     -0.03      4.86414
 Cr  113 -- I   119        0.31     -0.03      4.86414
 Cr   89 -- I    95        0.31     -0.03      4.86414
 Cr  233 -- I   239        0.31     -0.03      4.86414
 Cr  257 -- I   263        0.31     -0.03      4.86414
 Cr  249 -- I   255        0.31     -0.03      4.86414
 Cr  225 -- I   231        0.31     -0.03      4.86414
 Cr   81 -- I    87        0.31     -0.03      4.86414
 Cr  105 -- I   111        0.31     -0.03      4.86414
 Cr  209 -- I   215        0.31     -0.03      4.86414
 Cr   65 -- I    71        0.31     -0.03      4.86414
 Cr   57 -- I    63        0.31     -0.03      4.86414
 Cr  137 -- I   143        0.31     -0.03      4.86414
 Cr  201 -- I   207        0.31     -0.03      4.86414
 Cr  281 -- I   287        0.31     -0.03      4.86414
 Cr  129 -- I   135        0.31     -0.03      4.86414
 Cr  273 -- I   279        0.31     -0.03      4.86414
 Cr   73 -- I    79        0.31     -0.03      4.86414
 Cr  217 -- I   223        0.31     -0.03      4.86414
 Cr  145 -- I   151        0.31     -0.03      4.86414
 Cr    1 -- I     7        0.31     -0.03      4.86414
 Cr  121 -- I   127        0.31     -0.03      4.86414
 Cr  241 -- I   247        0.31     -0.03      4.86414
 Cr   97 -- I   103        0.31     -0.03      4.86414
 Cr  265 -- I   271        0.31     -0.03      4.86414
 Cr   49 -- I    55        0.31     -0.03      4.86414
 Cr   25 -- I    31        0.31     -0.03      4.86414
 Cr  169 -- I   175        0.31     -0.03      4.86414
 Cr  193 -- I   199        0.31     -0.03      4.86414
 Cr  193 -- I   196        0.31     -0.03      4.86414
 Cr   49 -- I    52        0.31     -0.03      4.86414
 Cr  265 -- I   268        0.31     -0.03      4.86414
 Cr  121 -- I   124        0.31     -0.03      4.86414
 Cr  257 -- I   260        0.31     -0.03      4.86414
 Cr  169 -- I   172        0.31     -0.03      4.86414
 Cr  145 -- I   148        0.31     -0.03      4.86414
 Cr   65 -- I    68        0.31     -0.03      4.86414
 Cr  137 -- I   140        0.31     -0.03      4.86414
 Cr  185 -- I   188        0.31     -0.03      4.86414
 Cr  281 -- I   284        0.31     -0.03      4.86414
 Cr  209 -- I   212        0.31     -0.03      4.86414
 Cr  161 -- I   164        0.31     -0.03      4.86414
 Cr    1 -- I     4        0.31     -0.03      4.86414
 Cr   41 -- I    44        0.31     -0.03      4.86414
 Cr  113 -- I   116        0.31     -0.03      4.86414
 Cr  241 -- I   244        0.31     -0.03      4.86414
 Cr   25 -- I    28        0.31     -0.03      4.86414
 Cr   17 -- I    20        0.31     -0.03      4.86414
 Cr   89 -- I    92        0.31     -0.03      4.86414
 Cr  217 -- I   220        0.31     -0.03      4.86414
 Cr  233 -- I   236        0.31     -0.03      4.86414
 Cr   97 -- I   100        0.31     -0.03      4.86414
 Cr   73 -- I    76        0.31     -0.03      4.86414
 Cr  273 -- I   276        0.31     -0.03      4.86414
 Cr  201 -- I   204        0.31     -0.03      4.86414
 Cr  129 -- I   132        0.31     -0.03      4.86414
 Cr   57 -- I    60        0.31     -0.03      4.86414
 Cr   81 -- I    84        0.31     -0.03      4.86414
 Cr  105 -- I   108        0.31     -0.03      4.86414
 Cr  249 -- I   252        0.31     -0.03      4.86414
 Cr  225 -- I   228        0.31     -0.03      4.86414
 Cr  153 -- I   156        0.31     -0.03      4.86414
 Cr   33 -- I    36        0.31     -0.03      4.86414
 Cr  177 -- I   180        0.31     -0.03      4.86414
 Cr    9 -- I    12        0.31     -0.03      4.86414
 I    27 -- Cr  114        0.31     -0.03      5.11128
 I     3 -- Cr   90        0.31     -0.03      5.11128
 I    51 -- Cr  138        0.31     -0.03      5.11128
 Cr  266 -- I   275        0.31     -0.03      5.11128
 Cr  122 -- I   131        0.31     -0.03      5.11128
 Cr   74 -- I    83        0.31     -0.03      5.11128
 Cr   98 -- I   107        0.31     -0.03      5.11128
 Cr  242 -- I   251        0.31     -0.03      5.11128
 Cr  218 -- I   227        0.31     -0.03      5.11128
 Cr  146 -- I   155        0.31     -0.03      5.11128
 Cr  170 -- I   179        0.31     -0.03      5.11128
 Cr   50 -- I    59        0.31     -0.03      5.11128
 Cr    2 -- I    11        0.31     -0.03      5.11128
 Cr   26 -- I    35        0.31     -0.03      5.11128
 Cr  194 -- I   203        0.31     -0.03      5.11128
 I   171 -- Cr  258        0.31     -0.03      5.11128
 I   195 -- Cr  282        0.31     -0.03      5.11128
 I   147 -- Cr  234        0.31     -0.03      5.11128
 Cr  194 -- I   197        0.31     -0.03      5.11128
 Cr  210 -- I   213        0.31     -0.03      5.11128
 Cr  250 -- I   253        0.31     -0.03      5.11128
 Cr  242 -- I   245        0.31     -0.03      5.11128
 Cr   50 -- I    53        0.31     -0.03      5.11128
 Cr  234 -- I   237        0.31     -0.03      5.11128
 Cr  226 -- I   229        0.31     -0.03      5.11128
 Cr  218 -- I   221        0.31     -0.03      5.11128
 Cr   26 -- I    29        0.31     -0.03      5.11128
 Cr  154 -- I   157        0.31     -0.03      5.11128
 Cr  146 -- I   149        0.31     -0.03      5.11128
 Cr  106 -- I   109        0.31     -0.03      5.11128
 Cr  282 -- I   285        0.31     -0.03      5.11128
 Cr    2 -- I     5        0.31     -0.03      5.11128
 Cr  122 -- I   125        0.31     -0.03      5.11128
 Cr  130 -- I   133        0.31     -0.03      5.11128
 Cr   10 -- I    13        0.31     -0.03      5.11128
 Cr   58 -- I    61        0.31     -0.03      5.11128
 Cr   42 -- I    45        0.31     -0.03      5.11128
 Cr   82 -- I    85        0.31     -0.03      5.11128
 Cr   34 -- I    37        0.31     -0.03      5.11128
 Cr   18 -- I    21        0.31     -0.03      5.11128
 Cr  138 -- I   141        0.31     -0.03      5.11128
 Cr   98 -- I   101        0.31     -0.03      5.11128
 Cr   90 -- I    93        0.31     -0.03      5.11128
 Cr  114 -- I   117        0.31     -0.03      5.11128
 Cr   66 -- I    69        0.31     -0.03      5.11128
 Cr  202 -- I   205        0.31     -0.03      5.11128
 Cr  170 -- I   173        0.31     -0.03      5.11128
 Cr   74 -- I    77        0.31     -0.03      5.11128
 Cr  274 -- I   277        0.31     -0.03      5.11128
 Cr  162 -- I   165        0.31     -0.03      5.11128
 Cr  266 -- I   269        0.31     -0.03      5.11128
 Cr  178 -- I   181        0.31     -0.03      5.11128
 Cr  258 -- I   261        0.31     -0.03      5.11128
 Cr  186 -- I   189        0.31     -0.03      5.11128
 Cr  186 -- I   243        0.31     -0.03      5.11128
 Cr  210 -- I   267        0.31     -0.03      5.11128
 Cr  162 -- I   219        0.31     -0.03      5.11128
 Cr  274 -- I   283        0.31     -0.03      5.11128
 Cr  130 -- I   139        0.31     -0.03      5.11128
 Cr   82 -- I    91        0.31     -0.03      5.11128
 Cr  106 -- I   115        0.31     -0.03      5.11128
 Cr   34 -- I    43        0.31     -0.03      5.11128
 Cr   58 -- I    67        0.31     -0.03      5.11128
 Cr  226 -- I   235        0.31     -0.03      5.11128
 Cr  202 -- I   211        0.31     -0.03      5.11128
 Cr  178 -- I   187        0.31     -0.03      5.11128
 Cr   10 -- I    19        0.31     -0.03      5.11128
 Cr  154 -- I   163        0.31     -0.03      5.11128
 Cr  250 -- I   259        0.31     -0.03      5.11128
 Cr   18 -- I    75        0.31     -0.03      5.11128
 Cr   66 -- I   123        0.31     -0.03      5.11128
 Cr   42 -- I    99        0.31     -0.03      5.11128
 Cr  234 -- I   240        0.31     -0.03      5.11128
 Cr  138 -- I   144        0.31     -0.03      5.11128
 Cr  282 -- I   288        0.31     -0.03      5.11128
 Cr  258 -- I   264        0.31     -0.03      5.11128
 Cr  114 -- I   120        0.31     -0.03      5.11128
 Cr   90 -- I    96        0.31     -0.03      5.11128
 Cr  242 -- I   248        0.31     -0.03      5.11128
 Cr  122 -- I   128        0.31     -0.03      5.11128
 Cr  218 -- I   224        0.31     -0.03      5.11128
 Cr  194 -- I   200        0.31     -0.03      5.11128
 Cr   98 -- I   104        0.31     -0.03      5.11128
 Cr   74 -- I    80        0.31     -0.03      5.11128
 Cr  210 -- I   216        0.31     -0.03      5.11128
 Cr   42 -- I    48        0.31     -0.03      5.11128
 Cr   66 -- I    72        0.31     -0.03      5.11128
 Cr   50 -- I    56        0.31     -0.03      5.11128
 Cr   18 -- I    24        0.31     -0.03      5.11128
 Cr   26 -- I    32        0.31     -0.03      5.11128
 Cr   10 -- I    16        0.31     -0.03      5.11128
 Cr  250 -- I   256        0.31     -0.03      5.11128
 Cr    2 -- I     8        0.31     -0.03      5.11128
 Cr   34 -- I    40        0.31     -0.03      5.11128
 Cr  146 -- I   152        0.31     -0.03      5.11128
 Cr  266 -- I   272        0.31     -0.03      5.11128
 Cr  154 -- I   160        0.31     -0.03      5.11128
 Cr   58 -- I    64        0.31     -0.03      5.11128
 Cr  202 -- I   208        0.31     -0.03      5.11128
 Cr  162 -- I   168        0.31     -0.03      5.11128
 Cr  170 -- I   176        0.31     -0.03      5.11128
 Cr  178 -- I   184        0.31     -0.03      5.11128
 Cr  130 -- I   136        0.31     -0.03      5.11128
 Cr  226 -- I   232        0.31     -0.03      5.11128
 Cr  106 -- I   112        0.31     -0.03      5.11128
 Cr   82 -- I    88        0.31     -0.03      5.11128
 Cr  186 -- I   192        0.31     -0.03      5.11128
 Cr  274 -- I   280        0.31     -0.03      5.11128
 Cr  130 -- I   142        0.31     -0.03      5.11128
 Cr  274 -- I   286        0.31     -0.03      5.11128
 Cr  250 -- I   262        0.31     -0.03      5.11128
 Cr  226 -- I   238        0.31     -0.03      5.11128
 Cr  106 -- I   118        0.31     -0.03      5.11128
 Cr   82 -- I    94        0.31     -0.03      5.11128
 Cr  266 -- I   278        0.31     -0.03      5.11128
 Cr  242 -- I   254        0.31     -0.03      5.11128
 Cr  218 -- I   230        0.31     -0.03      5.11128
 Cr  194 -- I   206        0.31     -0.03      5.11128
 Cr  122 -- I   134        0.31     -0.03      5.11128
 Cr   34 -- I    46        0.31     -0.03      5.11128
 Cr  154 -- I   166        0.31     -0.03      5.11128
 Cr   26 -- I    38        0.31     -0.03      5.11128
 Cr   10 -- I    22        0.31     -0.03      5.11128
 Cr   58 -- I    70        0.31     -0.03      5.11128
 Cr   50 -- I    62        0.31     -0.03      5.11128
 Cr    2 -- I    14        0.31     -0.03      5.11128
 Cr  170 -- I   182        0.31     -0.03      5.11128
 Cr   74 -- I    86        0.31     -0.03      5.11128
 Cr   98 -- I   110        0.31     -0.03      5.11128
 Cr  146 -- I   158        0.31     -0.03      5.11128
 Cr  202 -- I   214        0.31     -0.03      5.11128
 Cr  178 -- I   190        0.31     -0.03      5.11128
 I   198 -- Cr  282        0.31     -0.03      5.11128
 I   150 -- Cr  234        0.31     -0.03      5.11128
 I   174 -- Cr  258        0.31     -0.03      5.11128
 I    54 -- Cr  138        0.31     -0.03      5.11128
 I     6 -- Cr   90        0.31     -0.03      5.11128
 I    30 -- Cr  114        0.31     -0.03      5.11128
 Cr   18 -- I    78        0.31     -0.03      5.11128
 Cr   42 -- I   102        0.31     -0.03      5.11128
 Cr   66 -- I   126        0.31     -0.03      5.11128
 Cr  210 -- I   270        0.31     -0.03      5.11128
 Cr  162 -- I   222        0.31     -0.03      5.11128
 Cr  186 -- I   246        0.31     -0.03      5.11128
 Cr  265 -- I   270        0.31     -0.03      5.11131
 Cr  241 -- I   246        0.31     -0.03      5.11131
 Cr  217 -- I   222        0.31     -0.03      5.11131
 Cr   97 -- I   102        0.31     -0.03      5.11131
 Cr   73 -- I    78        0.31     -0.03      5.11131
 Cr  121 -- I   126        0.31     -0.03      5.11131
 Cr  249 -- I   280        0.31     -0.03      5.11131
 Cr  185 -- I   216        0.31     -0.03      5.11131
 Cr  161 -- I   192        0.31     -0.03      5.11131
 Cr  153 -- I   184        0.31     -0.03      5.11131
 Cr  177 -- I   208        0.31     -0.03      5.11131
 Cr   89 -- I   120        0.31     -0.03      5.11131
 Cr   33 -- I    64        0.31     -0.03      5.11131
 Cr  129 -- I   232        0.31     -0.03      5.11131
 Cr  113 -- I   144        0.31     -0.03      5.11131
 Cr  233 -- I   264        0.31     -0.03      5.11131
 Cr   41 -- I    72        0.31     -0.03      5.11131
 Cr   17 -- I    48        0.31     -0.03      5.11131
 Cr  105 -- I   136        0.31     -0.03      5.11131
 Cr   81 -- I   112        0.31     -0.03      5.11131
 Cr  137 -- I   240        0.31     -0.03      5.11131
 Cr    9 -- I    40        0.31     -0.03      5.11131
 Cr  225 -- I   256        0.31     -0.03      5.11131
 Cr  257 -- I   288        0.31     -0.03      5.11131
 Cr  145 -- I   176        0.31     -0.03      5.11131
 Cr  121 -- I   224        0.31     -0.03      5.11131
 Cr  241 -- I   272        0.31     -0.03      5.11131
 Cr   73 -- I   104        0.31     -0.03      5.11131
 Cr    1 -- I    32        0.31     -0.03      5.11131
 Cr   97 -- I   128        0.31     -0.03      5.11131
 Cr   25 -- I    56        0.31     -0.03      5.11131
 Cr  169 -- I   200        0.31     -0.03      5.11131
 Cr  217 -- I   248        0.31     -0.03      5.11131
 Cr  273 -- I   278        0.31     -0.03      5.11131
 Cr   81 -- I    86        0.31     -0.03      5.11131
 Cr  105 -- I   110        0.31     -0.03      5.11131
 Cr  281 -- I   286        0.31     -0.03      5.11131
 Cr  129 -- I   134        0.31     -0.03      5.11131
 Cr  249 -- I   254        0.31     -0.03      5.11131
 Cr  225 -- I   230        0.31     -0.03      5.11131
 Cr  137 -- I   142        0.31     -0.03      5.11131
 Cr  257 -- I   262        0.31     -0.03      5.11131
 Cr   65 -- I    70        0.31     -0.03      5.11131
 Cr   57 -- I    62        0.31     -0.03      5.11131
 Cr  113 -- I   118        0.31     -0.03      5.11131
 Cr   41 -- I    46        0.31     -0.03      5.11131
 Cr   17 -- I    22        0.31     -0.03      5.11131
 Cr  233 -- I   238        0.31     -0.03      5.11131
 Cr    9 -- I    14        0.31     -0.03      5.11131
 Cr  201 -- I   206        0.31     -0.03      5.11131
 Cr   89 -- I    94        0.31     -0.03      5.11131
 Cr  177 -- I   182        0.31     -0.03      5.11131
 Cr  161 -- I   166        0.31     -0.03      5.11131
[...]
*    I     148     -0.00133487  -0.00231600  -0.00481951 *
*    I     149     -0.00134405   0.00235375  -0.00481575 *
*    I     150     -0.00271023  -0.00001036   0.00481590 *
*    I     151      0.00133949   0.00231512   0.00481933 *
*    I     152      0.00134283  -0.00235471   0.00481611 *
*    Cr    153      0.00001115  -0.00000088   0.00000046 *
*    Cr    154     -0.00001954  -0.00000477  -0.00000067 *
*    I     155      0.00270671   0.00002989  -0.00480785 *
*    I     156     -0.00132354  -0.00231658  -0.00480949 *
*    I     157     -0.00134269   0.00235372  -0.00481782 *
*    I     158     -0.00270479   0.00000093   0.00480652 *
*    I     159      0.00134475   0.00230399   0.00481000 *
*    I     160      0.00134076  -0.00235218   0.00481594 *
*    Cr    161      0.00001262  -0.00000832   0.00000015 *
*    Cr    162     -0.00002402   0.00001257   0.00000076 *
*    I     163      0.00270374   0.00002885  -0.00480741 *
*    I     164     -0.00132324  -0.00231957  -0.00481043 *
*    I     165     -0.00134454   0.00235266  -0.00481796 *
*    I     166     -0.00270599  -0.00000368   0.00480814 *
*    I     167      0.00134709   0.00230663   0.00481022 *
*    I     168      0.00133937  -0.00235682   0.00481779 *
*    Cr    169     -0.00000940  -0.00000106  -0.00000141 *
*    Cr    170     -0.00002056   0.00000398  -0.00000161 *
*    I     171      0.00270133   0.00001972  -0.00480133 *
*    I     172     -0.00132448  -0.00231360  -0.00480761 *
*    I     173     -0.00134146   0.00235500  -0.00481503 *
*    I     174     -0.00269584  -0.00001097   0.00479822 *
*    I     175      0.00134162   0.00230380   0.00480799 *
*    I     176      0.00134328  -0.00235076   0.00481330 *
*    Cr    177     -0.00002169   0.00001145  -0.00000230 *
*    Cr    178      0.00000682  -0.00000398  -0.00000197 *
*    I     179      0.00270933   0.00001430  -0.00481406 *
*    I     180     -0.00133448  -0.00231554  -0.00481951 *
*    I     181     -0.00135045   0.00234211  -0.00480757 *
*    I     182     -0.00270892  -0.00001531   0.00481442 *
*    I     183      0.00133772   0.00231331   0.00481948 *
*    I     184      0.00132826  -0.00235882   0.00480807 *
*    Cr    185      0.00000609  -0.00000998   0.00000031 *
*    Cr    186     -0.00000568   0.00001805  -0.00000072 *
*    I     187      0.00270339   0.00002442  -0.00480563 *
*    I     188     -0.00132117  -0.00231613  -0.00480991 *
*    I     189     -0.00135046   0.00234306  -0.00480668 *
*    I     190     -0.00270709  -0.00000434   0.00480873 *
*    I     191      0.00134533   0.00230529   0.00481040 *
*    I     192      0.00132823  -0.00235868   0.00480866 *
*    Cr    193      0.00000509  -0.00000460   0.00000045 *
*    Cr    194     -0.00001907   0.00000884  -0.00000045 *
*    I     195      0.00269911   0.00001401  -0.00480000 *
*    I     196     -0.00132940  -0.00230801  -0.00480306 *
*    I     197     -0.00133857   0.00234193  -0.00480014 *
*    I     198     -0.00269964  -0.00001430   0.00480266 *
*    I     199      0.00133368   0.00230561   0.00480242 *
*    I     200      0.00133441  -0.00234685   0.00480049 *
*    Cr    201     -0.00000269   0.00000930  -0.00000238 *
*    Cr    202     -0.00001382   0.00001668  -0.00000163 *
*    I     203      0.00269810   0.00001459  -0.00479825 *
*    I     204     -0.00132305  -0.00231531  -0.00481030 *
*    I     205     -0.00134676   0.00234998  -0.00481507 *
*    I     206     -0.00269937  -0.00001640   0.00480176 *
*    I     207      0.00134466   0.00230451   0.00480990 *
*    I     208      0.00133996  -0.00235656   0.00481707 *
*    Cr    209     -0.00001347   0.00001239   0.00000100 *
*    Cr    210      0.00000883   0.00001340   0.00000077 *
*    I     211      0.00270774   0.00001438  -0.00481418 *
*    I     212     -0.00133568  -0.00231678  -0.00481812 *
*    I     213     -0.00135289   0.00234319  -0.00480642 *
*    I     214     -0.00270955  -0.00001178   0.00481547 *
*    I     215      0.00133861   0.00231667   0.00481918 *
*    I     216      0.00132950  -0.00235643   0.00480720 *
*    Cr    217      0.00000853  -0.00002872   0.00000102 *
*    Cr    218     -0.00002499  -0.00000688   0.00000085 *
*    I     219      0.00270914   0.00001432  -0.00481591 *
*    I     220     -0.00134344  -0.00232512  -0.00482191 *
*    I     221     -0.00165467   0.00190709  -0.00445273 *
*    I     222     -0.00271204  -0.00001358   0.00481867 *
*    I     223      0.00134690   0.00231663   0.00482580 *
*    I     224      0.00080135  -0.00240220   0.00445484 *
*    Cr    225      0.00000707  -0.00001304  -0.00000197 *
*    Cr    226     -0.00003409  -0.00000778  -0.00000150 *
*    I     227      0.00270993   0.00002101  -0.00482097 *
*    I     228     -0.00134358  -0.00230702  -0.00481131 *
*    I     229     -0.00133340   0.00235181  -0.00480753 *
*    I     230     -0.00271694  -0.00001578   0.00481909 *
*    I     231      0.00132670   0.00231696   0.00481049 *
*    I     232      0.00134620  -0.00234592   0.00480985 *
*    Cr    233     -0.00000332  -0.00000333  -0.00000082 *
*    Cr    234     -0.00003139  -0.00000377  -0.00000059 *
*    I     235      0.00270044   0.00001477  -0.00479882 *
*    I     236     -0.00132399  -0.00231585  -0.00481100 *
*    I     237     -0.00134528   0.00235170  -0.00481588 *
*    I     238     -0.00269876  -0.00001198   0.00479925 *
*    I     239      0.00134488   0.00230472   0.00481032 *
*    I     240      0.00134324  -0.00235170   0.00481554 *
*    Cr    241      0.00000959  -0.00003375  -0.00000166 *
*    Cr    242     -0.00001610  -0.00000218  -0.00000127 *
*    I     243      0.00270815   0.00001524  -0.00481537 *
*    I     244     -0.00133277  -0.00231756  -0.00481840 *
*    I     245     -0.00134462   0.00234980  -0.00481407 *
*    I     246     -0.00270842  -0.00001295   0.00481701 *
*    I     247      0.00133989   0.00231484   0.00481834 *
*    I     248      0.00133999  -0.00235368   0.00481575 *
*    Cr    249      0.00000580  -0.00001818  -0.00000155 *
*    Cr    250     -0.00001902  -0.00000415  -0.00000153 *
*    I     251      0.00270158   0.00002630  -0.00480686 *
*    I     252     -0.00132916  -0.00230589  -0.00480073 *
*    I     253     -0.00133142   0.00235118  -0.00480687 *
*    I     254     -0.00270058   0.00000092   0.00480574 *
*    I     255      0.00133414   0.00230748   0.00480337 *
*    I     256      0.00134786  -0.00234036   0.00480579 *
*    Cr    257      0.00000002  -0.00001262   0.00000034 *
*    Cr    258     -0.00002543   0.00000110  -0.00000039 *
*    I     259      0.00269884   0.00001550  -0.00479883 *
*    I     260     -0.00133003  -0.00230561  -0.00480251 *
*    I     261     -0.00133742   0.00234482  -0.00479984 *
*    I     262     -0.00269664  -0.00001086   0.00479913 *
*    I     263      0.00133297   0.00230739   0.00480267 *
*    I     264      0.00133665  -0.00234243   0.00479846 *
*    Cr    265      0.00001213  -0.00002865  -0.00000082 *
*    Cr    266     -0.00000033  -0.00000452  -0.00000061 *
*    I     267      0.00270902   0.00001527  -0.00481581 *
*    I     268     -0.00133528  -0.00231383  -0.00481706 *
*    I     269     -0.00134308   0.00235278  -0.00481273 *
*    I     270     -0.00270837  -0.00000872   0.00481567 *
*    I     271      0.00133530   0.00231473   0.00481618 *
*    I     272      0.00134230  -0.00235122   0.00481315 *
*    Cr    273      0.00001375  -0.00002129  -0.00000050 *
*    Cr    274     -0.00001085  -0.00000672   0.00000064 *
*    I     275      0.00270312   0.00002573  -0.00480579 *
*    I     276     -0.00132834  -0.00230669  -0.00480254 *
*    I     277     -0.00133918   0.00234327  -0.00479882 *
*    I     278     -0.00270073  -0.00000245   0.00480456 *
*    I     279      0.00133479   0.00230613   0.00480252 *
*    I     280      0.00133611  -0.00234255   0.00479909 *
*    Cr    281      0.00000993  -0.00000909   0.00000007 *
*    Cr    282     -0.00001304   0.00000389   0.00000026 *
*    I     283      0.00269907   0.00001925  -0.00480093 *
*    I     284     -0.00133000  -0.00230743  -0.00480232 *
*    I     285     -0.00133613   0.00234528  -0.00480100 *
*    I     286     -0.00269800  -0.00001075   0.00479935 *
*    I     287      0.00133233   0.00230431   0.00480350 *
*    I     288      0.00133679  -0.00234353   0.00479933 *
*                                                        *
**********************************************************
* TOTAL:            0.00000000   0.00000000  -0.00000000 *
**********************************************************
 
 
***********************************************************
********** Summary of Forces (values in Eh/a) *************
*                                                         *
* ---------------------- Minimum ------------------------ *
* Atom:        17, |F|min =    0.00000456                 *
* Components:     Fx|min       Fy|min       Fz|min        *
*              -0.00000079   0.00000431  -0.00000125      *
*                                                         *
* ---------------------- Maximum ------------------------ *
* Atom:        69, |F|max =    0.00553648                 *
* Components:     Fx|max       Fy|max       Fz|max        *
*              -0.00134315   0.00236611  -0.00482183      *
*                                                         *
* ---------------- Root Mean Square Force --------------- *
*                  |F|rms =    0.00476379                 *
* Components:     Fx|rms       Fy|rms       Fz|rms        *
*               0.00164708   0.00164488   0.00415634      *
***********************************************************
 

------------------------------ TIMING INFORMATION ------------------------------
AVERAGE TIME:   26594.621s on     56 proc(s)                                    
TOTAL TIME:     26594.622s on     56 proc(s)                                    
==================== AVERAGE TIMINGS FROM ALL PROCS (CUMULATIVE) =====================
|| TAG                                         #calls     cpu time   %total  Gflops ||
|| hubbard_species_proj                       :     1        0.00s   0.000%  ------ ||
|| hubbard_ngwf_on_grid                       :     1        0.00s   0.000%  ------ ||
|| hash_table_free                            :    55        0.00s   0.000%  ------ ||
|| sw_bessel_init_cpu                         :     1        0.01s   0.000%  ------ || (1 procs only)
|| hubbard_projector_character                :     1        0.00s   0.000%  ------ ||
|| hubbard_ngwf_select                        :     1        0.00s   0.000%  ------ ||
|| onetep.F90 final imbalance                 :     1        0.00s   0.000%  ------ ||
|| density_fftbox_interp_mult_imbal           : 19602        0.00s   0.000%  ------ ||
|| ewald_calculate_forces_realspace           :     1        0.00s   0.000%  ------ ||
|| linalg_invert_sym_matrix                   :     4        0.16s   0.001%  ------ || (1 procs only)
|| hubbard_tensorial_correction               :     2        0.00s   0.000%  ------ ||
|| onetep.F90 main loop imbalance             :     1        0.00s   0.000%  ------ ||
|| linalg_dgemv                               :    44        0.02s   0.000%  ------ ||
|| sparse_blacstospam3_real_fast_imbal        :    96        0.03s   0.000%  ------ ||
|| ewald_calculate_energy                     :     1        0.04s   0.000%  ------ ||
|| sparse_set_to_garbage                      :  1202        0.04s   0.000%  ------ ||
|| ewald_calculate_forces_recipspace          :     1        0.06s   0.000%  ------ ||
|| ewald_calculate_forces                     :     1        0.06s   0.000%  ------ ||
|| paw_tcore_hartree_on_grid                  :     1        0.10s   0.000%  ------ ||
|| restart_hamiltonian_write                  :     2        0.11s   0.000%  ------ ||
|| paw_dij_hartree                            :   329        0.14s   0.001%  ------ ||
|| sw_init                                    :   593        0.14s   0.001%  ------ ||
|| pseudo_make_structure_factor               :     1        0.15s   0.001%  ------ ||
|| sparse_spam3toblacs_real_fast_B2           :  4592        0.18s   0.001%  ------ ||
|| hubbard_projection_mtx                     :    57        0.27s   0.001%  ------ ||
|| sparse_spam3toblacs_real_fast_imbal        :    82        0.33s   0.001%  ------ ||
|| augmentation_density_forces                :     1        0.36s   0.001%  ------ ||
|| sparse_init                                :     1        0.39s   0.001%  ------ ||
|| paw_tcore_hartree_calc_forces              :     1        0.68s   0.003%  ------ ||
|| basis_extract_function_from_box            :  3471        0.69s   0.003%  ------ ||
|| hubbard_projector_ham                      :   142        0.97s   0.004%  ------ ||
|| hubbard_ham_matrix                         :   143        1.46s   0.005%  ------ ||
|| paw_tcore_density                          :     1        1.76s   0.007%  ------ ||
|| sparse_spam3toblacs_real_fast_B1           :  4592        1.94s   0.007%  ------ ||
|| paw_dataset_init                           :     2        2.15s   0.008%  ------ ||
|| paw_nlcc_calculate_forces                  :     1        2.28s   0.009%  ------ ||
|| restart_kernel_write                       :    29        2.58s   0.010%  ------ ||
|| paw_sphere_density_on_grid                 :     1        2.77s   0.010%  ------ ||
|| sparse_spam3toblacs_real_fast              :    82        2.82s   0.011%  ------ ||
|| nonsc_forces_ngwfs_calc                    :     1        2.96s   0.011%  ------ ||
|| hubbard_energy_total                       :   299        2.97s   0.011%  ------ ||
|| sparse_blacstospam3_real_fast              :    96        5.38s   0.020%  ------ ||
|| paw_species_calc_proj_prec_mat             :     1        5.80s   0.022%  ------ ||
|| ngwfs_initialise_from_radial               :     4        5.80s   0.022%  ------ ||
|| sparse_embed_array_hotelling_invert        :    56        8.00s   0.030%  ------ ||
|| dense_eigensolve                           :    38       10.37s   0.039%  ------ ||
|| hubbard_calculate_forces                   :     1       10.99s   0.041%  ------ ||
|| edft_diag_ngwf_ham                         :    36       12.33s   0.046%  ------ ||
|| integrals_grad_spam3                       :     4       13.92s   0.052%  ------ ||
|| sparse_trace                               : 10228       16.37s   0.062%  ------ ||
|| edft_apply_smearing_operator               :    18       18.69s   0.070%  ------ ||
|| kernel_purify                              :   435       18.86s   0.071%  ------ ||
|| energy_and_force_init_cell                 :     1       20.60s   0.077%  ------ ||
|| ngwf_gradient_coeffs                       :    27       23.83s   0.090%  ------ ||
|| lnv_gradient_norm                          :   135       25.00s   0.094%  ------ ||
|| kernel_fix                                 :   135       25.51s   0.096%  ------ ||
|| fourier_filter_cell                        :   342       27.22s   0.102% 139.475 ||
|| hubbard_projector_update                   :     1       30.09s   0.113%  ------ ||
|| eigenstates_calculate                      :     1       31.73s   0.119%  ------ ||
|| basis_copy_function_to_box                 : 34328       34.06s   0.128%  ------ ||
|| hamiltonian_energy_components              :     1       37.33s   0.140%  ------ ||
|| hartree_on_grid_single                     :   296       38.90s   0.146%  ------ ||
|| fourier_apply_box_pair                     :  5311       40.49s   0.152%  1.783k ||
|| projectors_func_grad_ovlp_box_spam3        :     6       40.52s   0.152%  ------ ||
|| aug_nl_calculate_forces                    :     1       41.59s   0.156%  ------ ||
|| fourier_interpolate_cell                   :   594       47.25s   0.178% 139.565 ||
|| density_init_guess_real                    :     2       58.33s   0.219%  ------ ||
|| augmentation_screen_dij_spam3              :   295       96.83s   0.364%  ------ ||
|| cell_grid_deposit_box_real                 : 24000      121.88s   0.458%  ------ ||
|| forces_calculate                           :     1      127.34s   0.479%  ------ ||
|| sparse_product                             : 19760      140.37s   0.528%  ------ ||
|| aug_nonlocal_mat_spam3_embed_array         :   301      153.51s   0.577%  ------ ||
|| paw_dij_xc                                 :   329      160.53s   0.604%  ------ ||
|| fourier_apply_cell_backward                :  2665      175.20s   0.659% 151.946 ||
|| restart_ngwfs_tightbox_output              :    26      192.32s   0.723%  ------ ||
|| fourier_filter                             :  6434      197.70s   0.743%  ------ ||
|| fourier_apply_cell_forward                 :  2665      199.35s   0.750% 133.541 ||
|| aug_density_on_grid_spam3                  :   297      214.36s   0.806%  ------ ||
|| projectors_init_fftbox_recip               :   719      256.53s   0.965%  ------ ||
|| cell_grid_extract_box_real                 : 15112      290.72s   1.093%  ------ ||
|| fourier_interpolate                        :  6434      305.87s   1.150%  ------ ||
|| function_ops_brappd_ketppd_spam3           :   224      346.10s   1.301%  ------ ||
|| xc_energy_potential                        :   296      413.08s   1.553%  ------ ||
|| properties_calculate                       :     1      456.79s   1.718%  ------ ||
|| density_fftbox_deposit_to_cell             : 19602      805.85s   3.030%  ------ ||
|| projectors_func_ovlp_box_spam3             :   226      862.66s   3.244%  ------ ||
|| edft_calculate                             :     1      898.62s   3.379%  ------ ||
|| integrals_kinetic_spam3                    :   110      940.81s   3.538%  ------ ||
|| basis_dot_function_with_box                : 12.01M    1317.85s   4.955%  ------ ||
|| potential_apply_to_ngwf_batch              :   860     1513.69s   5.692%  ------ ||
|| projectors_gradient_batch                  :   324     1756.91s   6.606%  ------ ||
|| fourier_apply_box                          : 105.7k    2538.80s   9.546%  1.879k ||
|| integrals_locpot_mat_els_batch             :   860     2583.11s   9.713%  ------ ||
|| fourier_interpolate_product                : 19092     2749.42s  10.338%  ------ ||
|| density_fftbox_interpolate_multiply        : 19602     2896.18s  10.890%  ------ ||
|| basis_add_function_to_box                  : 23.87M    2929.06s  11.014%  ------ ||
|| projectors_grad_precond_batch              :   162     3464.45s  13.027%  ------ ||
|| integrals_locpot_dbl_grid                  :   288     4100.09s  15.417%  ------ ||
|| density_batch_interp_deposit               :  1782     4629.93s  17.409%  ------ ||
|| density_batch_row_sums                     :  1782     5238.76s  19.699%  ------ ||
|| ngwf_gradient_build_batch                  :   162     5780.24s  21.735%  ------ ||
|| ngwf_gradient_batch                        :   162     8277.20s  31.124%  ------ ||
|| ngwf_gradient_lnv                          :    27     8406.35s  31.609%  ------ ||
|| density_on_dbl_grid                        :   594     9948.35s  37.407%  ------ ||
|| hamiltonian_lhxc_calculate                 :   293    10689.93s  40.196%  ------ ||
|| lnv_denskernel_optimise_cg                 :    27    13039.06s  49.029%  ------ ||
|| ngwf_cg_optimise                           :     1    24906.54s  93.653%  ------ ||
|| energy_and_forces                          :     1    26572.84s  99.918%  ------ ||
|| total_time                                 :     1    26594.62s 100.000%  ------ ||
======================================================================================
Overhead of generating timer report: 
- 0 ms averaging over threads,
- 4 ms ensuring consistency across MPI ranks,
- 1 ms printing in order.

Job completed: 21-10-2024 23:36 (+0100)

onetep_launcher: ONETEP seems to have finished correctly (zero exit code).
                 Brought to you by PID 123032 on nid001262.
