==================================================================================
It's Tue 01 Oct 2024 11:46:28 AM BST.
*** Starting onetep_launcher (node nid002103, PIDs 121025 121026 121027 121028 121029 121030 121031 121032)...
    - ONETEP arguments: U_-0.5_-0.1.dat
    - Current directory: /work/e89/e89/phsmea/U_det/U_-0.05_-0.1
    - Launcher executable directory: /mnt/lustre/a2fs-work3/work/e89/e89/phsmea/U_det/U_-0.05_-0.1
    - (-e) ONETEP executable specified through command-line: /work/e89/e89/phsmea/onetep.archer2_2024_cray
      ... trying /work/e89/e89/phsmea/onetep.archer2_2024_cray
          -> looks OK
*** Setting up environment...
    - (-s) Process stack size: unlimited
    - (-t) OMP_NUM_THREADS: 16
    - (-o) OMP_STACKSIZE: 64M
    - (-c) Maximum core file size: 2048000
    - (-d) decfort_dump_flag: n
    - (-m) I_MPI_OFA_TRANSLATION_CACHE: 0
    - (-m) I_MPI_DAPL_TRANSLATION_CACHE: 0
    - (-m) I_MPI_DAPL_UD_TRANSLATION_CACHE: 0
*** Starting ONETEP...
    - /work/e89/e89/phsmea/onetep.archer2_2024_cray U_-0.5_-0.1.dat
=================================================================================
_________________________________________________________________________________
 +---------------------------------------------------------------+
 |                                                               |
 |        ####### #     # ####### ####### ####### ######         |
 |        #     # ##    # #          #    #       #     #        |
 |        #     # # #   # #          #    #       #     #        |
 |        #     # #  #  # #####      #    #####   ######         |
 |        #     # #   # # #          #    #       #              |
 |        #     # #    ## #          #    #       #              |
 |        ####### #     # #######    #    ####### #              |
 |                                                               |
 |        Linear-Scaling Ab Initio Total Energy Program          |
 |                                                               |
 |          Release for academic collaborators of ODG            |
 |                                             Version 7.3.0     |
 | Remote: git@github.com:Miesaz/onetep_mea.git                  |
 | Local branch: master                                          |
 | Commit ID: 4af45e89288c8df5499704252eec3e032ee3d0c8           |
 | Date: Tue Aug 6 11:28:44 2024 +0100                           |
 | Working tree clean                                            |
 |                                                               |
 +---------------------------------------------------------------+
 |                                                               |
 |  Authors:                                                     |
 |  Jacek Dziedzic, Peter D. Haynes, Nicholas D. M. Hine,        |
 |  Arash A. Mostofi, Mike C. Payne and Chris-Kriton Skylaris    |
 |                                                               |
 |  Contributors:                                                |
 |  J. Aarons, L. Andrinopoulos, P. W. Avraam, R. A. Bell,       |
 |  A. Bhandari, G. A. Bramley, R. J. Charlton, S. J. Clark,     |
 |  R. J. Clements, G. C. Constantinescu, F. Corsetti,           |
 |  N. Corsini, O. Dieguez, S. M. M. Dubois, K. K. B. Duff,      |
 |  J. M. Escartin, M. Escobar Azor, A. Greco,                   |
 |  H. Helal, Q. O. Hill, L. P. Lee, J.-H. Li,                   |
 |  T. Li, E. B. Linscott, G. Moynihan, D. D. O`Regan,           |
 |  O. K. Okan, E. Parkinson, M. J. S. Phipps,                   |
 |  C. J. Pickard, J. C. A. Prentice, M. I. J. Probert,          |
 |  L. E. Ratcliff, M. Robinson, A. Ruiz Serrano,                |
 |  M. dos Santos Dias, J. S. Spencer, E. W. Tait,               |
 |  G. Teobaldi, D. Turban, V. Vitale, K. A. Wilkinson,          |
 |  C. Weber, J. C. Womack, Chengcheng Xiao, N. Yeung,           |
 |  and T. J. Zuehlsdorff.                                       |
 |                                                               |
 |                                   Copyright (c) 2004-2024     |
 |                                                               |
 |  Please cite:                                                 |
 |  "The ONETEP linear-scaling density functional theory program"|
 |   J. Chem. Phys. 152(17) 174111 (2020)                        |
 |                                                               |
 |          in all publications arising from your use of ONETEP. |
 |                                                               |
 +---------------------------------------------------------------+
 |                                                               |
 |   ONETEP is based on developments described in the following  |
 |   publications:                                               |
 |                                                               |
 |  "Nonorthogonal generalized Wannier function pseudopotential  |
 |   plane-wave method".                                         |
 |   C.-K. Skylaris, A. A. Mostofi, P. D. Haynes, O. Dieguez,    |
 |   M. C. Payne.                                                |
 |   Phys. Rev. B 66 035119 (2002).                              |
 |                                                               |
 |  "Preconditioned iterative minimization for linear-scaling    |
 |   electronic structure calculations".                         |
 |   A. A. Mostofi, P. D. Haynes, C.-K. Skylaris, M. C. Payne.   |
 |   J. Chem. Phys. 119(17), pp.8842-8848 (2003).                |
 |                                                               |
 |  "Total-energy calculations on a real space grid with         |
 |   localized functions and a plane-wave basis".                |
 |   A. A. Mostofi, C.-K. Skylaris, P. D. Haynes, M. C. Payne.   |
 |   Comput. Phys. Commun. 147, pp.788-802 (2002).               |
 |                                                               |
 |  "Accurate kinetic energy evaluation in electronic structure  |
 |   calculations with localized functions on real space grids"  |
 |   C.-K. Skylaris, A. A. Mostofi, P. D. Haynes, C. J. Pickard, |
 |   M. C. Payne.                                                |
 |   Comput. Phys. Commun. 140, pp.315-322 (2001).               |
 |                                                               |
 |  "Accurate ionic forces and geometry optimization in linear-  |
 |   scaling density-functional theory with local orbitals"      |
 |   N. D. M. Hine, M. Robinson, P. D. Haynes, C.-K. Skylaris,   |
 |   M. C. Payne, and A. A. Mostofi.                             |
 |   Phys. Rev. B 83 195102 (2011).                              |
 |                                                               |
 +---------------------------------------------------------------+

Job started: 01-10-2024 11:46 (+0100)
 
Reading parameters from file "U_-0.5_-0.1.dat" ...
WARNING in get_rundat: hubbard_calculating_u is TRUE, so do_properties will be
overridden to TRUE.
... done

If your calculation crashes here, before "Checking processes and threads..."
is displayed, then your stack size is insufficient.
If so, use "ulimit -s unlimited" at runtime.
You can disable this check with "check_stack_size F".

Checking processes and threads...
   Running with 56 MPI processes.
   There are 8 MPI processes running on the same node as the root process.
   Each MPI process is using: 
               1 threads for simulation cell FFTs.
               1 threads for threaded FFT box operations.
              16 threads for loops over batched FFT box operations.
              16 threads in other parallel regions.
   MPI Interface: S1 (use mpi_f08) (-DMPI -DUSE_MPI_F08).
   MPI_ASYNC_PROTECTS_NONBLOCKING: Yes. MPI_SUBARRAYS_SUPPORTED: Yes.
   FFTW Interface: OMP-capable and MODERN. (-DUSE_MODERN_FFTW specified).
   GPU Interface: None.
   GPU FFT Backend: None.
... done

Basic input checks...... done

Reading geometry and species blocks from file "U_-0.5_-0.1.dat" ...... done


--------------------------------------------------------------------------------
---------------------------------- INPUT FILE ----------------------------------
--------------------------------------------------------------------------------

charge : 0                                                                      
cutoff_energy : 1000 eV                                                         
do_properties : T                                                               
edft : F                                                                        
edft_init_maxit : 5                                                             
elec_energy_tol : 2e-07 Ha                                                      
fine_grid_scale : 4                                                             
forces_output_detail : VERBOSE                                                  
hubbard_calculating_u : T                                                       
maxit_ngwf_cg : 40                                                              
ngwf_threshold_orig : 1e-06                                                     
output_detail : BRIEF                                                           
paw : T                                                                         
spin_polarized : T                                                              
ngwfs_spin_polarized : T                                                        
read_denskern : F                                                               
read_hamiltonian : F                                                            
read_tightbox_ngwfs : F                                                         
spin : 216                                                                      
task : SinglePoint                                                              
write_denskern : T                                                              
write_forces : T                                                                
write_hamiltonian : T                                                           
write_tightbox_ngwfs : T                                                        
xc_functional : PBE                                                             
%BLOCK LATTICE_CART                                                             
ang                                                                             
41.261892132    0.000000000     0.000000000                                     
-20.630946066   35.733846792     0.000000000                                    
0.0000000000    0.000000000    17.192455055                                     
%ENDBLOCK LATTICE_CART                                                          
%BLOCK POSITIONS_ABS                                                            
ang                                                                             
Cr       3.43849101       1.98521371       9.03176873                           
Cr       0.00000000       3.97042742       9.03176919                           
I        4.42260340      -0.00001318       7.48054615                           
I        1.22717790       2.12556082       7.48054615                           
I       -2.21129029       3.83009349       7.48054615                           
I        2.45437873      -0.00001140      10.58299027                           
I        2.21129177       3.83009250      10.58299027                           
I       -1.22717949       2.12556004      10.58299027                           
Cr       0.00000000       7.94085485       9.03176873                           
Cr      -3.43849101       9.92606855       9.03176919                           
I        0.98411239       5.95562795       7.48054615                           
I       -2.21131311       8.08120195       7.48054615                           
I       -5.64978130       9.78573462       7.48054615                           
I       -0.98411228       5.95562973      10.58299027                           
I       -1.22719924       9.78573363      10.58299027                           
I       -4.66567050       8.08120117      10.58299027                           
Cr      -3.43849101      13.89649598       9.03176873                           
Cr      -6.87698202      15.88170968       9.03176919                           
I       -2.45437862      11.91126909       7.48054615                           
I       -5.64980412      14.03684309       7.48054615                           
I       -9.08827231      15.74137575       7.48054615                           
I       -4.42260329      11.91127086      10.58299027                           
I       -4.66569025      15.74137476      10.58299027                           
I       -8.10416151      14.03684230      10.58299027                           
Cr      10.31547303       1.98521371       9.03176873                           
Cr       6.87698202       3.97042742       9.03176919                           
I       11.29958542      -0.00001318       7.48054615                           
I        8.10415992       2.12556082       7.48054615                           
I        4.66569173       3.83009349       7.48054615                           
I        9.33136075      -0.00001140      10.58299027                           
I        9.08827380       3.83009250      10.58299027                           
I        5.64980253       2.12556004      10.58299027                           
Cr       6.87698202       7.94085485       9.03176873                           
Cr       3.43849101       9.92606855       9.03176919                           
I        7.86109441       5.95562795       7.48054615                           
I        4.66566891       8.08120195       7.48054615                           
I        1.22720072       9.78573462       7.48054615                           
I        5.89286974       5.95562973      10.58299027                           
I        5.64978278       9.78573363      10.58299027                           
I        2.21131152       8.08120117      10.58299027                           
Cr       3.43849101      13.89649598       9.03176873                           
Cr       0.00000000      15.88170968       9.03176919                           
I        4.42260340      11.91126909       7.48054615                           
I        1.22717790      14.03684309       7.48054615                           
I       -2.21129029      15.74137575       7.48054615                           
I        2.45437873      11.91127086      10.58299027                           
I        2.21129177      15.74137476      10.58299027                           
I       -1.22717949      14.03684230      10.58299027                           
Cr      17.19245505       1.98521371       9.03176873                           
Cr      13.75396404       3.97042742       9.03176919                           
I       18.17656744      -0.00001318       7.48054615                           
I       14.98114195       2.12556082       7.48054615                           
I       11.54267375       3.83009349       7.48054615                           
I       16.20834277      -0.00001140      10.58299027                           
I       15.96525582       3.83009250      10.58299027                           
I       12.52678455       2.12556004      10.58299027                           
Cr      13.75396404       7.94085485       9.03176873                           
Cr      10.31547303       9.92606855       9.03176919                           
I       14.73807643       5.95562795       7.48054615                           
I       11.54265094       8.08120195       7.48054615                           
I        8.10418274       9.78573462       7.48054615                           
I       12.76985176       5.95562973      10.58299027                           
I       12.52676481       9.78573363      10.58299027                           
I        9.08829354       8.08120117      10.58299027                           
Cr      10.31547303      13.89649598       9.03176873                           
Cr       6.87698202      15.88170968       9.03176919                           
I       11.29958542      11.91126909       7.48054615                           
I        8.10415992      14.03684309       7.48054615                           
I        4.66569173      15.74137575       7.48054615                           
I        9.33136075      11.91127086      10.58299027                           
I        9.08827380      15.74137476      10.58299027                           
I        5.64980253      14.03684230      10.58299027                           
Cr      -6.87698202      19.85213711       9.03176873                           
Cr     -10.31547303      21.83735082       9.03176919                           
I       -5.89286963      17.86691022       7.48054615                           
I       -9.08829513      19.99248422       7.48054615                           
I      -12.52676332      21.69701689       7.48054615                           
I       -7.86109430      17.86691200      10.58299027                           
I       -8.10418126      21.69701590      10.58299027                           
I      -11.54265252      19.99248344      10.58299027                           
Cr     -10.31547303      25.80777825       9.03176873                           
Cr     -13.75396404      27.79299195       9.03176919                           
I       -9.33136064      23.82255135       7.48054615                           
I      -12.52678614      25.94812535       7.48054615                           
I      -15.96525433      27.65265802       7.48054615                           
I      -11.29958531      23.82255313      10.58299027                           
I      -11.54267227      27.65265703      10.58299027                           
I      -14.98114353      25.94812457      10.58299027                           
Cr     -13.75396404      31.76341938       9.03176873                           
Cr     -17.19245505      33.74863308       9.03176919                           
I      -12.76985165      29.77819249       7.48054615                           
I      -15.96527715      31.90376649       7.48054615                           
I      -19.40374534      33.60829915       7.48054615                           
I      -14.73807632      29.77819426      10.58299027                           
I      -14.98116328      33.60829816      10.58299027                           
I      -18.41963454      31.90376570      10.58299027                           
Cr      -0.00000000      19.85213711       9.03176873                           
Cr      -3.43849101      21.83735082       9.03176919                           
I        0.98411239      17.86691022       7.48054615                           
I       -2.21131311      19.99248422       7.48054615                           
I       -5.64978130      21.69701689       7.48054615                           
I       -0.98411228      17.86691200      10.58299027                           
I       -1.22719923      21.69701590      10.58299027                           
I       -4.66567050      19.99248344      10.58299027                           
Cr      -3.43849101      25.80777825       9.03176873                           
Cr      -6.87698202      27.79299195       9.03176919                           
I       -2.45437862      23.82255135       7.48054615                           
I       -5.64980412      25.94812535       7.48054615                           
I       -9.08827231      27.65265802       7.48054615                           
I       -4.42260329      23.82255313      10.58299027                           
I       -4.66569025      27.65265703      10.58299027                           
I       -8.10416151      25.94812457      10.58299027                           
Cr      -6.87698202      31.76341938       9.03176873                           
Cr     -10.31547303      33.74863308       9.03176919                           
I       -5.89286963      29.77819249       7.48054615                           
I       -9.08829513      31.90376649       7.48054615                           
I      -12.52676332      33.60829915       7.48054615                           
I       -7.86109430      29.77819426      10.58299027                           
I       -8.10418126      33.60829816      10.58299027                           
I      -11.54265252      31.90376570      10.58299027                           
CrU       6.87698202      19.85213711       9.03176873                          
Cr       3.43849101      21.83735082       9.03176919                           
I        7.86109441      17.86691022       7.48054615                           
I        4.66566892      19.99248422       7.48054615                           
I        1.22720072      21.69701689       7.48054615                           
I        5.89286974      17.86691200      10.58299027                           
I        5.64978279      21.69701590      10.58299027                           
I        2.21131152      19.99248344      10.58299027                           
Cr       3.43849101      25.80777825       9.03176873                           
Cr      -0.00000000      27.79299195       9.03176919                           
I        4.42260340      23.82255135       7.48054615                           
I        1.22717791      25.94812535       7.48054615                           
I       -2.21129029      27.65265802       7.48054615                           
I        2.45437873      23.82255313      10.58299027                           
I        2.21129178      27.65265703      10.58299027                           
I       -1.22717949      25.94812457      10.58299027                           
Cr      -0.00000000      31.76341938       9.03176873                           
Cr      -3.43849101      33.74863308       9.03176919                           
I        0.98411239      29.77819249       7.48054615                           
I       -2.21131311      31.90376649       7.48054615                           
I       -5.64978130      33.60829915       7.48054615                           
I       -0.98411228      29.77819426      10.58299027                           
I       -1.22719923      33.60829816      10.58299027                           
I       -4.66567050      31.90376570      10.58299027                           
Cr      24.06943708       1.98521371       9.03176873                           
Cr      20.63094607       3.97042742       9.03176919                           
I       25.05354947      -0.00001318       7.48054615                           
I       21.85812397       2.12556082       7.48054615                           
I       18.41965578       3.83009349       7.48054615                           
I       23.08532480      -0.00001140      10.58299027                           
I       22.84223784       3.83009250      10.58299027                           
I       19.40376658       2.12556004      10.58299027                           
Cr      20.63094607       7.94085485       9.03176873                           
Cr      17.19245506       9.92606855       9.03176919                           
I       21.61505846       5.95562795       7.48054615                           
I       18.41963296       8.08120195       7.48054615                           
I       14.98116477       9.78573462       7.48054615                           
I       19.64683379       5.95562973      10.58299027                           
I       19.40374683       9.78573363      10.58299027                           
I       15.96527557       8.08120117      10.58299027                           
Cr      17.19245506      13.89649598       9.03176873                           
Cr      13.75396405      15.88170968       9.03176919                           
I       18.17656745      11.91126909       7.48054615                           
I       14.98114195      14.03684309       7.48054615                           
I       11.54267376      15.74137575       7.48054615                           
I       16.20834278      11.91127086      10.58299027                           
I       15.96525582      15.74137476      10.58299027                           
I       12.52678456      14.03684230      10.58299027                           
Cr      30.94641910       1.98521371       9.03176873                           
Cr      27.50792809       3.97042742       9.03176919                           
I       31.93053149      -0.00001318       7.48054615                           
I       28.73510599       2.12556082       7.48054615                           
I       25.29663780       3.83009349       7.48054615                           
I       29.96230682      -0.00001140      10.58299027                           
I       29.71921987       3.83009250      10.58299027                           
I       26.28074860       2.12556004      10.58299027                           
Cr      27.50792809       7.94085485       9.03176873                           
Cr      24.06943708       9.92606855       9.03176919                           
I       28.49204048       5.95562795       7.48054615                           
I       25.29661498       8.08120195       7.48054615                           
I       21.85814679       9.78573462       7.48054615                           
I       26.52381581       5.95562973      10.58299027                           
I       26.28072885       9.78573363      10.58299027                           
I       22.84225759       8.08120117      10.58299027                           
Cr      24.06943708      13.89649598       9.03176873                           
Cr      20.63094607      15.88170968       9.03176919                           
I       25.05354947      11.91126909       7.48054615                           
I       21.85812397      14.03684309       7.48054615                           
I       18.41965578      15.74137575       7.48054615                           
I       23.08532480      11.91127086      10.58299027                           
I       22.84223784      15.74137476      10.58299027                           
I       19.40376658      14.03684230      10.58299027                           
Cr      37.82340112       1.98521371       9.03176873                           
Cr      34.38491011       3.97042742       9.03176919                           
I       38.80751351      -0.00001318       7.48054615                           
I       35.61208802       2.12556082       7.48054615                           
I       32.17361982       3.83009349       7.48054615                           
I       36.83928884      -0.00001140      10.58299027                           
I       36.59620189       3.83009250      10.58299027                           
I       33.15773062       2.12556004      10.58299027                           
Cr      34.38491011       7.94085485       9.03176873                           
Cr      30.94641910       9.92606855       9.03176919                           
I       35.36902250       5.95562795       7.48054615                           
I       32.17359701       8.08120195       7.48054615                           
I       28.73512881       9.78573462       7.48054615                           
I       33.40079783       5.95562973      10.58299027                           
I       33.15771088       9.78573363      10.58299027                           
I       29.71923961       8.08120117      10.58299027                           
Cr      30.94641910      13.89649598       9.03176873                           
Cr      27.50792809      15.88170968       9.03176919                           
I       31.93053149      11.91126909       7.48054615                           
I       28.73510599      14.03684309       7.48054615                           
I       25.29663780      15.74137575       7.48054615                           
I       29.96230682      11.91127086      10.58299027                           
I       29.71921987      15.74137476      10.58299027                           
I       26.28074860      14.03684230      10.58299027                           
Cr      13.75396404      19.85213711       9.03176873                           
Cr      10.31547303      21.83735082       9.03176919                           
I       14.73807643      17.86691022       7.48054615                           
I       11.54265093      19.99248422       7.48054615                           
I        8.10418274      21.69701689       7.48054615                           
I       12.76985176      17.86691200      10.58299027                           
I       12.52676480      21.69701590      10.58299027                           
I        9.08829354      19.99248344      10.58299027                           
Cr      10.31547303      25.80777825       9.03176873                           
Cr       6.87698202      27.79299195       9.03176919                           
I       11.29958542      23.82255135       7.48054615                           
I        8.10415992      25.94812535       7.48054615                           
I        4.66569173      27.65265802       7.48054615                           
I        9.33136075      23.82255313      10.58299027                           
I        9.08827379      27.65265703      10.58299027                           
I        5.64980253      25.94812457      10.58299027                           
Cr       6.87698202      31.76341938       9.03176873                           
Cr       3.43849101      33.74863308       9.03176919                           
I        7.86109441      29.77819249       7.48054615                           
I        4.66566891      31.90376649       7.48054615                           
I        1.22720072      33.60829915       7.48054615                           
I        5.89286974      29.77819426      10.58299027                           
I        5.64978278      33.60829816      10.58299027                           
I        2.21131152      31.90376570      10.58299027                           
Cr      20.63094606      19.85213711       9.03176873                           
Cr      17.19245505      21.83735082       9.03176919                           
I       21.61505845      17.86691022       7.48054615                           
I       18.41963295      19.99248422       7.48054615                           
I       14.98116476      21.69701689       7.48054615                           
I       19.64683378      17.86691200      10.58299027                           
I       19.40374683      21.69701590      10.58299027                           
I       15.96527556      19.99248344      10.58299027                           
Cr      17.19245505      25.80777825       9.03176873                           
Cr      13.75396404      27.79299195       9.03176919                           
I       18.17656744      23.82255135       7.48054615                           
I       14.98114194      25.94812535       7.48054615                           
I       11.54267375      27.65265802       7.48054615                           
I       16.20834277      23.82255313      10.58299027                           
I       15.96525581      27.65265703      10.58299027                           
I       12.52678455      25.94812457      10.58299027                           
Cr      13.75396404      31.76341938       9.03176873                           
Cr      10.31547303      33.74863308       9.03176919                           
I       14.73807643      29.77819249       7.48054615                           
I       11.54265093      31.90376649       7.48054615                           
I        8.10418274      33.60829915       7.48054615                           
I       12.76985176      29.77819426      10.58299027                           
I       12.52676480      33.60829816      10.58299027                           
I        9.08829354      31.90376570      10.58299027                           
Cr      27.50792808      19.85213711       9.03176873                           
Cr      24.06943707      21.83735082       9.03176919                           
I       28.49204047      17.86691022       7.48054615                           
I       25.29661498      19.99248422       7.48054615                           
I       21.85814678      21.69701689       7.48054615                           
I       26.52381580      17.86691200      10.58299027                           
I       26.28072885      21.69701590      10.58299027                           
I       22.84225758      19.99248344      10.58299027                           
Cr      24.06943707      25.80777825       9.03176873                           
Cr      20.63094606      27.79299195       9.03176919                           
I       25.05354946      23.82255135       7.48054615                           
I       21.85812397      25.94812535       7.48054615                           
I       18.41965577      27.65265802       7.48054615                           
I       23.08532479      23.82255313      10.58299027                           
I       22.84223784      27.65265703      10.58299027                           
I       19.40376657      25.94812457      10.58299027                           
Cr      20.63094606      31.76341938       9.03176873                           
Cr      17.19245505      33.74863308       9.03176919                           
I       21.61505845      29.77819249       7.48054615                           
I       18.41963295      31.90376649       7.48054615                           
I       14.98116476      33.60829915       7.48054615                           
I       19.64683378      29.77819426      10.58299027                           
I       19.40374683      33.60829816      10.58299027                           
I       15.96527556      31.90376570      10.58299027                           
%ENDBLOCK POSITIONS_ABS                                                         
%BLOCK SPECIES                                                                  
Cr Cr 24 -1 15                                                                  
I   I  53 -1 15                                                                 
CrU Cr 24 -1 15                                                                 
%ENDBLOCK SPECIES                                                               
%BLOCK SPECIES_ATOMIC_SET                                                       
Cr  "SOLVE INIT SPIN=3"                                                         
I   "SOLVE"                                                                     
CrU "SOLVE INIT SPIN=3"                                                         
%ENDBLOCK SPECIES_ATOMIC_SET                                                    
%BLOCK HUBBARD                                                                  
CrU 2 0.0 0.0 -10.0 -0.05 -0.1                                                  
%ENDBLOCK HUBBARD                                                               
%BLOCK SPECIES_LDOS_GROUPS                                                      
Cr                                                                              
I                                                                               
CrU                                                                             
%ENDBLOCK SPECIES_LDOS_GROUPS                                                   
%BLOCK SPECIES_POT                                                              
Cr  "/work/e89/e89/phsmea/U_det/Cr.PBE-paw.abinit"                              
I   "/work/e89/e89/phsmea/U_det/I.PBE-paw.abinit"                               
CrU "/work/e89/e89/phsmea/U_det/Cr.PBE-paw.abinit"                              
%ENDBLOCK SPECIES_POT                                                           

--------------------------------------------------------------------------------
-------------------------------- END INPUT FILE --------------------------------
--------------------------------------------------------------------------------


 
 ESDF WARNING(1): "charge" (esdf_physical) has no units. Assume "e".
<<<<<<<<<<<<<<<<<<<<<<<<<<<<<<<<< Full system >>>>>>>>>>>>>>>>>>>>>>>>>>>>>>>>>>
<<<<<<<<<<<<<<<<<<<<<<<<<<< PAW Dataset information >>>>>>>>>>>>>>>>>>>>>>>>>>>
File: /work/e89/e89/phsmea/U_det/Cr.PBE-paw.abinit; rc = 2.11 bohr; shape type =  2; rshape = 1.80 bohr;
  Atomic number: 24;  ionic charge: 14.000000
    Partial Wave 1: l = 0
    Partial Wave 2: l = 0
    Partial Wave 3: l = 1
    Partial Wave 4: l = 1
    Partial Wave 5: l = 2
    Partial Wave 6: l = 2
  Core charge supplied for Nonlinear Core Corrections
File: /work/e89/e89/phsmea/U_det/I.PBE-paw.abinit; rc = 2.30 bohr; shape type =  2; rshape = 2.11 bohr;
  Atomic number: 53;  ionic charge:  7.000000
    Partial Wave 1: l = 0
    Partial Wave 2: l = 0
    Partial Wave 3: l = 1
    Partial Wave 4: l = 1
  Core charge supplied for Nonlinear Core Corrections
<<<<<<<<<<<<<<<<<<<<<<<<<<<<<<<<<<<<<<< >>>>>>>>>>>>>>>>>>>>>>>>>>>>>>>>>>>>>>>

-------------------------- Atom counting information ---------------------------
Symbol    Natoms    Nngwfs    Nprojs
  Cr        72       936      1296
  I        216       864      1728
.......   ......    ......    ......
Totals:    288      1800      3024
--------------------------------------------------------------------------------

=============================== PSINC grid sizes ===============================
                      Simulation cell:  175 x 175 x  75
                              FFT-box:  175 x 175 x  75
                                  PPD:    5 x   5 x   1
================================================================================

Atom SCF Calculation for Cr : Z (AE atom) =  24 : Z (PS atom) =  14
Config String: 3s2.0 3p6.0 3d5.0 4s1.0 4p0.0 INIT SPIN=3
Orbitals (num,occ):  5     2.00 6.00 5.00 1.00 0.00
Orbitals   (num,l):  5        0    1    2    0    1
Atom SCF converged after  64 iterations to a total energy of    -87.07044631
Adjusting orbital occupancies:
Orbitals (num,spin,occ):  5  1     1.00 3.00 3.50 1.00 0.00
Orbitals   (num,spin,l):  5  1        0    1    2    0    1
Orbitals (num,spin,occ):  5  2     1.00 3.00 1.00 0.50 0.00
Orbitals   (num,spin,l):  5  2        0    1    2    0    1

Atom SCF Calculation for I  : Z (AE atom) =  53 : Z (PS atom) =   7
Config String: 5s2.0 5p5.0
Orbitals (num,occ):  2     2.00 5.00
Orbitals   (num,l):  2        0    1
Atom SCF converged after  28 iterations to a total energy of    -11.61352964

Atom SCF Calculation for Cr : Z (AE atom) =  24 : Z (PS atom) =  14
Config String: 3s2.0 3p6.0 3d5.0 4s1.0 4p0.0 INIT SPIN=3
Orbitals (num,occ):  5     2.00 6.00 5.00 1.00 0.00
Orbitals   (num,l):  5        0    1    2    0    1
Atom SCF converged after  64 iterations to a total energy of    -87.07044631
Adjusting orbital occupancies:
Orbitals (num,spin,occ):  5  1     1.00 3.00 3.50 1.00 0.00
Orbitals   (num,spin,l):  5  1        0    1    2    0    1
Orbitals (num,spin,occ):  5  2     1.00 3.00 1.00 0.50 0.00
Orbitals   (num,spin,l):  5  2        0    1    2    0    1

Atom SCF Calculation for Cr : Z (AE atom) =  24 : Z (PS atom) =  14
Config String: 3s2.0 3p6.0 3d5.0 4s1.0 4p0.0 INIT SPIN=3
Orbitals (num,occ):  5     2.00 6.00 5.00 1.00 0.00
Orbitals   (num,l):  5        0    1    2    0    1
Atom SCF converged after  64 iterations to a total energy of    -87.07044631

Atom SCF Calculation for I  : Z (AE atom) =  53 : Z (PS atom) =   7
Config String: 5s2.0 5p5.0
Orbitals (num,occ):  2     2.00 5.00
Orbitals   (num,l):  2        0    1
Atom SCF converged after  28 iterations to a total energy of    -11.61352964

Atom SCF Calculation for Cr : Z (AE atom) =  24 : Z (PS atom) =  14
Config String: 3s2.0 3p6.0 3d5.0 4s1.0 4p0.0 INIT SPIN=3
Orbitals (num,occ):  5     2.00 6.00 5.00 1.00 0.00
Orbitals   (num,l):  5        0    1    2    0    1
Atom SCF converged after  64 iterations to a total energy of    -87.07044631
Calculating Ewald energy ...             6126.916246 Hartree

============================= Charge Augmentation ==============================
                           Aug box size:   49 x  49 x  45
================================================================================

================================= Core Density =================================
               Core den box size:  125 x 125 x 117
================================================================================
Density kernel initialisation

################################################################################
###################### NGWF self-consistent optimisation #######################
################################################################################
|ITER|    RMS GRADIENT   |     TOTAL ENERGY    |   step   |     Epredicted      
   0     0.00009869351874  -8812.32841988777182   2.349363  -8816.23778434535598        
   1     0.00006751857961  -8816.45733719427881   1.629191  -8817.79603671654513        
   2     0.00004160250715  -8817.83198468434603   1.808309  -8818.38091410959532        
   3     0.00002882120085  -8818.40520902320714   1.957780  -8818.69552251739697        
   4     0.00002025241215  -8818.69684983853767   1.140052  -8818.77673333500388        
   5     0.00001352631923  -8818.77688911921541   1.994295  -8818.83900117169105        
   6     0.00001152006742  -8818.83791381999617   1.749840  -8818.87672315807140        
   7     0.00000900170280  -8818.87529226391780   1.581253  -8818.89633629980199        
   8     0.00000727765739  -8818.89533730232870   0.930226  -8818.90375416780444        
   9     0.00000477368957  -8818.90372063689210   2.193729  -8818.91225660513010        
  10     0.00000442130825  -8818.91193091091009   1.644834  -8818.91726483938328        
  11     0.00000320768909  -8818.91685852070623   2.384703  -8818.92081294640411        
  12     0.00000414650674  -8818.91961531532797   0.928991  -8818.92234401110909        
  13     0.00000217386816  -8818.92232216404773   2.386254  -8818.92423154506650        
  14     0.00000232213846  -8818.92396812010702   2.244250  -8818.92574786651312        
  15     0.00000229472567  -8818.92486350095714   1.611182  -8818.92571490904083        
  16     0.00000243933413  -8818.92494013189753   1.103853  -8818.92606223465555        
  17     0.00000193870826  -8818.92599779191733   1.924319  -8818.92725602779137        
  18     0.00000152018557  -8818.92710350871675   1.459367  -8818.92764284206896        
  19     0.00000090809373  -8818.92753484286004   3.208136  -8818.92794243998105        
  20     0.00000171108156  -8818.92758661450534   0.739595  -8818.92795654008296        
  21     0.00000050943548  -8818.92794419076017   1.670728  -8818.92801610672723        
  22     0.00000059226425  -8818.92798628590754  -0.000910  -8818.92798624014358        

================================================================================
           ---------------- ENERGY COMPONENTS (Eh) ----------------
           | Kinetic                    :     1819.35526515524271 |
           | Core Hartree               :   -28372.67446093501350 |
           | CoreHart (non-coul chg cor):        0.00000000000000
           | Hartree                    :    13504.11397801288880 |
           | Exchange-correlation       :    -1248.31746488447720 |
           | Hubbard DFT+U correction   :       -0.00530064114948 |
           | Ewald                      :     6126.91624599049464 |
           | Dij0                       :     -555.66814784447251 |
           | Dijhartree                 :      248.91313728751916 |
           | Exc [AE core]              :   -42415.11695032798160 |
           | Exc DC [AE core]           :    -1638.58963468950606 |
           | Exc [PS core]              :    -1032.31576661909457 |
           | Exc DC [PS core]           :     -982.40077975142322 |
           | Exc [Core]                 :   -41041.23993575423080 |
           | Total [Sphere]             :     -648.31625851160788 |
           | Total                      :    -8818.92799581362488 |
           --------------------------------------------------------
           Integrated compensation chrg.:      189.12103603556068
           Integrated density           :     2519.99993595772048
           Integrated spin density      :      215.99995948780702
           Integrated |spin density|    :      164.19396005157418
================================================================================

  23     0.00000049565602  -8818.92799581363033  <-- CG                                 

################################################################################
DFT+U information on atom      1 of Hubbard species CrU 
################################################################################
Occupancy matrix of Hubbard site      1 and spin      1 is 
  m_l =   -2          -1           0           1           2
  0.88732025  0.15318663  0.00000139  0.00000064  0.00000290
  0.15322459  0.76722278 -0.00000224  0.00000339 -0.00000232
 -0.00000004 -0.00000012  0.99088411  0.00000017  0.00000010
  0.00000187  0.00000333 -0.00000100  0.76721968 -0.15322232
  0.00000284 -0.00000105 -0.00000069 -0.15318579  0.88732302
################################################################################
Occupancy matrix of Hubbard site      1 and spin      2 is 
  m_l =   -2          -1           0           1           2
  0.26628143 -0.13424352 -0.00000268  0.00000207  0.00000227
 -0.13427489  0.37283352  0.00000153  0.00000201 -0.00000075
 -0.00000126 -0.00000033  0.16414705 -0.00000025  0.00000078
  0.00000101  0.00000206  0.00000078  0.37283101  0.13427616
  0.00000232 -0.00000185  0.00000157  0.13424602  0.26628483
WARNING: DFT+U ENERGY of Hubbard site      1 and spin      2 is negative.
################################################################################
Total occupancy of Hubbard site      1 is         5.74234770 e
Local magnetic moment of Hubbard site      1 is   2.85759200 mu_B
DFT+U energy of Hubbard site      1 is           -0.00530064 Ha
################################################################################

##### For calculating the Hubbard U and Hund J #################################
DFT+U information on Hubbard site      1 of species CrU  and spin      1
The average Hxc+local potential is            -18.99369976 eV.
The average Hubbard potential is                0.00000000 eV.
The average non-local PAW contribution is     -10.92786690 eV.
################################################################################
DFT+U information on Hubbard site      1 of species CrU  and spin      2
The average Hxc+local potential is            -17.93781568 eV.
The average Hubbard potential is               -0.10000000 eV.
The average non-local PAW contribution is      -9.49820907 eV.
################################################################################

======================== Writing density and potential =========================
Writing "U_-0.5_-0.1_ps_density.cube" ... done
Writing "U_-0.5_-0.1_ps_spindensity.cube" ... done
Writing "U_-0.5_-0.1_ae_density.cube" ... done
Writing "U_-0.5_-0.1_ae_spindensity.cube" ... done
Writing "U_-0.5_-0.1_potential.cube" ... done
Writing "U_-0.5_-0.1_electrostatic_potential.cube" ... done
================================================================================

    Mulliken Atomic Populations
    ---------------------------
Species  Ion    Total   Charge (e)    Spin (hbar)
=================================================
  Cr     1      13.844      0.156      1.68
  Cr     2      13.843      0.157      1.68
  I      3       7.052     -0.052     -0.06
  I      4       7.052     -0.052     -0.06
  I      5       7.052     -0.052     -0.06
  I      6       7.052     -0.052     -0.06
  I      7       7.052     -0.052     -0.06
  I      8       7.052     -0.052     -0.06
  Cr     9      13.844      0.156      1.68
  Cr    10      13.844      0.156      1.68
  I     11       7.052     -0.052     -0.06
  I     12       7.052     -0.052     -0.06
  I     13       7.052     -0.052     -0.06
  I     14       7.052     -0.052     -0.06
  I     15       7.052     -0.052     -0.06
  I     16       7.052     -0.052     -0.06
  Cr    17      13.844      0.156      1.68
  Cr    18      13.843      0.157      1.68
  I     19       7.052     -0.052     -0.06
  I     20       7.052     -0.052     -0.06
  I     21       7.052     -0.052     -0.06
  I     22       7.052     -0.052     -0.06
  I     23       7.052     -0.052     -0.06
  I     24       7.052     -0.052     -0.06
  Cr    25      13.843      0.157      1.68
  Cr    26      13.844      0.156      1.68
  I     27       7.052     -0.052     -0.06
  I     28       7.052     -0.052     -0.06
  I     29       7.052     -0.052     -0.06
  I     30       7.052     -0.052     -0.06
  I     31       7.052     -0.052     -0.06
  I     32       7.052     -0.052     -0.06
  Cr    33      13.843      0.157      1.68
  Cr    34      13.844      0.156      1.68
  I     35       7.052     -0.052     -0.06
  I     36       7.052     -0.052     -0.06
  I     37       7.052     -0.052     -0.06
  I     38       7.052     -0.052     -0.06
  I     39       7.052     -0.052     -0.06
  I     40       7.052     -0.052     -0.06
  Cr    41      13.844      0.156      1.68
  Cr    42      13.843      0.157      1.68
  I     43       7.052     -0.052     -0.06
  I     44       7.052     -0.052     -0.06
  I     45       7.052     -0.052     -0.06
  I     46       7.052     -0.052     -0.06
  I     47       7.052     -0.052     -0.06
  I     48       7.052     -0.052     -0.06
  Cr    49      13.843      0.157      1.68
  Cr    50      13.844      0.156      1.68
  I     51       7.052     -0.052     -0.06
  I     52       7.052     -0.052     -0.06
  I     53       7.052     -0.052     -0.06
  I     54       7.052     -0.052     -0.06
  I     55       7.052     -0.052     -0.06
  I     56       7.052     -0.052     -0.06
  Cr    57      13.843      0.157      1.68
  Cr    58      13.844      0.156      1.68
  I     59       7.052     -0.052     -0.06
  I     60       7.052     -0.052     -0.06
  I     61       7.052     -0.052     -0.06
  I     62       7.052     -0.052     -0.06
  I     63       7.052     -0.052     -0.06
  I     64       7.052     -0.052     -0.06
  Cr    65      13.845      0.155      1.68
  Cr    66      13.846      0.154      1.68
  I     67       7.052     -0.052     -0.06
  I     68       7.052     -0.052     -0.06
  I     69       7.052     -0.052     -0.06
  I     70       7.052     -0.052     -0.06
  I     71       7.052     -0.052     -0.06
  I     72       7.052     -0.052     -0.06
  Cr    73      13.843      0.157      1.68
  Cr    74      13.843      0.157      1.68
  I     75       7.052     -0.052     -0.06
  I     76       7.052     -0.052     -0.06
  I     77       7.052     -0.052     -0.06
  I     78       7.052     -0.052     -0.06
  I     79       7.052     -0.052     -0.06
  I     80       7.052     -0.052     -0.06
  Cr    81      13.844      0.156      1.68
  Cr    82      13.844      0.156      1.68
  I     83       7.052     -0.052     -0.06
  I     84       7.052     -0.052     -0.06
  I     85       7.052     -0.052     -0.06
  I     86       7.052     -0.052     -0.06
  I     87       7.052     -0.052     -0.06
  I     88       7.052     -0.052     -0.06
  Cr    89      13.844      0.156      1.68
  Cr    90      13.843      0.157      1.68
  I     91       7.052     -0.052     -0.06
  I     92       7.052     -0.052     -0.06
  I     93       7.052     -0.052     -0.06
  I     94       7.052     -0.052     -0.06
  I     95       7.052     -0.052     -0.06
  I     96       7.052     -0.052     -0.06
  Cr    97      13.845      0.155      1.68
  Cr    98      13.844      0.156      1.68
  I     99       7.052     -0.052     -0.06
  I    100       7.052     -0.052     -0.06
  I    101       7.052     -0.052     -0.06
  I    102       7.052     -0.052     -0.06
  I    103       7.052     -0.052     -0.06
  I    104       7.052     -0.052     -0.06
  Cr   105      13.843      0.157      1.68
  Cr   106      13.843      0.157      1.68
  I    107       7.052     -0.052     -0.06
  I    108       7.052     -0.052     -0.06
  I    109       7.052     -0.052     -0.06
  I    110       7.052     -0.052     -0.06
  I    111       7.052     -0.052     -0.06
  I    112       7.052     -0.052     -0.06
  Cr   113      13.844      0.156      1.68
  Cr   114      13.844      0.156      1.68
  I    115       7.052     -0.052     -0.06
  I    116       7.052     -0.052     -0.06
  I    117       7.052     -0.052     -0.06
  I    118       7.052     -0.052     -0.06
  I    119       7.052     -0.052     -0.06
  I    120       7.052     -0.052     -0.06
  Cr   121      13.848      0.152      1.65
  Cr   122      13.846      0.154      1.68
  I    123       7.051     -0.051     -0.06
  I    124       7.051     -0.051     -0.06
  I    125       7.052     -0.052     -0.06
  I    126       7.051     -0.051     -0.06
  I    127       7.051     -0.051     -0.06
  I    128       7.052     -0.052     -0.06
  Cr   129      13.845      0.155      1.68
  Cr   130      13.844      0.156      1.68
  I    131       7.052     -0.052     -0.06
  I    132       7.052     -0.052     -0.06
  I    133       7.052     -0.052     -0.06
  I    134       7.052     -0.052     -0.06
  I    135       7.052     -0.052     -0.06
  I    136       7.052     -0.052     -0.06
  Cr   137      13.843      0.157      1.68
  Cr   138      13.843      0.157      1.68
  I    139       7.052     -0.052     -0.06
  I    140       7.052     -0.052     -0.06
  I    141       7.052     -0.052     -0.06
  I    142       7.052     -0.052     -0.06
  I    143       7.052     -0.052     -0.06
  I    144       7.052     -0.052     -0.06
  Cr   145      13.843      0.157      1.68
  Cr   146      13.843      0.157      1.68
  I    147       7.052     -0.052     -0.06
  I    148       7.052     -0.052     -0.06
  I    149       7.052     -0.052     -0.06
  I    150       7.052     -0.052     -0.06
  I    151       7.052     -0.052     -0.06
  I    152       7.052     -0.052     -0.06
  Cr   153      13.844      0.156      1.68
  Cr   154      13.843      0.157      1.68
  I    155       7.052     -0.052     -0.06
  I    156       7.052     -0.052     -0.06
  I    157       7.052     -0.052     -0.06
  I    158       7.052     -0.052     -0.06
  I    159       7.052     -0.052     -0.06
  I    160       7.052     -0.052     -0.06
  Cr   161      13.844      0.156      1.68
  Cr   162      13.843      0.157      1.68
  I    163       7.052     -0.052     -0.06
  I    164       7.052     -0.052     -0.06
  I    165       7.052     -0.052     -0.06
  I    166       7.052     -0.052     -0.06
  I    167       7.052     -0.052     -0.06
  I    168       7.052     -0.052     -0.06
  Cr   169      13.843      0.157      1.68
  Cr   170      13.844      0.156      1.68
  I    171       7.052     -0.052     -0.06
  I    172       7.052     -0.052     -0.06
  I    173       7.052     -0.052     -0.06
  I    174       7.052     -0.052     -0.06
  I    175       7.052     -0.052     -0.06
  I    176       7.052     -0.052     -0.06
  Cr   177      13.843      0.157      1.68
  Cr   178      13.843      0.157      1.68
  I    179       7.052     -0.052     -0.06
  I    180       7.052     -0.052     -0.06
  I    181       7.052     -0.052     -0.06
  I    182       7.052     -0.052     -0.06
  I    183       7.052     -0.052     -0.06
  I    184       7.052     -0.052     -0.06
  Cr   185      13.844      0.156      1.68
  Cr   186      13.843      0.157      1.68
  I    187       7.052     -0.052     -0.06
  I    188       7.052     -0.052     -0.06
  I    189       7.052     -0.052     -0.06
  I    190       7.052     -0.052     -0.06
  I    191       7.052     -0.052     -0.06
  I    192       7.052     -0.052     -0.06
  Cr   193      13.844      0.156      1.68
  Cr   194      13.844      0.156      1.68
  I    195       7.052     -0.052     -0.06
  I    196       7.052     -0.052     -0.06
  I    197       7.052     -0.052     -0.06
  I    198       7.052     -0.052     -0.06
  I    199       7.052     -0.052     -0.06
  I    200       7.052     -0.052     -0.06
  Cr   201      13.843      0.157      1.68
  Cr   202      13.844      0.156      1.68
  I    203       7.052     -0.052     -0.06
  I    204       7.052     -0.052     -0.06
  I    205       7.052     -0.052     -0.06
  I    206       7.052     -0.052     -0.06
  I    207       7.052     -0.052     -0.06
  I    208       7.052     -0.052     -0.06
  Cr   209      13.843      0.157      1.68
  Cr   210      13.843      0.157      1.68
  I    211       7.052     -0.052     -0.06
  I    212       7.052     -0.052     -0.06
  I    213       7.052     -0.052     -0.06
  I    214       7.052     -0.052     -0.06
  I    215       7.052     -0.052     -0.06
  I    216       7.052     -0.052     -0.06
  Cr   217      13.845      0.155      1.68
  Cr   218      13.846      0.154      1.68
  I    219       7.052     -0.052     -0.06
  I    220       7.052     -0.052     -0.06
  I    221       7.051     -0.051     -0.06
  I    222       7.052     -0.052     -0.06
  I    223       7.052     -0.052     -0.06
  I    224       7.051     -0.051     -0.06
  Cr   225      13.844      0.156      1.68
  Cr   226      13.843      0.157      1.68
  I    227       7.052     -0.052     -0.06
  I    228       7.052     -0.052     -0.06
  I    229       7.052     -0.052     -0.06
  I    230       7.052     -0.052     -0.06
  I    231       7.052     -0.052     -0.06
  I    232       7.052     -0.052     -0.06
  Cr   233      13.844      0.156      1.68
  Cr   234      13.843      0.157      1.68
  I    235       7.052     -0.052     -0.06
  I    236       7.052     -0.052     -0.06
  I    237       7.052     -0.052     -0.06
  I    238       7.052     -0.052     -0.06
  I    239       7.052     -0.052     -0.06
  I    240       7.052     -0.052     -0.06
  Cr   241      13.843      0.157      1.68
  Cr   242      13.844      0.156      1.68
  I    243       7.052     -0.052     -0.06
  I    244       7.052     -0.052     -0.06
  I    245       7.052     -0.052     -0.06
  I    246       7.052     -0.052     -0.06
  I    247       7.052     -0.052     -0.06
  I    248       7.052     -0.052     -0.06
  Cr   249      13.843      0.157      1.68
  Cr   250      13.844      0.156      1.68
  I    251       7.052     -0.052     -0.06
  I    252       7.052     -0.052     -0.06
  I    253       7.052     -0.052     -0.06
  I    254       7.052     -0.052     -0.06
  I    255       7.052     -0.052     -0.06
  I    256       7.052     -0.052     -0.06
  Cr   257      13.844      0.156      1.68
  Cr   258      13.844      0.156      1.68
  I    259       7.052     -0.052     -0.06
  I    260       7.052     -0.052     -0.06
  I    261       7.052     -0.052     -0.06
  I    262       7.052     -0.052     -0.06
  I    263       7.052     -0.052     -0.06
  I    264       7.052     -0.052     -0.06
  Cr   265      13.843      0.157      1.68
  Cr   266      13.844      0.156      1.68
  I    267       7.052     -0.052     -0.06
  I    268       7.052     -0.052     -0.06
  I    269       7.052     -0.052     -0.06
  I    270       7.052     -0.052     -0.06
  I    271       7.052     -0.052     -0.06
  I    272       7.052     -0.052     -0.06
  Cr   273      13.843      0.157      1.68
  Cr   274      13.844      0.156      1.68
  I    275       7.052     -0.052     -0.06
  I    276       7.052     -0.052     -0.06
  I    277       7.052     -0.052     -0.06
  I    278       7.052     -0.052     -0.06
  I    279       7.052     -0.052     -0.06
  I    280       7.052     -0.052     -0.06
  Cr   281      13.844      0.156      1.68
  Cr   282      13.843      0.157      1.68
  I    283       7.052     -0.052     -0.06
  I    284       7.052     -0.052     -0.06
  I    285       7.052     -0.052     -0.06
  I    286       7.052     -0.052     -0.06
  I    287       7.052     -0.052     -0.06
  I    288       7.052     -0.052     -0.06
=================================================

        Bond         Population      Spin       Length (bohr)
=============================================================
 Cr  186 -- I   191        0.32     -0.03      4.86412
 Cr  178 -- I   183        0.32     -0.03      4.86412
 Cr  154 -- I   159        0.32     -0.03      4.86412
 Cr  162 -- I   167        0.32     -0.03      4.86412
 Cr  146 -- I   151        0.32     -0.03      4.86412
 Cr   82 -- I    87        0.31     -0.03      4.86412
 Cr  250 -- I   255        0.32     -0.03      4.86412
 Cr  226 -- I   231        0.32     -0.03      4.86412
 Cr   74 -- I    79        0.32     -0.03      4.86412
 Cr   10 -- I    15        0.32     -0.03      4.86412
 Cr  106 -- I   111        0.32     -0.03      4.86412
 Cr   34 -- I    39        0.32     -0.03      4.86412
 Cr   42 -- I    47        0.32     -0.03      4.86412
 Cr   18 -- I    23        0.32     -0.03      4.86412
 Cr  114 -- I   119        0.32     -0.03      4.86412
 Cr    2 -- I     7        0.32     -0.03      4.86412
 Cr   90 -- I    95        0.32     -0.03      4.86412
 Cr  218 -- I   223        0.32     -0.03      4.86412
 Cr  258 -- I   263        0.31     -0.03      4.86412
 Cr  234 -- I   239        0.32     -0.03      4.86412
 Cr  274 -- I   279        0.31     -0.03      4.86412
 Cr  130 -- I   135        0.32     -0.03      4.86412
 Cr   98 -- I   103        0.32     -0.03      4.86412
 Cr   66 -- I    71        0.32     -0.03      4.86412
 Cr  242 -- I   247        0.32     -0.03      4.86412
 Cr   50 -- I    55        0.32     -0.03      4.86412
 Cr   26 -- I    31        0.31     -0.03      4.86412
 Cr   58 -- I    63        0.32     -0.03      4.86412
 Cr  210 -- I   215        0.32     -0.03      4.86412
 Cr  170 -- I   175        0.32     -0.03      4.86412
 Cr  122 -- I   127        0.31     -0.03      4.86412
 Cr  266 -- I   271        0.32     -0.03      4.86412
 Cr  282 -- I   287        0.32     -0.03      4.86412
 Cr  138 -- I   143        0.32     -0.03      4.86412
 Cr  202 -- I   207        0.32     -0.03      4.86412
 Cr  194 -- I   199        0.31     -0.03      4.86412
 Cr  210 -- I   212        0.32     -0.03      4.86413
 Cr  138 -- I   140        0.32     -0.03      4.86413
 Cr   90 -- I    92        0.32     -0.03      4.86413
 Cr  258 -- I   260        0.31     -0.03      4.86413
 Cr  234 -- I   236        0.32     -0.03      4.86413
 Cr   42 -- I    44        0.32     -0.03      4.86413
 Cr   66 -- I    68        0.32     -0.03      4.86413
 Cr  114 -- I   116        0.32     -0.03      4.86413
 Cr   18 -- I    20        0.32     -0.03      4.86413
 Cr  162 -- I   164        0.32     -0.03      4.86413
 Cr  282 -- I   284        0.32     -0.03      4.86413
 Cr  186 -- I   188        0.32     -0.03      4.86413
 Cr  194 -- I   196        0.31     -0.03      4.86413
 Cr  202 -- I   204        0.32     -0.03      4.86413
 Cr   50 -- I    52        0.32     -0.03      4.86413
 Cr   58 -- I    60        0.32     -0.03      4.86413
 Cr  122 -- I   124        0.32     -0.03      4.86413
 Cr  266 -- I   268        0.32     -0.03      4.86413
 Cr  274 -- I   276        0.31     -0.03      4.86413
 Cr  130 -- I   132        0.32     -0.03      4.86413
 Cr  154 -- I   156        0.31     -0.03      4.86413
 Cr  170 -- I   172        0.32     -0.03      4.86413
 Cr   34 -- I    36        0.32     -0.03      4.86413
 Cr   10 -- I    12        0.32     -0.03      4.86413
 Cr  146 -- I   148        0.32     -0.03      4.86413
 Cr    2 -- I     4        0.32     -0.03      4.86413
 Cr   26 -- I    28        0.31     -0.03      4.86413
 Cr  242 -- I   244        0.32     -0.03      4.86413
 Cr  218 -- I   220        0.32     -0.03      4.86413
 Cr  178 -- I   180        0.32     -0.03      4.86413
 Cr   74 -- I    76        0.32     -0.03      4.86413
 Cr   98 -- I   100        0.32     -0.03      4.86413
 Cr  250 -- I   252        0.32     -0.03      4.86413
 Cr  226 -- I   228        0.32     -0.03      4.86413
 Cr  106 -- I   108        0.32     -0.03      4.86413
 Cr   82 -- I    84        0.31     -0.03      4.86413
 Cr  153 -- I   159        0.32     -0.03      4.86414
 Cr  177 -- I   183        0.32     -0.03      4.86414
 Cr   41 -- I    47        0.32     -0.03      4.86414
 Cr  161 -- I   167        0.32     -0.03      4.86414
 Cr    9 -- I    15        0.32     -0.03      4.86414
 Cr  185 -- I   191        0.32     -0.03      4.86414
 Cr   33 -- I    39        0.32     -0.03      4.86414
 Cr   17 -- I    23        0.32     -0.03      4.86414
 Cr  113 -- I   119        0.32     -0.03      4.86414
 Cr   89 -- I    95        0.32     -0.03      4.86414
 Cr  233 -- I   239        0.32     -0.03      4.86414
 Cr  257 -- I   263        0.32     -0.03      4.86414
 Cr  249 -- I   255        0.32     -0.03      4.86414
 Cr  225 -- I   231        0.32     -0.03      4.86414
 Cr   81 -- I    87        0.32     -0.03      4.86414
 Cr  105 -- I   111        0.32     -0.03      4.86414
 Cr  209 -- I   215        0.32     -0.03      4.86414
 Cr   65 -- I    71        0.31     -0.03      4.86414
 Cr   57 -- I    63        0.32     -0.03      4.86414
 Cr  137 -- I   143        0.32     -0.03      4.86414
 Cr  201 -- I   207        0.32     -0.03      4.86414
 Cr  281 -- I   287        0.32     -0.03      4.86414
 Cr  129 -- I   135        0.31     -0.03      4.86414
 Cr  273 -- I   279        0.32     -0.03      4.86414
 Cr   73 -- I    79        0.32     -0.03      4.86414
 Cr  217 -- I   223        0.32     -0.03      4.86414
 Cr  145 -- I   151        0.32     -0.03      4.86414
 Cr    1 -- I     7        0.32     -0.03      4.86414
 Cr  121 -- I   127        0.32     -0.03      4.86414
 Cr  241 -- I   247        0.32     -0.03      4.86414
 Cr   97 -- I   103        0.32     -0.03      4.86414
 Cr  265 -- I   271        0.32     -0.03      4.86414
 Cr   49 -- I    55        0.32     -0.03      4.86414
 Cr   25 -- I    31        0.32     -0.03      4.86414
 Cr  169 -- I   175        0.32     -0.03      4.86414
 Cr  193 -- I   199        0.32     -0.03      4.86414
 Cr  193 -- I   196        0.32     -0.03      4.86414
 Cr   49 -- I    52        0.32     -0.03      4.86414
 Cr  265 -- I   268        0.32     -0.03      4.86414
 Cr  121 -- I   124        0.32     -0.03      4.86414
 Cr  257 -- I   260        0.32     -0.03      4.86414
 Cr  169 -- I   172        0.32     -0.03      4.86414
 Cr  145 -- I   148        0.32     -0.03      4.86414
 Cr   65 -- I    68        0.32     -0.03      4.86414
 Cr  137 -- I   140        0.32     -0.03      4.86414
 Cr  185 -- I   188        0.32     -0.03      4.86414
 Cr  281 -- I   284        0.32     -0.03      4.86414
 Cr  209 -- I   212        0.32     -0.03      4.86414
 Cr  161 -- I   164        0.32     -0.03      4.86414
 Cr    1 -- I     4        0.32     -0.03      4.86414
 Cr   41 -- I    44        0.32     -0.03      4.86414
 Cr  113 -- I   116        0.32     -0.03      4.86414
 Cr  241 -- I   244        0.31     -0.03      4.86414
 Cr   25 -- I    28        0.32     -0.03      4.86414
 Cr   17 -- I    20        0.32     -0.03      4.86414
 Cr   89 -- I    92        0.32     -0.03      4.86414
 Cr  217 -- I   220        0.32     -0.03      4.86414
 Cr  233 -- I   236        0.32     -0.03      4.86414
 Cr   97 -- I   100        0.31     -0.03      4.86414
 Cr   73 -- I    76        0.32     -0.03      4.86414
 Cr  273 -- I   276        0.31     -0.03      4.86414
 Cr  201 -- I   204        0.32     -0.03      4.86414
 Cr  129 -- I   132        0.32     -0.03      4.86414
 Cr   57 -- I    60        0.32     -0.03      4.86414
 Cr   81 -- I    84        0.32     -0.03      4.86414
 Cr  105 -- I   108        0.32     -0.03      4.86414
 Cr  249 -- I   252        0.32     -0.03      4.86414
 Cr  225 -- I   228        0.32     -0.03      4.86414
 Cr  153 -- I   156        0.32     -0.03      4.86414
 Cr   33 -- I    36        0.32     -0.03      4.86414
 Cr  177 -- I   180        0.32     -0.03      4.86414
 Cr    9 -- I    12        0.32     -0.03      4.86414
 I    27 -- Cr  114        0.32     -0.03      5.11128
 I     3 -- Cr   90        0.32     -0.03      5.11128
 I    51 -- Cr  138        0.32     -0.03      5.11128
 Cr  266 -- I   275        0.32     -0.03      5.11128
 Cr  122 -- I   131        0.32     -0.03      5.11128
 Cr   74 -- I    83        0.32     -0.03      5.11128
 Cr   98 -- I   107        0.32     -0.03      5.11128
 Cr  242 -- I   251        0.32     -0.03      5.11128
 Cr  218 -- I   227        0.32     -0.03      5.11128
 Cr  146 -- I   155        0.31     -0.03      5.11128
 Cr  170 -- I   179        0.32     -0.03      5.11128
 Cr   50 -- I    59        0.32     -0.03      5.11128
 Cr    2 -- I    11        0.32     -0.03      5.11128
 Cr   26 -- I    35        0.31     -0.03      5.11128
 Cr  194 -- I   203        0.31     -0.03      5.11128
 I   171 -- Cr  258        0.31     -0.03      5.11128
 I   195 -- Cr  282        0.32     -0.03      5.11128
 I   147 -- Cr  234        0.32     -0.03      5.11128
 Cr  194 -- I   197        0.31     -0.03      5.11128
 Cr  210 -- I   213        0.31     -0.03      5.11128
 Cr  250 -- I   253        0.32     -0.03      5.11128
 Cr  242 -- I   245        0.32     -0.03      5.11128
 Cr   50 -- I    53        0.32     -0.03      5.11128
 Cr  234 -- I   237        0.32     -0.03      5.11128
 Cr  226 -- I   229        0.32     -0.03      5.11128
 Cr  218 -- I   221        0.31     -0.03      5.11128
 Cr   26 -- I    29        0.31     -0.03      5.11128
 Cr  154 -- I   157        0.31     -0.03      5.11128
 Cr  146 -- I   149        0.31     -0.03      5.11128
 Cr  106 -- I   109        0.32     -0.03      5.11128
 Cr  282 -- I   285        0.32     -0.03      5.11128
 Cr    2 -- I     5        0.32     -0.03      5.11128
 Cr  122 -- I   125        0.32     -0.03      5.11128
 Cr  130 -- I   133        0.32     -0.03      5.11128
 Cr   10 -- I    13        0.31     -0.03      5.11128
 Cr   58 -- I    61        0.31     -0.03      5.11128
 Cr   42 -- I    45        0.31     -0.03      5.11128
 Cr   82 -- I    85        0.31     -0.03      5.11128
 Cr   34 -- I    37        0.31     -0.03      5.11128
 Cr   18 -- I    21        0.31     -0.03      5.11128
 Cr  138 -- I   141        0.32     -0.03      5.11128
 Cr   98 -- I   101        0.32     -0.03      5.11128
 Cr   90 -- I    93        0.32     -0.03      5.11128
 Cr  114 -- I   117        0.32     -0.03      5.11128
 Cr   66 -- I    69        0.32     -0.03      5.11128
 Cr  202 -- I   205        0.32     -0.03      5.11128
 Cr  170 -- I   173        0.32     -0.03      5.11128
 Cr   74 -- I    77        0.32     -0.03      5.11128
 Cr  274 -- I   277        0.31     -0.03      5.11128
 Cr  162 -- I   165        0.31     -0.03      5.11128
 Cr  266 -- I   269        0.32     -0.03      5.11128
 Cr  178 -- I   181        0.32     -0.03      5.11128
 Cr  258 -- I   261        0.31     -0.03      5.11128
 Cr  186 -- I   189        0.31     -0.03      5.11128
 Cr  186 -- I   243        0.32     -0.03      5.11128
 Cr  210 -- I   267        0.31     -0.03      5.11128
 Cr  162 -- I   219        0.32     -0.03      5.11128
 Cr  274 -- I   283        0.31     -0.03      5.11128
 Cr  130 -- I   139        0.32     -0.03      5.11128
 Cr   82 -- I    91        0.31     -0.03      5.11128
 Cr  106 -- I   115        0.31     -0.03      5.11128
 Cr   34 -- I    43        0.32     -0.03      5.11128
 Cr   58 -- I    67        0.32     -0.03      5.11128
 Cr  226 -- I   235        0.32     -0.03      5.11128
 Cr  202 -- I   211        0.32     -0.03      5.11128
 Cr  178 -- I   187        0.31     -0.03      5.11128
 Cr   10 -- I    19        0.32     -0.03      5.11128
 Cr  154 -- I   163        0.32     -0.03      5.11128
 Cr  250 -- I   259        0.32     -0.03      5.11128
 Cr   18 -- I    75        0.32     -0.03      5.11128
 Cr   66 -- I   123        0.31     -0.03      5.11128
 Cr   42 -- I    99        0.32     -0.03      5.11128
 Cr  234 -- I   240        0.32     -0.03      5.11128
 Cr  138 -- I   144        0.31     -0.03      5.11128
 Cr  282 -- I   288        0.32     -0.03      5.11128
 Cr  258 -- I   264        0.31     -0.03      5.11128
 Cr  114 -- I   120        0.32     -0.03      5.11128
 Cr   90 -- I    96        0.32     -0.03      5.11128
 Cr  242 -- I   248        0.32     -0.03      5.11128
 Cr  122 -- I   128        0.32     -0.03      5.11128
 Cr  218 -- I   224        0.31     -0.03      5.11128
 Cr  194 -- I   200        0.31     -0.03      5.11128
 Cr   98 -- I   104        0.32     -0.03      5.11128
 Cr   74 -- I    80        0.31     -0.03      5.11128
 Cr  210 -- I   216        0.32     -0.03      5.11128
 Cr   42 -- I    48        0.32     -0.03      5.11128
 Cr   66 -- I    72        0.32     -0.03      5.11128
 Cr   50 -- I    56        0.32     -0.03      5.11128
 Cr   18 -- I    24        0.32     -0.03      5.11128
 Cr   26 -- I    32        0.31     -0.03      5.11128
 Cr   10 -- I    16        0.32     -0.03      5.11128
 Cr  250 -- I   256        0.32     -0.03      5.11128
 Cr    2 -- I     8        0.32     -0.03      5.11128
 Cr   34 -- I    40        0.32     -0.03      5.11128
 Cr  146 -- I   152        0.31     -0.03      5.11128
 Cr  266 -- I   272        0.32     -0.03      5.11128
 Cr  154 -- I   160        0.31     -0.03      5.11128
 Cr   58 -- I    64        0.32     -0.03      5.11128
 Cr  202 -- I   208        0.32     -0.03      5.11128
 Cr  162 -- I   168        0.32     -0.03      5.11128
 Cr  170 -- I   176        0.32     -0.03      5.11128
 Cr  178 -- I   184        0.31     -0.03      5.11128
 Cr  130 -- I   136        0.32     -0.03      5.11128
 Cr  226 -- I   232        0.32     -0.03      5.11128
 Cr  106 -- I   112        0.31     -0.03      5.11128
 Cr   82 -- I    88        0.31     -0.03      5.11128
 Cr  186 -- I   192        0.32     -0.03      5.11128
 Cr  274 -- I   280        0.31     -0.03      5.11128
 Cr  130 -- I   142        0.32     -0.03      5.11128
 Cr  274 -- I   286        0.31     -0.03      5.11128
 Cr  250 -- I   262        0.32     -0.03      5.11128
 Cr  226 -- I   238        0.31     -0.03      5.11128
 Cr  106 -- I   118        0.32     -0.03      5.11128
 Cr   82 -- I    94        0.31     -0.03      5.11128
 Cr  266 -- I   278        0.32     -0.03      5.11128
 Cr  242 -- I   254        0.32     -0.03      5.11128
 Cr  218 -- I   230        0.32     -0.03      5.11128
 Cr  194 -- I   206        0.31     -0.03      5.11128
 Cr  122 -- I   134        0.32     -0.03      5.11128
 Cr   34 -- I    46        0.32     -0.03      5.11128
 Cr  154 -- I   166        0.31     -0.03      5.11128
 Cr   26 -- I    38        0.31     -0.03      5.11128
 Cr   10 -- I    22        0.32     -0.03      5.11128
 Cr   58 -- I    70        0.32     -0.03      5.11128
 Cr   50 -- I    62        0.32     -0.03      5.11128
 Cr    2 -- I    14        0.32     -0.03      5.11128
 Cr  170 -- I   182        0.32     -0.03      5.11128
 Cr   74 -- I    86        0.32     -0.03      5.11128
 Cr   98 -- I   110        0.32     -0.03      5.11128
 Cr  146 -- I   158        0.32     -0.03      5.11128
 Cr  202 -- I   214        0.32     -0.03      5.11128
 Cr  178 -- I   190        0.32     -0.03      5.11128
 I   198 -- Cr  282        0.32     -0.03      5.11128
 I   150 -- Cr  234        0.31     -0.03      5.11128
 I   174 -- Cr  258        0.31     -0.03      5.11128
 I    54 -- Cr  138        0.32     -0.03      5.11128
 I     6 -- Cr   90        0.32     -0.03      5.11128
 I    30 -- Cr  114        0.32     -0.03      5.11128
 Cr   18 -- I    78        0.32     -0.03      5.11128
 Cr   42 -- I   102        0.32     -0.03      5.11128
 Cr   66 -- I   126        0.31     -0.03      5.11128
 Cr  210 -- I   270        0.32     -0.03      5.11128
 Cr  162 -- I   222        0.31     -0.03      5.11128
 Cr  186 -- I   246        0.31     -0.03      5.11128
 Cr  265 -- I   270        0.32     -0.03      5.11131
 Cr  241 -- I   246        0.32     -0.03      5.11131
 Cr  217 -- I   222        0.32     -0.03      5.11131
 Cr   97 -- I   102        0.31     -0.03      5.11131
 Cr   73 -- I    78        0.31     -0.03      5.11131
 Cr  121 -- I   126        0.32     -0.03      5.11131
 Cr  249 -- I   280        0.31     -0.03      5.11131
 Cr  185 -- I   216        0.32     -0.03      5.11131
 Cr  161 -- I   192        0.32     -0.03      5.11131
 Cr  153 -- I   184        0.32     -0.03      5.11131
 Cr  177 -- I   208        0.32     -0.03      5.11131
 Cr   89 -- I   120        0.32     -0.03      5.11131
 Cr   33 -- I    64        0.32     -0.03      5.11131
 Cr  129 -- I   232        0.31     -0.03      5.11131
 Cr  113 -- I   144        0.32     -0.03      5.11131
 Cr  233 -- I   264        0.32     -0.03      5.11131
 Cr   41 -- I    72        0.32     -0.03      5.11131
 Cr   17 -- I    48        0.32     -0.03      5.11131
 Cr  105 -- I   136        0.32     -0.03      5.11131
 Cr   81 -- I   112        0.32     -0.03      5.11131
 Cr  137 -- I   240        0.32     -0.03      5.11131
 Cr    9 -- I    40        0.32     -0.03      5.11131
 Cr  225 -- I   256        0.32     -0.03      5.11131
 Cr  257 -- I   288        0.32     -0.03      5.11131
 Cr  145 -- I   176        0.32     -0.03      5.11131
 Cr  121 -- I   224        0.32     -0.03      5.11131
 Cr  241 -- I   272        0.31     -0.03      5.11131
 Cr   73 -- I   104        0.32     -0.03      5.11131
 Cr    1 -- I    32        0.32     -0.03      5.11131
 Cr   97 -- I   128        0.31     -0.03      5.11131
 Cr   25 -- I    56        0.32     -0.03      5.11131
 Cr  169 -- I   200        0.32     -0.03      5.11131
 Cr  217 -- I   248        0.31     -0.03      5.11131
 Cr  273 -- I   278        0.32     -0.03      5.11131
 Cr   81 -- I    86        0.32     -0.03      5.11131
 Cr  105 -- I   110        0.31     -0.03      5.11131
 Cr  281 -- I   286        0.32     -0.03      5.11131
 Cr  129 -- I   134        0.32     -0.03      5.11131
 Cr  249 -- I   254        0.32     -0.03      5.11131
 Cr  225 -- I   230        0.32     -0.03      5.11131
 Cr  137 -- I   142        0.32     -0.03      5.11131
 Cr  257 -- I   262        0.32     -0.03      5.11131
 Cr   65 -- I    70        0.32     -0.03      5.11131
 Cr   57 -- I    62        0.32     -0.03      5.11131
 Cr  113 -- I   118        0.32     -0.03      5.11131
 Cr   41 -- I    46        0.32     -0.03      5.11131
 Cr   17 -- I    22        0.32     -0.03      5.11131
 Cr  233 -- I   238        0.32     -0.03      5.11131
 Cr    9 -- I    14        0.32     -0.03      5.11131
 Cr  201 -- I   206        0.32     -0.03      5.11131
 Cr   89 -- I    94        0.32     -0.03      5.11131
 Cr  177 -- I   182        0.31     -0.03      5.11131
 Cr  161 -- I   166        0.32     -0.03      5.11131
 Cr   33 -- I    38        0.32     -0.03      5.11131
 Cr  153 -- I   158        0.32     -0.03      5.11131
 Cr  185 -- I   190        0.32     -0.03      5.11131
 Cr  209 -- I   214        0.31     -0.03      5.11131
 Cr   65 -- I   168        0.32     -0.03      5.11131
 Cr   57 -- I   160        0.32     -0.03      5.11131
[...]
*    I     148     -0.00132479  -0.00229798  -0.00479308 *
*    I     149     -0.00133384   0.00232839  -0.00478846 *
*    I     150     -0.00268295  -0.00000712   0.00478870 *
*    I     151      0.00132871   0.00229663   0.00479293 *
*    I     152      0.00133237  -0.00232973   0.00478870 *
*    Cr    153      0.00001007  -0.00000212   0.00000005 *
*    Cr    154     -0.00002231  -0.00000704  -0.00000082 *
*    I     155      0.00268397   0.00001478  -0.00478899 *
*    I     156     -0.00132449  -0.00229762  -0.00479170 *
*    I     157     -0.00133295   0.00232804  -0.00478987 *
*    I     158     -0.00268256  -0.00000590   0.00478804 *
*    I     159      0.00132794   0.00229564   0.00479214 *
*    I     160      0.00133096  -0.00232729   0.00478863 *
*    Cr    161      0.00000988  -0.00000675  -0.00000023 *
*    Cr    162     -0.00002351   0.00001277   0.00000034 *
*    I     163      0.00268193   0.00001418  -0.00478860 *
*    I     164     -0.00132442  -0.00230002  -0.00479239 *
*    I     165     -0.00133306   0.00232776  -0.00479105 *
*    I     166     -0.00268390  -0.00000967   0.00478924 *
*    I     167      0.00132955   0.00229757   0.00479227 *
*    I     168      0.00132951  -0.00233070   0.00479050 *
*    Cr    169     -0.00000949  -0.00000055  -0.00000141 *
*    Cr    170     -0.00001911   0.00000503  -0.00000162 *
*    I     171      0.00267970   0.00000506  -0.00478213 *
*    I     172     -0.00132334  -0.00229721  -0.00479192 *
*    I     173     -0.00133381   0.00232921  -0.00478990 *
*    I     174     -0.00267409  -0.00001719   0.00477887 *
*    I     175      0.00132801   0.00229425   0.00479249 *
*    I     176      0.00133173  -0.00232794   0.00478871 *
*    Cr    177     -0.00002413   0.00001389  -0.00000176 *
*    Cr    178      0.00001176  -0.00000686  -0.00000193 *
*    I     179      0.00268332   0.00001224  -0.00478926 *
*    I     180     -0.00132380  -0.00229717  -0.00479272 *
*    I     181     -0.00133439   0.00232633  -0.00478878 *
*    I     182     -0.00268280  -0.00000911   0.00478952 *
*    I     183      0.00132714   0.00229548   0.00479297 *
*    I     184      0.00132994  -0.00233221   0.00478917 *
*    Cr    185      0.00000657  -0.00000840   0.00000001 *
*    Cr    186     -0.00000496   0.00002169  -0.00000068 *
*    I     187      0.00268169   0.00001050  -0.00478716 *
*    I     188     -0.00132235  -0.00229738  -0.00479195 *
*    I     189     -0.00133385   0.00232766  -0.00478810 *
*    I     190     -0.00268489  -0.00000990   0.00478973 *
*    I     191      0.00132840   0.00229673   0.00479246 *
*    I     192      0.00133005  -0.00233180   0.00478965 *
*    Cr    193      0.00000453  -0.00000404   0.00000007 *
*    Cr    194     -0.00001704   0.00000819  -0.00000047 *
*    I     195      0.00267709  -0.00000002  -0.00478028 *
*    I     196     -0.00132941  -0.00228899  -0.00478469 *
*    I     197     -0.00132236   0.00232603  -0.00478063 *
*    I     198     -0.00267702  -0.00002044   0.00478238 *
*    I     199      0.00131736   0.00229595   0.00478417 *
*    I     200      0.00133632  -0.00232106   0.00478160 *
*    Cr    201     -0.00000217   0.00001056  -0.00000215 *
*    Cr    202     -0.00001389   0.00001491  -0.00000164 *
*    I     203      0.00267675   0.00000097  -0.00477952 *
*    I     204     -0.00132324  -0.00229658  -0.00479213 *
*    I     205     -0.00133605   0.00232535  -0.00478793 *
*    I     206     -0.00267719  -0.00002217   0.00478216 *
*    I     207      0.00132836   0.00229551   0.00479188 *
*    I     208      0.00133056  -0.00233052   0.00478961 *
*    Cr    209     -0.00001601   0.00001503   0.00000069 *
*    Cr    210      0.00001262   0.00001334   0.00000030 *
*    I     211      0.00268131   0.00001081  -0.00478719 *
*    I     212     -0.00132500  -0.00229832  -0.00479170 *
*    I     213     -0.00133575   0.00232733  -0.00478790 *
*    I     214     -0.00268271  -0.00000832   0.00478847 *
*    I     215      0.00132801   0.00229816   0.00479258 *
*    I     216      0.00133077  -0.00232984   0.00478863 *
*    Cr    217      0.00001128  -0.00003102   0.00000111 *
*    Cr    218      0.00000612   0.00000777   0.00000053 *
*    I     219      0.00268197   0.00001058  -0.00478879 *
*    I     220     -0.00134740  -0.00229237  -0.00478426 *
*    I     221     -0.00163189   0.00188347  -0.00443626 *
*    I     222     -0.00268431  -0.00001078   0.00479136 *
*    I     223      0.00131921   0.00230139   0.00478656 *
*    I     224      0.00079888  -0.00236632   0.00443811 *
*    Cr    225      0.00000641  -0.00000777  -0.00000251 *
*    Cr    226     -0.00003524  -0.00000726  -0.00000098 *
*    I     227      0.00267278   0.00001203  -0.00477155 *
*    I     228     -0.00131577  -0.00229767  -0.00478439 *
*    I     229     -0.00133353   0.00232621  -0.00478871 *
*    I     230     -0.00268025  -0.00002074   0.00477115 *
*    I     231      0.00133408   0.00228782   0.00478337 *
*    I     232      0.00133143  -0.00232893   0.00479107 *
*    Cr    233     -0.00000567  -0.00000423  -0.00000074 *
*    Cr    234     -0.00003283  -0.00000486  -0.00000051 *
*    I     235      0.00268401   0.00001104  -0.00478821 *
*    I     236     -0.00132441  -0.00229723  -0.00479306 *
*    I     237     -0.00133494   0.00232668  -0.00478867 *
*    I     238     -0.00268181  -0.00000854   0.00478901 *
*    I     239      0.00132834   0.00229621   0.00479245 *
*    I     240      0.00133295  -0.00232674   0.00478853 *
*    Cr    241      0.00000785  -0.00003473  -0.00000115 *
*    Cr    242     -0.00001314  -0.00000312  -0.00000113 *
*    I     243      0.00268144   0.00001201  -0.00478783 *
*    I     244     -0.00132302  -0.00229900  -0.00479197 *
*    I     245     -0.00133447   0.00232599  -0.00478732 *
*    I     246     -0.00268192  -0.00000921   0.00478959 *
*    I     247      0.00132871   0.00229691   0.00479191 *
*    I     248      0.00132980  -0.00232828   0.00478890 *
*    Cr    249      0.00000370  -0.00001658  -0.00000149 *
*    Cr    250     -0.00001471  -0.00000278  -0.00000171 *
*    I     251      0.00268022   0.00001326  -0.00478785 *
*    I     252     -0.00132359  -0.00229692  -0.00479081 *
*    I     253     -0.00133847   0.00231556  -0.00477915 *
*    I     254     -0.00267948  -0.00000558   0.00478702 *
*    I     255      0.00132844   0.00229773   0.00479409 *
*    I     256      0.00132001  -0.00232686   0.00477808 *
*    Cr    257     -0.00000019  -0.00001304   0.00000032 *
*    Cr    258     -0.00002198   0.00000177  -0.00000028 *
*    I     259      0.00268211   0.00001220  -0.00478862 *
*    I     260     -0.00133034  -0.00228714  -0.00478398 *
*    I     261     -0.00132099   0.00232915  -0.00478050 *
*    I     262     -0.00268028  -0.00000638   0.00478851 *
*    I     263      0.00131679   0.00229815   0.00478458 *
*    I     264      0.00133816  -0.00231667   0.00477965 *
*    Cr    265      0.00001223  -0.00003080  -0.00000072 *
*    Cr    266     -0.00000101  -0.00000543  -0.00000057 *
*    I     267      0.00268242   0.00001122  -0.00478866 *
*    I     268     -0.00132378  -0.00229773  -0.00479306 *
*    I     269     -0.00133534   0.00232757  -0.00478803 *
*    I     270     -0.00268150  -0.00000545   0.00478860 *
*    I     271      0.00132746   0.00229665   0.00479243 *
*    I     272      0.00133052  -0.00232827   0.00478856 *
*    Cr    273      0.00001245  -0.00001978  -0.00000045 *
*    Cr    274     -0.00001003  -0.00000628   0.00000060 *
*    I     275      0.00268254   0.00001454  -0.00478904 *
*    I     276     -0.00132940  -0.00228775  -0.00478392 *
*    I     277     -0.00132283   0.00232788  -0.00477993 *
*    I     278     -0.00268031  -0.00000590   0.00478822 *
*    I     279      0.00131755   0.00229772   0.00478460 *
*    I     280      0.00133780  -0.00231685   0.00477998 *
*    Cr    281      0.00000881  -0.00000817  -0.00000023 *
*    Cr    282     -0.00001171   0.00000337  -0.00000007 *
*    I     283      0.00267698   0.00000546  -0.00478163 *
*    I     284     -0.00133066  -0.00228780  -0.00478331 *
*    I     285     -0.00131939   0.00232908  -0.00478090 *
*    I     286     -0.00267627  -0.00001677   0.00478017 *
*    I     287      0.00131538   0.00229556   0.00478460 *
*    I     288      0.00133798  -0.00231729   0.00477948 *
*                                                        *
**********************************************************
* TOTAL:           -0.00000000  -0.00000000  -0.00000000 *
**********************************************************
 
 
***********************************************************
********** Summary of Forces (values in Eh/a) *************
*                                                         *
* ---------------------- Minimum ------------------------ *
* Atom:        50, |F|min =    0.00000531                 *
* Components:     Fx|min       Fy|min       Fz|min        *
*               0.00000488   0.00000173  -0.00000118      *
*                                                         *
* ---------------------- Maximum ------------------------ *
* Atom:       222, |F|max =    0.00549207                 *
* Components:     Fx|max       Fy|max       Fz|max        *
*              -0.00268431  -0.00001078   0.00479136      *
*                                                         *
* ---------------- Root Mean Square Force --------------- *
*                  |F|rms =    0.00473828                 *
* Components:     Fx|rms       Fy|rms       Fz|rms        *
*               0.00163378   0.00163136   0.00413771      *
***********************************************************
 

------------------------------ TIMING INFORMATION ------------------------------
AVERAGE TIME:   23657.589s on     56 proc(s)                                    
TOTAL TIME:     23657.589s on     56 proc(s)                                    
==================== AVERAGE TIMINGS FROM ALL PROCS (CUMULATIVE) =====================
|| TAG                                         #calls     cpu time   %total  Gflops ||
|| hubbard_species_proj                       :     1        0.00s   0.000%  ------ ||
|| hubbard_ngwf_on_grid                       :     1        0.00s   0.000%  ------ ||
|| sw_bessel_init_cpu                         :     1        0.01s   0.000%  ------ || (1 procs only)
|| hash_table_free                            :    49        0.00s   0.000%  ------ ||
|| hubbard_ngwf_select                        :     1        0.00s   0.000%  ------ ||
|| hubbard_projector_character                :     1        0.00s   0.000%  ------ ||
|| onetep.F90 final imbalance                 :     1        0.00s   0.000%  ------ ||
|| linalg_invert_sym_matrix                   :     4        0.05s   0.000%  ------ || (1 procs only)
|| hubbard_tensorial_correction               :     2        0.00s   0.000%  ------ ||
|| density_fftbox_interp_mult_imbal           : 17622        0.00s   0.000%  ------ ||
|| ewald_calculate_forces_realspace           :     1        0.00s   0.000%  ------ ||
|| linalg_dgemv                               :    44        0.02s   0.000%  ------ ||
|| sparse_blacstospam3_real_fast_imbal        :    96        0.03s   0.000%  ------ ||
|| ewald_calculate_energy                     :     1        0.04s   0.000%  ------ ||
|| sparse_set_to_garbage                      :  1070        0.04s   0.000%  ------ ||
|| sparse_spam3toblacs_real_fast_imbal        :    82        0.05s   0.000%  ------ ||
|| ewald_calculate_forces_recipspace          :     1        0.07s   0.000%  ------ ||
|| paw_tcore_hartree_on_grid                  :     1        0.10s   0.000%  ------ ||
|| sw_init                                    :   533        0.11s   0.000%  ------ ||
|| paw_dij_hartree                            :   296        0.12s   0.001%  ------ ||
|| restart_hamiltonian_write                  :     2        0.14s   0.001%  ------ ||
|| pseudo_make_structure_factor               :     1        0.16s   0.001%  ------ ||
|| sparse_spam3toblacs_real_fast_B2           :  4592        0.16s   0.001%  ------ ||
|| onetep.F90 main loop imbalance             :     1        0.19s   0.001%  ------ ||
|| hubbard_projection_mtx                     :    51        0.19s   0.001%  ------ ||
|| ewald_calculate_forces                     :     1        0.22s   0.001%  ------ ||
|| sparse_init                                :     1        0.33s   0.001%  ------ ||
|| augmentation_density_forces                :     1        0.35s   0.001%  ------ ||
|| basis_extract_function_from_box            :  3085        0.63s   0.003%  ------ ||
|| paw_tcore_hartree_calc_forces              :     1        0.70s   0.003%  ------ ||
|| hubbard_projector_ham                      :   127        0.86s   0.004%  ------ ||
|| hubbard_ham_matrix                         :   128        1.09s   0.005%  ------ ||
|| sparse_spam3toblacs_real_fast_B1           :  4592        1.47s   0.006%  ------ ||
|| paw_tcore_density                          :     1        1.78s   0.008%  ------ ||
|| sparse_spam3toblacs_real_fast              :    82        2.04s   0.009%  ------ ||
|| paw_dataset_init                           :     2        2.06s   0.009%  ------ ||
|| hubbard_energy_total                       :   269        2.24s   0.009%  ------ ||
|| paw_nlcc_calculate_forces                  :     1        2.30s   0.010%  ------ ||
|| paw_sphere_density_on_grid                 :     1        2.39s   0.010%  ------ ||
|| nonsc_forces_ngwfs_calc                    :     1        3.17s   0.013%  ------ ||
|| sparse_blacstospam3_real_fast              :    96        4.01s   0.017%  ------ ||
|| ngwfs_initialise_from_radial               :     4        5.49s   0.023%  ------ ||
|| paw_species_calc_proj_prec_mat             :     1        5.52s   0.023%  ------ ||
|| sparse_embed_array_hotelling_invert        :    49        5.92s   0.025%  ------ ||
|| dense_eigensolve                           :    38       10.03s   0.042%  ------ ||
|| edft_diag_ngwf_ham                         :    36       11.22s   0.047%  ------ ||
|| hubbard_calculate_forces                   :     1       12.20s   0.052%  ------ ||
|| restart_kernel_write                       :    26       13.25s   0.056%  ------ ||
|| integrals_grad_spam3                       :     4       13.72s   0.058%  ------ ||
|| sparse_trace                               :  9178       15.00s   0.063%  ------ ||
|| energy_and_force_init_cell                 :     1       15.48s   0.065%  ------ ||
|| edft_apply_smearing_operator               :    18       16.40s   0.069%  ------ ||
|| kernel_purify                              :   387       17.04s   0.072%  ------ ||
|| ngwf_gradient_coeffs                       :    24       20.47s   0.087%  ------ ||
|| lnv_gradient_norm                          :   120       21.45s   0.091%  ------ ||
|| kernel_fix                                 :   120       22.12s   0.094%  ------ ||
|| fourier_filter_cell                        :   306       23.42s   0.099% 145.081 ||
|| basis_copy_function_to_box                 : 30921       29.68s   0.125%  ------ ||
|| hartree_on_grid_single                     :   266       34.71s   0.147%  ------ ||
|| fourier_apply_box_pair                     :  4728       35.80s   0.151%  1.795k ||
|| hubbard_projector_update                   :     1       36.15s   0.153%  ------ ||
|| hamiltonian_energy_components              :     1       36.66s   0.155%  ------ ||
|| projectors_func_grad_ovlp_box_spam3        :     6       37.78s   0.160%  ------ ||
|| aug_nl_calculate_forces                    :     1       38.84s   0.164%  ------ ||
|| eigenstates_calculate                      :     1       40.32s   0.170%  ------ ||
|| fourier_interpolate_cell                   :   534       44.58s   0.188% 132.993 ||
|| density_init_guess_real                    :     2       58.51s   0.247%  ------ ||
|| augmentation_screen_dij_spam3              :   265       82.75s   0.350%  ------ ||
|| cell_grid_deposit_box_real                 : 21660      116.03s   0.490%  ------ ||
|| sparse_product                             : 17620      117.28s   0.496%  ------ ||
|| forces_calculate                           :     1      124.30s   0.525%  ------ ||
|| aug_nonlocal_mat_spam3_embed_array         :   271      137.81s   0.583%  ------ ||
|| paw_dij_xc                                 :   296      144.25s   0.610%  ------ ||
|| fourier_apply_cell_backward                :  2395      159.26s   0.673% 150.220 ||
|| fourier_filter                             :  5748      174.76s   0.739%  ------ ||
|| fourier_apply_cell_forward                 :  2395      177.42s   0.750% 134.844 ||
|| aug_density_on_grid_spam3                  :   267      192.29s   0.813%  ------ ||
|| projectors_init_fftbox_recip               :   641      220.49s   0.932%  ------ ||
|| cell_grid_extract_box_real                 : 13534      225.42s   0.953%  ------ ||
|| restart_ngwfs_tightbox_output              :    24      254.89s   1.077%  ------ ||
|| fourier_interpolate                        :  5748      278.00s   1.175%  ------ ||
|| function_ops_brappd_ketppd_spam3           :   200      321.14s   1.357%  ------ ||
|| xc_energy_potential                        :   266      369.13s   1.560%  ------ ||
|| properties_calculate                       :     1      392.57s   1.659%  ------ ||
|| density_fftbox_deposit_to_cell             : 17622      697.88s   2.950%  ------ ||
|| projectors_func_ovlp_box_spam3             :   202      726.98s   3.073%  ------ ||
|| integrals_kinetic_spam3                    :    98      806.75s   3.410%  ------ ||
|| edft_calculate                             :     1      884.23s   3.738%  ------ ||
|| basis_dot_function_with_box                : 10.75M    1089.52s   4.605%  ------ ||
|| potential_apply_to_ngwf_batch              :   770     1435.52s   6.068%  ------ ||
|| projectors_gradient_batch                  :   288     1530.89s   6.471%  ------ ||
|| fourier_apply_box                          : 94723     2152.38s   9.098%  1.987k ||
|| integrals_locpot_mat_els_batch             :   770     2241.70s   9.476%  ------ ||
|| fourier_interpolate_product                : 17164     2386.26s  10.087%  ------ ||
|| basis_add_function_to_box                  : 21.39M    2435.06s  10.293%  ------ ||
|| density_fftbox_interpolate_multiply        : 17622     2509.19s  10.606%  ------ ||
|| projectors_grad_precond_batch              :   144     3088.07s  13.053%  ------ ||
|| integrals_locpot_dbl_grid                  :   258     3678.60s  15.549%  ------ ||
|| density_batch_interp_deposit               :  1602     4284.65s  18.111%  ------ ||
|| density_batch_row_sums                     :  1602     4420.35s  18.685%  ------ ||
|| ngwf_gradient_build_batch                  :   144     5150.55s  21.771%  ------ ||
|| ngwf_gradient_batch                        :   144     7383.63s  31.210%  ------ ||
|| ngwf_gradient_lnv                          :    24     7497.50s  31.692%  ------ ||
|| density_on_dbl_grid                        :   534     8779.73s  37.112%  ------ ||
|| hamiltonian_lhxc_calculate                 :   263     9422.60s  39.829%  ------ ||
|| lnv_denskernel_optimise_cg                 :    24    11461.87s  48.449%  ------ ||
|| ngwf_cg_optimise                           :     1    22051.51s  93.211%  ------ ||
|| energy_and_forces                          :     1    23640.72s  99.929%  ------ ||
|| total_time                                 :     1    23657.59s 100.000%  ------ ||
======================================================================================
Overhead of generating timer report: 
- 0 ms averaging over threads,
- 3 ms ensuring consistency across MPI ranks,
- 54 ms printing in order.

Job completed: 01-10-2024 18:20 (+0100)

onetep_launcher: ONETEP seems to have finished correctly (zero exit code).
                 Brought to you by PID 121025 on nid002103.
