==================================================================================
It's Tue 01 Oct 2024 10:51:51 PM BST.
*** Starting onetep_launcher (node nid002529, PIDs 74680 74681 74682 74683 74684 74685 74686 74687)...
    - ONETEP arguments: U_0.5_-0.1.dat
    - Current directory: /mnt/lustre/a2fs-work3/work/e89/e89/phsmea/U_det/U_0.05_-0.1
    - Launcher executable directory: /mnt/lustre/a2fs-work3/work/e89/e89/phsmea/U_det/U_0.05_-0.1
    - (-e) ONETEP executable specified through command-line: /work/e89/e89/phsmea/onetep.archer2_2024_cray
      ... trying /work/e89/e89/phsmea/onetep.archer2_2024_cray
          -> looks OK
*** Setting up environment...
    - (-s) Process stack size: unlimited
    - (-t) OMP_NUM_THREADS: 16
    - (-o) OMP_STACKSIZE: 64M
    - (-c) Maximum core file size: 2048000
    - (-d) decfort_dump_flag: n
    - (-m) I_MPI_OFA_TRANSLATION_CACHE: 0
    - (-m) I_MPI_DAPL_TRANSLATION_CACHE: 0
    - (-m) I_MPI_DAPL_UD_TRANSLATION_CACHE: 0
*** Starting ONETEP...
    - /work/e89/e89/phsmea/onetep.archer2_2024_cray U_0.5_-0.1.dat
=================================================================================
_________________________________________________________________________________
 +---------------------------------------------------------------+
 |                                                               |
 |        ####### #     # ####### ####### ####### ######         |
 |        #     # ##    # #          #    #       #     #        |
 |        #     # # #   # #          #    #       #     #        |
 |        #     # #  #  # #####      #    #####   ######         |
 |        #     # #   # # #          #    #       #              |
 |        #     # #    ## #          #    #       #              |
 |        ####### #     # #######    #    ####### #              |
 |                                                               |
 |        Linear-Scaling Ab Initio Total Energy Program          |
 |                                                               |
 |          Release for academic collaborators of ODG            |
 |                                             Version 7.3.0     |
 | Remote: git@github.com:Miesaz/onetep_mea.git                  |
 | Local branch: master                                          |
 | Commit ID: 4af45e89288c8df5499704252eec3e032ee3d0c8           |
 | Date: Tue Aug 6 11:28:44 2024 +0100                           |
 | Working tree clean                                            |
 |                                                               |
 +---------------------------------------------------------------+
 |                                                               |
 |  Authors:                                                     |
 |  Jacek Dziedzic, Peter D. Haynes, Nicholas D. M. Hine,        |
 |  Arash A. Mostofi, Mike C. Payne and Chris-Kriton Skylaris    |
 |                                                               |
 |  Contributors:                                                |
 |  J. Aarons, L. Andrinopoulos, P. W. Avraam, R. A. Bell,       |
 |  A. Bhandari, G. A. Bramley, R. J. Charlton, S. J. Clark,     |
 |  R. J. Clements, G. C. Constantinescu, F. Corsetti,           |
 |  N. Corsini, O. Dieguez, S. M. M. Dubois, K. K. B. Duff,      |
 |  J. M. Escartin, M. Escobar Azor, A. Greco,                   |
 |  H. Helal, Q. O. Hill, L. P. Lee, J.-H. Li,                   |
 |  T. Li, E. B. Linscott, G. Moynihan, D. D. O`Regan,           |
 |  O. K. Okan, E. Parkinson, M. J. S. Phipps,                   |
 |  C. J. Pickard, J. C. A. Prentice, M. I. J. Probert,          |
 |  L. E. Ratcliff, M. Robinson, A. Ruiz Serrano,                |
 |  M. dos Santos Dias, J. S. Spencer, E. W. Tait,               |
 |  G. Teobaldi, D. Turban, V. Vitale, K. A. Wilkinson,          |
 |  C. Weber, J. C. Womack, Chengcheng Xiao, N. Yeung,           |
 |  and T. J. Zuehlsdorff.                                       |
 |                                                               |
 |                                   Copyright (c) 2004-2024     |
 |                                                               |
 |  Please cite:                                                 |
 |  "The ONETEP linear-scaling density functional theory program"|
 |   J. Chem. Phys. 152(17) 174111 (2020)                        |
 |                                                               |
 |          in all publications arising from your use of ONETEP. |
 |                                                               |
 +---------------------------------------------------------------+
 |                                                               |
 |   ONETEP is based on developments described in the following  |
 |   publications:                                               |
 |                                                               |
 |  "Nonorthogonal generalized Wannier function pseudopotential  |
 |   plane-wave method".                                         |
 |   C.-K. Skylaris, A. A. Mostofi, P. D. Haynes, O. Dieguez,    |
 |   M. C. Payne.                                                |
 |   Phys. Rev. B 66 035119 (2002).                              |
 |                                                               |
 |  "Preconditioned iterative minimization for linear-scaling    |
 |   electronic structure calculations".                         |
 |   A. A. Mostofi, P. D. Haynes, C.-K. Skylaris, M. C. Payne.   |
 |   J. Chem. Phys. 119(17), pp.8842-8848 (2003).                |
 |                                                               |
 |  "Total-energy calculations on a real space grid with         |
 |   localized functions and a plane-wave basis".                |
 |   A. A. Mostofi, C.-K. Skylaris, P. D. Haynes, M. C. Payne.   |
 |   Comput. Phys. Commun. 147, pp.788-802 (2002).               |
 |                                                               |
 |  "Accurate kinetic energy evaluation in electronic structure  |
 |   calculations with localized functions on real space grids"  |
 |   C.-K. Skylaris, A. A. Mostofi, P. D. Haynes, C. J. Pickard, |
 |   M. C. Payne.                                                |
 |   Comput. Phys. Commun. 140, pp.315-322 (2001).               |
 |                                                               |
 |  "Accurate ionic forces and geometry optimization in linear-  |
 |   scaling density-functional theory with local orbitals"      |
 |   N. D. M. Hine, M. Robinson, P. D. Haynes, C.-K. Skylaris,   |
 |   M. C. Payne, and A. A. Mostofi.                             |
 |   Phys. Rev. B 83 195102 (2011).                              |
 |                                                               |
 +---------------------------------------------------------------+

Job started: 01-10-2024 22:51 (+0100)
 
Reading parameters from file "U_0.5_-0.1.dat" ...
WARNING in get_rundat: hubbard_calculating_u is TRUE, so do_properties will be
overridden to TRUE.
... done

If your calculation crashes here, before "Checking processes and threads..."
is displayed, then your stack size is insufficient.
If so, use "ulimit -s unlimited" at runtime.
You can disable this check with "check_stack_size F".

Checking processes and threads...
   Running with 56 MPI processes.
   There are 8 MPI processes running on the same node as the root process.
   Each MPI process is using: 
               1 threads for simulation cell FFTs.
               1 threads for threaded FFT box operations.
              16 threads for loops over batched FFT box operations.
              16 threads in other parallel regions.
   MPI Interface: S1 (use mpi_f08) (-DMPI -DUSE_MPI_F08).
   MPI_ASYNC_PROTECTS_NONBLOCKING: Yes. MPI_SUBARRAYS_SUPPORTED: Yes.
   FFTW Interface: OMP-capable and MODERN. (-DUSE_MODERN_FFTW specified).
   GPU Interface: None.
   GPU FFT Backend: None.
... done

Basic input checks...... done

Reading geometry and species blocks from file "U_0.5_-0.1.dat" ...... done


--------------------------------------------------------------------------------
---------------------------------- INPUT FILE ----------------------------------
--------------------------------------------------------------------------------

charge : 0                                                                      
cutoff_energy : 1000 eV                                                         
do_properties : T                                                               
edft : F                                                                        
edft_init_maxit : 5                                                             
elec_energy_tol : 2e-07 Ha                                                      
fine_grid_scale : 4                                                             
forces_output_detail : VERBOSE                                                  
hubbard_calculating_u   : T                                                     
hubbard_read_projectors : T                                                     
maxit_ngwf_cg : 40                                                              
ngwf_threshold_orig : 1e-06                                                     
output_detail : BRIEF                                                           
paw : T                                                                         
spin_polarized : T                                                              
ngwfs_spin_polarized : T                                                        
read_denskern : T                                                               
read_hamiltonian : T                                                            
read_tightbox_ngwfs : T                                                         
spin : 216                                                                      
task : SinglePoint                                                              
write_denskern : T                                                              
write_forces : T                                                                
write_hamiltonian : T                                                           
write_tightbox_ngwfs : T                                                        
xc_functional : PBE                                                             
%BLOCK LATTICE_CART                                                             
ang                                                                             
41.261892132    0.000000000     0.000000000                                     
-20.630946066   35.733846792     0.000000000                                    
0.0000000000    0.000000000    17.192455055                                     
%ENDBLOCK LATTICE_CART                                                          
%BLOCK POSITIONS_ABS                                                            
ang                                                                             
Cr       3.43849101       1.98521371       9.03176873                           
Cr       0.00000000       3.97042742       9.03176919                           
I        4.42260340      -0.00001318       7.48054615                           
I        1.22717790       2.12556082       7.48054615                           
I       -2.21129029       3.83009349       7.48054615                           
I        2.45437873      -0.00001140      10.58299027                           
I        2.21129177       3.83009250      10.58299027                           
I       -1.22717949       2.12556004      10.58299027                           
Cr       0.00000000       7.94085485       9.03176873                           
Cr      -3.43849101       9.92606855       9.03176919                           
I        0.98411239       5.95562795       7.48054615                           
I       -2.21131311       8.08120195       7.48054615                           
I       -5.64978130       9.78573462       7.48054615                           
I       -0.98411228       5.95562973      10.58299027                           
I       -1.22719924       9.78573363      10.58299027                           
I       -4.66567050       8.08120117      10.58299027                           
Cr      -3.43849101      13.89649598       9.03176873                           
Cr      -6.87698202      15.88170968       9.03176919                           
I       -2.45437862      11.91126909       7.48054615                           
I       -5.64980412      14.03684309       7.48054615                           
I       -9.08827231      15.74137575       7.48054615                           
I       -4.42260329      11.91127086      10.58299027                           
I       -4.66569025      15.74137476      10.58299027                           
I       -8.10416151      14.03684230      10.58299027                           
Cr      10.31547303       1.98521371       9.03176873                           
Cr       6.87698202       3.97042742       9.03176919                           
I       11.29958542      -0.00001318       7.48054615                           
I        8.10415992       2.12556082       7.48054615                           
I        4.66569173       3.83009349       7.48054615                           
I        9.33136075      -0.00001140      10.58299027                           
I        9.08827380       3.83009250      10.58299027                           
I        5.64980253       2.12556004      10.58299027                           
Cr       6.87698202       7.94085485       9.03176873                           
Cr       3.43849101       9.92606855       9.03176919                           
I        7.86109441       5.95562795       7.48054615                           
I        4.66566891       8.08120195       7.48054615                           
I        1.22720072       9.78573462       7.48054615                           
I        5.89286974       5.95562973      10.58299027                           
I        5.64978278       9.78573363      10.58299027                           
I        2.21131152       8.08120117      10.58299027                           
Cr       3.43849101      13.89649598       9.03176873                           
Cr       0.00000000      15.88170968       9.03176919                           
I        4.42260340      11.91126909       7.48054615                           
I        1.22717790      14.03684309       7.48054615                           
I       -2.21129029      15.74137575       7.48054615                           
I        2.45437873      11.91127086      10.58299027                           
I        2.21129177      15.74137476      10.58299027                           
I       -1.22717949      14.03684230      10.58299027                           
Cr      17.19245505       1.98521371       9.03176873                           
Cr      13.75396404       3.97042742       9.03176919                           
I       18.17656744      -0.00001318       7.48054615                           
I       14.98114195       2.12556082       7.48054615                           
I       11.54267375       3.83009349       7.48054615                           
I       16.20834277      -0.00001140      10.58299027                           
I       15.96525582       3.83009250      10.58299027                           
I       12.52678455       2.12556004      10.58299027                           
Cr      13.75396404       7.94085485       9.03176873                           
Cr      10.31547303       9.92606855       9.03176919                           
I       14.73807643       5.95562795       7.48054615                           
I       11.54265094       8.08120195       7.48054615                           
I        8.10418274       9.78573462       7.48054615                           
I       12.76985176       5.95562973      10.58299027                           
I       12.52676481       9.78573363      10.58299027                           
I        9.08829354       8.08120117      10.58299027                           
Cr      10.31547303      13.89649598       9.03176873                           
Cr       6.87698202      15.88170968       9.03176919                           
I       11.29958542      11.91126909       7.48054615                           
I        8.10415992      14.03684309       7.48054615                           
I        4.66569173      15.74137575       7.48054615                           
I        9.33136075      11.91127086      10.58299027                           
I        9.08827380      15.74137476      10.58299027                           
I        5.64980253      14.03684230      10.58299027                           
Cr      -6.87698202      19.85213711       9.03176873                           
Cr     -10.31547303      21.83735082       9.03176919                           
I       -5.89286963      17.86691022       7.48054615                           
I       -9.08829513      19.99248422       7.48054615                           
I      -12.52676332      21.69701689       7.48054615                           
I       -7.86109430      17.86691200      10.58299027                           
I       -8.10418126      21.69701590      10.58299027                           
I      -11.54265252      19.99248344      10.58299027                           
Cr     -10.31547303      25.80777825       9.03176873                           
Cr     -13.75396404      27.79299195       9.03176919                           
I       -9.33136064      23.82255135       7.48054615                           
I      -12.52678614      25.94812535       7.48054615                           
I      -15.96525433      27.65265802       7.48054615                           
I      -11.29958531      23.82255313      10.58299027                           
I      -11.54267227      27.65265703      10.58299027                           
I      -14.98114353      25.94812457      10.58299027                           
Cr     -13.75396404      31.76341938       9.03176873                           
Cr     -17.19245505      33.74863308       9.03176919                           
I      -12.76985165      29.77819249       7.48054615                           
I      -15.96527715      31.90376649       7.48054615                           
I      -19.40374534      33.60829915       7.48054615                           
I      -14.73807632      29.77819426      10.58299027                           
I      -14.98116328      33.60829816      10.58299027                           
I      -18.41963454      31.90376570      10.58299027                           
Cr      -0.00000000      19.85213711       9.03176873                           
Cr      -3.43849101      21.83735082       9.03176919                           
I        0.98411239      17.86691022       7.48054615                           
I       -2.21131311      19.99248422       7.48054615                           
I       -5.64978130      21.69701689       7.48054615                           
I       -0.98411228      17.86691200      10.58299027                           
I       -1.22719923      21.69701590      10.58299027                           
I       -4.66567050      19.99248344      10.58299027                           
Cr      -3.43849101      25.80777825       9.03176873                           
Cr      -6.87698202      27.79299195       9.03176919                           
I       -2.45437862      23.82255135       7.48054615                           
I       -5.64980412      25.94812535       7.48054615                           
I       -9.08827231      27.65265802       7.48054615                           
I       -4.42260329      23.82255313      10.58299027                           
I       -4.66569025      27.65265703      10.58299027                           
I       -8.10416151      25.94812457      10.58299027                           
Cr      -6.87698202      31.76341938       9.03176873                           
Cr     -10.31547303      33.74863308       9.03176919                           
I       -5.89286963      29.77819249       7.48054615                           
I       -9.08829513      31.90376649       7.48054615                           
I      -12.52676332      33.60829915       7.48054615                           
I       -7.86109430      29.77819426      10.58299027                           
I       -8.10418126      33.60829816      10.58299027                           
I      -11.54265252      31.90376570      10.58299027                           
CrU       6.87698202      19.85213711       9.03176873                          
Cr       3.43849101      21.83735082       9.03176919                           
I        7.86109441      17.86691022       7.48054615                           
I        4.66566892      19.99248422       7.48054615                           
I        1.22720072      21.69701689       7.48054615                           
I        5.89286974      17.86691200      10.58299027                           
I        5.64978279      21.69701590      10.58299027                           
I        2.21131152      19.99248344      10.58299027                           
Cr       3.43849101      25.80777825       9.03176873                           
Cr      -0.00000000      27.79299195       9.03176919                           
I        4.42260340      23.82255135       7.48054615                           
I        1.22717791      25.94812535       7.48054615                           
I       -2.21129029      27.65265802       7.48054615                           
I        2.45437873      23.82255313      10.58299027                           
I        2.21129178      27.65265703      10.58299027                           
I       -1.22717949      25.94812457      10.58299027                           
Cr      -0.00000000      31.76341938       9.03176873                           
Cr      -3.43849101      33.74863308       9.03176919                           
I        0.98411239      29.77819249       7.48054615                           
I       -2.21131311      31.90376649       7.48054615                           
I       -5.64978130      33.60829915       7.48054615                           
I       -0.98411228      29.77819426      10.58299027                           
I       -1.22719923      33.60829816      10.58299027                           
I       -4.66567050      31.90376570      10.58299027                           
Cr      24.06943708       1.98521371       9.03176873                           
Cr      20.63094607       3.97042742       9.03176919                           
I       25.05354947      -0.00001318       7.48054615                           
I       21.85812397       2.12556082       7.48054615                           
I       18.41965578       3.83009349       7.48054615                           
I       23.08532480      -0.00001140      10.58299027                           
I       22.84223784       3.83009250      10.58299027                           
I       19.40376658       2.12556004      10.58299027                           
Cr      20.63094607       7.94085485       9.03176873                           
Cr      17.19245506       9.92606855       9.03176919                           
I       21.61505846       5.95562795       7.48054615                           
I       18.41963296       8.08120195       7.48054615                           
I       14.98116477       9.78573462       7.48054615                           
I       19.64683379       5.95562973      10.58299027                           
I       19.40374683       9.78573363      10.58299027                           
I       15.96527557       8.08120117      10.58299027                           
Cr      17.19245506      13.89649598       9.03176873                           
Cr      13.75396405      15.88170968       9.03176919                           
I       18.17656745      11.91126909       7.48054615                           
I       14.98114195      14.03684309       7.48054615                           
I       11.54267376      15.74137575       7.48054615                           
I       16.20834278      11.91127086      10.58299027                           
I       15.96525582      15.74137476      10.58299027                           
I       12.52678456      14.03684230      10.58299027                           
Cr      30.94641910       1.98521371       9.03176873                           
Cr      27.50792809       3.97042742       9.03176919                           
I       31.93053149      -0.00001318       7.48054615                           
I       28.73510599       2.12556082       7.48054615                           
I       25.29663780       3.83009349       7.48054615                           
I       29.96230682      -0.00001140      10.58299027                           
I       29.71921987       3.83009250      10.58299027                           
I       26.28074860       2.12556004      10.58299027                           
Cr      27.50792809       7.94085485       9.03176873                           
Cr      24.06943708       9.92606855       9.03176919                           
I       28.49204048       5.95562795       7.48054615                           
I       25.29661498       8.08120195       7.48054615                           
I       21.85814679       9.78573462       7.48054615                           
I       26.52381581       5.95562973      10.58299027                           
I       26.28072885       9.78573363      10.58299027                           
I       22.84225759       8.08120117      10.58299027                           
Cr      24.06943708      13.89649598       9.03176873                           
Cr      20.63094607      15.88170968       9.03176919                           
I       25.05354947      11.91126909       7.48054615                           
I       21.85812397      14.03684309       7.48054615                           
I       18.41965578      15.74137575       7.48054615                           
I       23.08532480      11.91127086      10.58299027                           
I       22.84223784      15.74137476      10.58299027                           
I       19.40376658      14.03684230      10.58299027                           
Cr      37.82340112       1.98521371       9.03176873                           
Cr      34.38491011       3.97042742       9.03176919                           
I       38.80751351      -0.00001318       7.48054615                           
I       35.61208802       2.12556082       7.48054615                           
I       32.17361982       3.83009349       7.48054615                           
I       36.83928884      -0.00001140      10.58299027                           
I       36.59620189       3.83009250      10.58299027                           
I       33.15773062       2.12556004      10.58299027                           
Cr      34.38491011       7.94085485       9.03176873                           
Cr      30.94641910       9.92606855       9.03176919                           
I       35.36902250       5.95562795       7.48054615                           
I       32.17359701       8.08120195       7.48054615                           
I       28.73512881       9.78573462       7.48054615                           
I       33.40079783       5.95562973      10.58299027                           
I       33.15771088       9.78573363      10.58299027                           
I       29.71923961       8.08120117      10.58299027                           
Cr      30.94641910      13.89649598       9.03176873                           
Cr      27.50792809      15.88170968       9.03176919                           
I       31.93053149      11.91126909       7.48054615                           
I       28.73510599      14.03684309       7.48054615                           
I       25.29663780      15.74137575       7.48054615                           
I       29.96230682      11.91127086      10.58299027                           
I       29.71921987      15.74137476      10.58299027                           
I       26.28074860      14.03684230      10.58299027                           
Cr      13.75396404      19.85213711       9.03176873                           
Cr      10.31547303      21.83735082       9.03176919                           
I       14.73807643      17.86691022       7.48054615                           
I       11.54265093      19.99248422       7.48054615                           
I        8.10418274      21.69701689       7.48054615                           
I       12.76985176      17.86691200      10.58299027                           
I       12.52676480      21.69701590      10.58299027                           
I        9.08829354      19.99248344      10.58299027                           
Cr      10.31547303      25.80777825       9.03176873                           
Cr       6.87698202      27.79299195       9.03176919                           
I       11.29958542      23.82255135       7.48054615                           
I        8.10415992      25.94812535       7.48054615                           
I        4.66569173      27.65265802       7.48054615                           
I        9.33136075      23.82255313      10.58299027                           
I        9.08827379      27.65265703      10.58299027                           
I        5.64980253      25.94812457      10.58299027                           
Cr       6.87698202      31.76341938       9.03176873                           
Cr       3.43849101      33.74863308       9.03176919                           
I        7.86109441      29.77819249       7.48054615                           
I        4.66566891      31.90376649       7.48054615                           
I        1.22720072      33.60829915       7.48054615                           
I        5.89286974      29.77819426      10.58299027                           
I        5.64978278      33.60829816      10.58299027                           
I        2.21131152      31.90376570      10.58299027                           
Cr      20.63094606      19.85213711       9.03176873                           
Cr      17.19245505      21.83735082       9.03176919                           
I       21.61505845      17.86691022       7.48054615                           
I       18.41963295      19.99248422       7.48054615                           
I       14.98116476      21.69701689       7.48054615                           
I       19.64683378      17.86691200      10.58299027                           
I       19.40374683      21.69701590      10.58299027                           
I       15.96527556      19.99248344      10.58299027                           
Cr      17.19245505      25.80777825       9.03176873                           
Cr      13.75396404      27.79299195       9.03176919                           
I       18.17656744      23.82255135       7.48054615                           
I       14.98114194      25.94812535       7.48054615                           
I       11.54267375      27.65265802       7.48054615                           
I       16.20834277      23.82255313      10.58299027                           
I       15.96525581      27.65265703      10.58299027                           
I       12.52678455      25.94812457      10.58299027                           
Cr      13.75396404      31.76341938       9.03176873                           
Cr      10.31547303      33.74863308       9.03176919                           
I       14.73807643      29.77819249       7.48054615                           
I       11.54265093      31.90376649       7.48054615                           
I        8.10418274      33.60829915       7.48054615                           
I       12.76985176      29.77819426      10.58299027                           
I       12.52676480      33.60829816      10.58299027                           
I        9.08829354      31.90376570      10.58299027                           
Cr      27.50792808      19.85213711       9.03176873                           
Cr      24.06943707      21.83735082       9.03176919                           
I       28.49204047      17.86691022       7.48054615                           
I       25.29661498      19.99248422       7.48054615                           
I       21.85814678      21.69701689       7.48054615                           
I       26.52381580      17.86691200      10.58299027                           
I       26.28072885      21.69701590      10.58299027                           
I       22.84225758      19.99248344      10.58299027                           
Cr      24.06943707      25.80777825       9.03176873                           
Cr      20.63094606      27.79299195       9.03176919                           
I       25.05354946      23.82255135       7.48054615                           
I       21.85812397      25.94812535       7.48054615                           
I       18.41965577      27.65265802       7.48054615                           
I       23.08532479      23.82255313      10.58299027                           
I       22.84223784      27.65265703      10.58299027                           
I       19.40376657      25.94812457      10.58299027                           
Cr      20.63094606      31.76341938       9.03176873                           
Cr      17.19245505      33.74863308       9.03176919                           
I       21.61505845      29.77819249       7.48054615                           
I       18.41963295      31.90376649       7.48054615                           
I       14.98116476      33.60829915       7.48054615                           
I       19.64683378      29.77819426      10.58299027                           
I       19.40374683      33.60829816      10.58299027                           
I       15.96527556      31.90376570      10.58299027                           
%ENDBLOCK POSITIONS_ABS                                                         
%BLOCK SPECIES                                                                  
Cr Cr 24 -1 15                                                                  
I   I  53 -1 15                                                                 
CrU Cr 24 -1 15                                                                 
%ENDBLOCK SPECIES                                                               
%BLOCK SPECIES_ATOMIC_SET                                                       
Cr  "SOLVE INIT SPIN=3"                                                         
I   "SOLVE"                                                                     
CrU "SOLVE INIT SPIN=3"                                                         
%ENDBLOCK SPECIES_ATOMIC_SET                                                    
%BLOCK HUBBARD                                                                  
CrU 2 0.0 0.0 -10.0 0.05 -0.1                                                   
%ENDBLOCK HUBBARD                                                               
%BLOCK SPECIES_LDOS_GROUPS                                                      
Cr                                                                              
I                                                                               
CrU                                                                             
%ENDBLOCK SPECIES_LDOS_GROUPS                                                   
%BLOCK SPECIES_POT                                                              
Cr  "/work/e89/e89/phsmea/U_det/Cr.PBE-paw.abinit"                              
I   "/work/e89/e89/phsmea/U_det/I.PBE-paw.abinit"                               
CrU "/work/e89/e89/phsmea/U_det/Cr.PBE-paw.abinit"                              
%ENDBLOCK SPECIES_POT                                                           

--------------------------------------------------------------------------------
-------------------------------- END INPUT FILE --------------------------------
--------------------------------------------------------------------------------


 
 ESDF WARNING(1): "charge" (esdf_physical) has no units. Assume "e".
<<<<<<<<<<<<<<<<<<<<<<<<<<<<<<<<< Full system >>>>>>>>>>>>>>>>>>>>>>>>>>>>>>>>>>
<<<<<<<<<<<<<<<<<<<<<<<<<<< PAW Dataset information >>>>>>>>>>>>>>>>>>>>>>>>>>>
File: /work/e89/e89/phsmea/U_det/Cr.PBE-paw.abinit; rc = 2.11 bohr; shape type =  2; rshape = 1.80 bohr;
  Atomic number: 24;  ionic charge: 14.000000
    Partial Wave 1: l = 0
    Partial Wave 2: l = 0
    Partial Wave 3: l = 1
    Partial Wave 4: l = 1
    Partial Wave 5: l = 2
    Partial Wave 6: l = 2
  Core charge supplied for Nonlinear Core Corrections
File: /work/e89/e89/phsmea/U_det/I.PBE-paw.abinit; rc = 2.30 bohr; shape type =  2; rshape = 2.11 bohr;
  Atomic number: 53;  ionic charge:  7.000000
    Partial Wave 1: l = 0
    Partial Wave 2: l = 0
    Partial Wave 3: l = 1
    Partial Wave 4: l = 1
  Core charge supplied for Nonlinear Core Corrections
<<<<<<<<<<<<<<<<<<<<<<<<<<<<<<<<<<<<<<< >>>>>>>>>>>>>>>>>>>>>>>>>>>>>>>>>>>>>>>

-------------------------- Atom counting information ---------------------------
Symbol    Natoms    Nngwfs    Nprojs
  Cr        72       936      1296
  I        216       864      1728
.......   ......    ......    ......
Totals:    288      1800      3024
--------------------------------------------------------------------------------

=============================== PSINC grid sizes ===============================
                      Simulation cell:  175 x 175 x  75
                              FFT-box:  175 x 175 x  75
                                  PPD:    5 x   5 x   1
================================================================================

Atom SCF Calculation for Cr : Z (AE atom) =  24 : Z (PS atom) =  14
Config String: 3s2.0 3p6.0 3d5.0 4s1.0 4p0.0 INIT SPIN=3
Orbitals (num,occ):  5     2.00 6.00 5.00 1.00 0.00
Orbitals   (num,l):  5        0    1    2    0    1
Atom SCF converged after  64 iterations to a total energy of    -87.07044631
Adjusting orbital occupancies:
Orbitals (num,spin,occ):  5  1     1.00 3.00 3.50 1.00 0.00
Orbitals   (num,spin,l):  5  1        0    1    2    0    1
Orbitals (num,spin,occ):  5  2     1.00 3.00 1.00 0.50 0.00
Orbitals   (num,spin,l):  5  2        0    1    2    0    1

Atom SCF Calculation for I  : Z (AE atom) =  53 : Z (PS atom) =   7
Config String: 5s2.0 5p5.0
Orbitals (num,occ):  2     2.00 5.00
Orbitals   (num,l):  2        0    1
Atom SCF converged after  28 iterations to a total energy of    -11.61352964

Atom SCF Calculation for Cr : Z (AE atom) =  24 : Z (PS atom) =  14
Config String: 3s2.0 3p6.0 3d5.0 4s1.0 4p0.0 INIT SPIN=3
Orbitals (num,occ):  5     2.00 6.00 5.00 1.00 0.00
Orbitals   (num,l):  5        0    1    2    0    1
Atom SCF converged after  64 iterations to a total energy of    -87.07044631
Adjusting orbital occupancies:
Orbitals (num,spin,occ):  5  1     1.00 3.00 3.50 1.00 0.00
Orbitals   (num,spin,l):  5  1        0    1    2    0    1
Orbitals (num,spin,occ):  5  2     1.00 3.00 1.00 0.50 0.00
Orbitals   (num,spin,l):  5  2        0    1    2    0    1
Calculating Ewald energy ...             6126.916246 Hartree

============================= Charge Augmentation ==============================
                           Aug box size:   49 x  49 x  45
================================================================================

Reading NGWFs from file "U_0.5_-0.1.tightbox_ngwfs" ... done

Reading HUBBARD PROJs from file "U_0.5_-0.1.tightbox_hub_projs" ... done

================================= Core Density =================================
               Core den box size:  125 x 125 x 117
================================================================================

Reading density kernel from file "U_0.5_-0.1.dkn" ... done

################################################################################
###################### NGWF self-consistent optimisation #######################
################################################################################
|ITER|    RMS GRADIENT   |     TOTAL ENERGY    |   step   |     Epredicted      
   0     0.00000095926446  -8818.90718172495690   0.637760  -8818.90728198154284        
   1     0.00000047280246  -8818.90731398496609   1.324308  -8818.90737225445082        
   2     0.00000058945079  -8818.90737174649257   8.685454  -8818.90785946326105        
   3     0.00000393097417  -8818.90581450975151   0.803877  -8818.90793662552642        
   4     0.00000153654632  -8818.90796127005160   0.934634  -8818.90834089077180        
   5     0.00000064298424  -8818.90833401985219   2.964906  -8818.90854503075752        
   6     0.00000074729401  -8818.90852618285680   2.704982  -8818.90878097595305        
   7     0.00000113076779  -8818.90861618196868   0.985300  -8818.90883140776896        
   8     0.00000073285474  -8818.90882962174874   2.863102  -8818.90908202642458        
   9     0.00000089490662  -8818.90901654706613   2.985672  -8818.90933768514151        
  10     0.00000163684806  -8818.90891758017096   0.794123  -8818.90928106261526        
  11     0.00000094487695  -8818.90927820796423   2.504897  -8818.90965759083338        
  12     0.00000070194920  -8818.90962425493308   1.378601  -8818.90973779882006        
  13     0.00000059117904  -8818.90973010379275  -0.004529  -8818.90972983683969        
  14     0.00000058773857  -8818.90973428317739   1.351089  -8818.90981401491808        
  15     0.00000057006253  -8818.90981096236646   0.000489  -8818.90981098644988        
  16     0.00000057136532  -8818.90981227831799   1.504006  -8818.90997162030544        
  17     0.00000093584326  -8818.90991702938845   0.652789  -8818.91001469859657        
  18     0.00000040325835  -8818.91002406610642   2.488854  -8818.91010168194407        
  19     0.00000058731195  -8818.91011914059709   1.081351  -8818.91018286170765        
  20     0.00000047698704  -8818.91018189461465  -0.009444  -8818.91018154277481        
  21     0.00000047820637  -8818.91018249618173   4.360274  -8818.91050781248850        
  22     0.00000209489403  -8818.91009150880018   0.712167  -8818.91062543910994        
  23     0.00000054517565  -8818.91062896116455   2.458962  -8818.91075208571965        
  24     0.00000066595246  -8818.91071769320115  -0.001110  -8818.91071762912179        
  25     0.00000067201223  -8818.91071935615764   1.026734  -8818.91086116646511        

================================================================================
           ---------------- ENERGY COMPONENTS (Eh) ----------------
           | Kinetic                    :     1819.28328849239324 |
           | Core Hartree               :   -28372.36012256001410 |
           | CoreHart (non-coul chg cor):        0.00000000000000
           | Hartree                    :    13503.79346092333070 |
           | Exchange-correlation       :    -1248.26857014306756 |
           | Hubbard DFT+U correction   :        0.01579207160866 |
           | Ewald                      :     6126.91624599049464 |
           | Dij0                       :     -555.70067989283098 |
           | Dijhartree                 :      249.02219935197633 |
           | Exc [AE core]              :   -42415.13401055373830 |
           | Exc DC [AE core]           :    -1638.61369397703402 |
           | Exc [PS core]              :    -1032.28170251099573 |
           | Exc DC [PS core]           :     -982.34434523359948 |
           | Exc [Core]                 :   -41041.23993575423080 |
           | Total [Sphere]             :     -648.29085282937012 |
           | Total                      :    -8818.91075805462606 |
           --------------------------------------------------------
           Integrated compensation chrg.:      189.16943566929035
           Integrated density           :     2519.99993593809495
           Integrated spin density      :      215.99995948081164
           Integrated |spin density|    :      164.24699342204929
================================================================================

  26     0.00000098878426  -8818.91075805461878  <-- CG                                 

################################################################################
DFT+U information on atom      1 of Hubbard species CrU 
################################################################################
Occupancy matrix of Hubbard site      1 and spin      1 is 
  m_l =   -2          -1           0           1           2
  0.88689491  0.15391035  0.00000295  0.00000104  0.00000464
  0.15394855  0.76627304 -0.00000537  0.00000540 -0.00000243
  0.00000150 -0.00000323  0.99090613 -0.00000191 -0.00000092
  0.00000228  0.00000534 -0.00000309  0.76626638 -0.15394558
  0.00000458 -0.00000114 -0.00000172 -0.15390883  0.88690088
################################################################################
Occupancy matrix of Hubbard site      1 and spin      2 is 
  m_l =   -2          -1           0           1           2
  0.26240097 -0.13430364  0.00000087  0.00000214  0.00000091
 -0.13433528  0.36882280  0.00000501  0.00000279 -0.00000083
  0.00000228  0.00000315  0.16036786  0.00000213 -0.00000141
  0.00000107  0.00000284  0.00000316  0.36881975  0.13433707
  0.00000097 -0.00000193 -0.00000062  0.13430666  0.26240221
################################################################################
Total occupancy of Hubbard site      1 is         5.72005493 e
Local magnetic moment of Hubbard site      1 is   2.87442775 mu_B
DFT+U energy of Hubbard site      1 is            0.01579207 Ha
################################################################################

##### For calculating the Hubbard U and Hund J #################################
DFT+U information on Hubbard site      1 of species CrU  and spin      1
The average Hxc+local potential is            -19.02912579 eV.
The average Hubbard potential is                0.10000000 eV.
The average non-local PAW contribution is     -10.96638945 eV.
################################################################################
DFT+U information on Hubbard site      1 of species CrU  and spin      2
The average Hxc+local potential is            -17.96712756 eV.
The average Hubbard potential is                0.00000000 eV.
The average non-local PAW contribution is      -9.52903467 eV.
################################################################################

======================== Writing density and potential =========================
Writing "U_0.5_-0.1_ps_density.cube" ... done
Writing "U_0.5_-0.1_ps_spindensity.cube" ... done
Writing "U_0.5_-0.1_ae_density.cube" ... done
Writing "U_0.5_-0.1_ae_spindensity.cube" ... done
Writing "U_0.5_-0.1_potential.cube" ... done
Writing "U_0.5_-0.1_electrostatic_potential.cube" ... done
================================================================================

    Mulliken Atomic Populations
    ---------------------------
Species  Ion    Total   Charge (e)    Spin (hbar)
=================================================
  Cr     1      13.756      0.244      1.67
  Cr     2      13.757      0.243      1.67
  I      3       7.081     -0.081     -0.06
  I      4       7.081     -0.081     -0.06
  I      5       7.081     -0.081     -0.06
  I      6       7.081     -0.081     -0.06
  I      7       7.081     -0.081     -0.06
  I      8       7.081     -0.081     -0.06
  Cr     9      13.756      0.244      1.67
  Cr    10      13.757      0.243      1.67
  I     11       7.081     -0.081     -0.06
  I     12       7.081     -0.081     -0.06
  I     13       7.081     -0.081     -0.06
  I     14       7.081     -0.081     -0.06
  I     15       7.081     -0.081     -0.06
  I     16       7.081     -0.081     -0.06
  Cr    17      13.756      0.244      1.67
  Cr    18      13.755      0.245      1.67
  I     19       7.081     -0.081     -0.06
  I     20       7.082     -0.082     -0.06
  I     21       7.081     -0.081     -0.06
  I     22       7.081     -0.081     -0.06
  I     23       7.081     -0.081     -0.06
  I     24       7.082     -0.082     -0.06
  Cr    25      13.756      0.244      1.67
  Cr    26      13.757      0.243      1.67
  I     27       7.081     -0.081     -0.06
  I     28       7.081     -0.081     -0.06
  I     29       7.081     -0.081     -0.06
  I     30       7.081     -0.081     -0.06
  I     31       7.081     -0.081     -0.06
  I     32       7.081     -0.081     -0.06
  Cr    33      13.756      0.244      1.67
  Cr    34      13.757      0.243      1.67
  I     35       7.081     -0.081     -0.06
  I     36       7.081     -0.081     -0.06
  I     37       7.081     -0.081     -0.06
  I     38       7.081     -0.081     -0.06
  I     39       7.081     -0.081     -0.06
  I     40       7.081     -0.081     -0.06
  Cr    41      13.758      0.242      1.67
  Cr    42      13.756      0.244      1.67
  I     43       7.081     -0.081     -0.06
  I     44       7.081     -0.081     -0.06
  I     45       7.081     -0.081     -0.06
  I     46       7.081     -0.081     -0.06
  I     47       7.081     -0.081     -0.06
  I     48       7.082     -0.082     -0.06
  Cr    49      13.756      0.244      1.67
  Cr    50      13.757      0.243      1.67
  I     51       7.081     -0.081     -0.06
  I     52       7.081     -0.081     -0.06
  I     53       7.081     -0.081     -0.06
  I     54       7.082     -0.082     -0.06
  I     55       7.081     -0.081     -0.06
  I     56       7.081     -0.081     -0.06
  Cr    57      13.756      0.244      1.67
  Cr    58      13.756      0.244      1.67
  I     59       7.081     -0.081     -0.06
  I     60       7.082     -0.082     -0.06
  I     61       7.081     -0.081     -0.06
  I     62       7.081     -0.081     -0.06
  I     63       7.081     -0.081     -0.06
  I     64       7.081     -0.081     -0.06
  Cr    65      13.757      0.243      1.67
  Cr    66      13.755      0.245      1.67
  I     67       7.081     -0.081     -0.06
  I     68       7.082     -0.082     -0.06
  I     69       7.081     -0.081     -0.06
  I     70       7.082     -0.082     -0.06
  I     71       7.081     -0.081     -0.06
  I     72       7.081     -0.081     -0.06
  Cr    73      13.754      0.246      1.67
  Cr    74      13.755      0.245      1.67
  I     75       7.082     -0.082     -0.06
  I     76       7.081     -0.081     -0.06
  I     77       7.082     -0.082     -0.06
  I     78       7.081     -0.081     -0.06
  I     79       7.082     -0.082     -0.06
  I     80       7.081     -0.081     -0.06
  Cr    81      13.756      0.244      1.67
  Cr    82      13.757      0.243      1.67
  I     83       7.081     -0.081     -0.06
  I     84       7.081     -0.081     -0.06
  I     85       7.081     -0.081     -0.06
  I     86       7.082     -0.082     -0.06
  I     87       7.081     -0.081     -0.06
  I     88       7.081     -0.081     -0.06
  Cr    89      13.756      0.244      1.67
  Cr    90      13.758      0.242      1.67
  I     91       7.081     -0.081     -0.06
  I     92       7.081     -0.081     -0.06
  I     93       7.081     -0.081     -0.06
  I     94       7.081     -0.081     -0.06
  I     95       7.081     -0.081     -0.06
  I     96       7.081     -0.081     -0.06
  Cr    97      13.755      0.245      1.67
  Cr    98      13.756      0.244      1.67
  I     99       7.081     -0.081     -0.06
  I    100       7.081     -0.081     -0.06
  I    101       7.082     -0.082     -0.06
  I    102       7.081     -0.081     -0.06
  I    103       7.082     -0.082     -0.06
  I    104       7.082     -0.082     -0.06
  Cr   105      13.755      0.245      1.67
  Cr   106      13.756      0.244      1.67
  I    107       7.082     -0.082     -0.06
  I    108       7.081     -0.081     -0.06
  I    109       7.082     -0.082     -0.06
  I    110       7.081     -0.081     -0.06
  I    111       7.081     -0.081     -0.06
  I    112       7.081     -0.081     -0.06
  Cr   113      13.757      0.243      1.67
  Cr   114      13.757      0.243      1.67
  I    115       7.081     -0.081     -0.06
  I    116       7.081     -0.081     -0.06
  I    117       7.081     -0.081     -0.06
  I    118       7.081     -0.081     -0.06
  I    119       7.081     -0.081     -0.06
  I    120       7.081     -0.081     -0.06
  Cr   121      13.750      0.250      1.65
  Cr   122      13.757      0.243      1.67
  I    123       7.082     -0.082     -0.05
  I    124       7.082     -0.082     -0.05
  I    125       7.082     -0.082     -0.06
  I    126       7.082     -0.082     -0.05
  I    127       7.082     -0.082     -0.05
  I    128       7.081     -0.081     -0.06
  Cr   129      13.755      0.245      1.67
  Cr   130      13.756      0.244      1.67
  I    131       7.081     -0.081     -0.06
  I    132       7.082     -0.082     -0.06
  I    133       7.081     -0.081     -0.06
  I    134       7.081     -0.081     -0.06
  I    135       7.081     -0.081     -0.06
  I    136       7.082     -0.082     -0.06
  Cr   137      13.754      0.246      1.67
  Cr   138      13.755      0.245      1.67
  I    139       7.082     -0.082     -0.06
  I    140       7.082     -0.082     -0.06
  I    141       7.081     -0.081     -0.06
  I    142       7.082     -0.082     -0.06
  I    143       7.081     -0.081     -0.06
  I    144       7.081     -0.081     -0.06
  Cr   145      13.756      0.244      1.67
  Cr   146      13.755      0.245      1.67
  I    147       7.082     -0.082     -0.06
  I    148       7.081     -0.081     -0.06
  I    149       7.081     -0.081     -0.06
  I    150       7.081     -0.081     -0.06
  I    151       7.081     -0.081     -0.06
  I    152       7.081     -0.081     -0.06
  Cr   153      13.757      0.243      1.67
  Cr   154      13.756      0.244      1.67
  I    155       7.081     -0.081     -0.06
  I    156       7.081     -0.081     -0.06
  I    157       7.081     -0.081     -0.06
  I    158       7.081     -0.081     -0.06
  I    159       7.081     -0.081     -0.06
  I    160       7.081     -0.081     -0.06
  Cr   161      13.757      0.243      1.67
  Cr   162      13.755      0.245      1.67
  I    163       7.081     -0.081     -0.06
  I    164       7.081     -0.081     -0.06
  I    165       7.081     -0.081     -0.06
  I    166       7.081     -0.081     -0.06
  I    167       7.081     -0.081     -0.06
  I    168       7.081     -0.081     -0.06
  Cr   169      13.756      0.244      1.67
  Cr   170      13.756      0.244      1.67
  I    171       7.081     -0.081     -0.06
  I    172       7.081     -0.081     -0.06
  I    173       7.081     -0.081     -0.06
  I    174       7.081     -0.081     -0.06
  I    175       7.081     -0.081     -0.06
  I    176       7.082     -0.082     -0.06
  Cr   177      13.755      0.245      1.67
  Cr   178      13.756      0.244      1.67
  I    179       7.082     -0.082     -0.06
  I    180       7.081     -0.081     -0.06
  I    181       7.081     -0.081     -0.06
  I    182       7.081     -0.081     -0.06
  I    183       7.081     -0.081     -0.06
  I    184       7.081     -0.081     -0.06
  Cr   185      13.757      0.243      1.67
  Cr   186      13.756      0.244      1.67
  I    187       7.081     -0.081     -0.06
  I    188       7.081     -0.081     -0.06
  I    189       7.081     -0.081     -0.06
  I    190       7.081     -0.081     -0.06
  I    191       7.081     -0.081     -0.06
  I    192       7.081     -0.081     -0.06
  Cr   193      13.756      0.244      1.67
  Cr   194      13.757      0.243      1.67
  I    195       7.081     -0.081     -0.06
  I    196       7.081     -0.081     -0.06
  I    197       7.081     -0.081     -0.06
  I    198       7.081     -0.081     -0.06
  I    199       7.081     -0.081     -0.06
  I    200       7.081     -0.081     -0.06
  Cr   201      13.756      0.244      1.67
  Cr   202      13.757      0.243      1.67
  I    203       7.081     -0.081     -0.06
  I    204       7.081     -0.081     -0.06
  I    205       7.081     -0.081     -0.06
  I    206       7.081     -0.081     -0.06
  I    207       7.081     -0.081     -0.06
  I    208       7.082     -0.082     -0.06
  Cr   209      13.756      0.244      1.67
  Cr   210      13.755      0.245      1.67
  I    211       7.081     -0.081     -0.06
  I    212       7.082     -0.082     -0.06
  I    213       7.081     -0.081     -0.06
  I    214       7.081     -0.081     -0.06
  I    215       7.081     -0.081     -0.06
  I    216       7.081     -0.081     -0.06
  Cr   217      13.756      0.244      1.67
  Cr   218      13.755      0.245      1.67
  I    219       7.081     -0.081     -0.06
  I    220       7.081     -0.081     -0.06
  I    221       7.082     -0.082     -0.05
  I    222       7.081     -0.081     -0.06
  I    223       7.082     -0.082     -0.06
  I    224       7.082     -0.082     -0.05
  Cr   225      13.757      0.243      1.67
  Cr   226      13.756      0.244      1.67
  I    227       7.082     -0.082     -0.06
  I    228       7.081     -0.081     -0.06
  I    229       7.081     -0.081     -0.06
  I    230       7.081     -0.081     -0.06
  I    231       7.081     -0.081     -0.06
  I    232       7.081     -0.081     -0.06
  Cr   233      13.756      0.244      1.67
  Cr   234      13.755      0.245      1.67
  I    235       7.082     -0.082     -0.06
  I    236       7.081     -0.081     -0.06
  I    237       7.081     -0.081     -0.06
  I    238       7.081     -0.081     -0.06
  I    239       7.082     -0.082     -0.06
  I    240       7.082     -0.082     -0.06
  Cr   241      13.755      0.245      1.67
  Cr   242      13.757      0.243      1.67
  I    243       7.081     -0.081     -0.06
  I    244       7.081     -0.081     -0.06
  I    245       7.081     -0.081     -0.06
  I    246       7.081     -0.081     -0.06
  I    247       7.082     -0.082     -0.06
  I    248       7.081     -0.081     -0.06
  Cr   249      13.756      0.244      1.67
  Cr   250      13.757      0.243      1.67
  I    251       7.081     -0.081     -0.06
  I    252       7.081     -0.081     -0.06
  I    253       7.081     -0.081     -0.06
  I    254       7.081     -0.081     -0.06
  I    255       7.081     -0.081     -0.06
  I    256       7.081     -0.081     -0.06
  Cr   257      13.756      0.244      1.67
  Cr   258      13.757      0.243      1.67
  I    259       7.081     -0.081     -0.06
  I    260       7.081     -0.081     -0.06
  I    261       7.081     -0.081     -0.06
  I    262       7.081     -0.081     -0.06
  I    263       7.081     -0.081     -0.06
  I    264       7.081     -0.081     -0.06
  Cr   265      13.755      0.245      1.67
  Cr   266      13.756      0.244      1.67
  I    267       7.081     -0.081     -0.06
  I    268       7.082     -0.082     -0.06
  I    269       7.082     -0.082     -0.06
  I    270       7.082     -0.082     -0.06
  I    271       7.082     -0.082     -0.06
  I    272       7.081     -0.081     -0.06
  Cr   273      13.756      0.244      1.67
  Cr   274      13.757      0.243      1.67
  I    275       7.081     -0.081     -0.06
  I    276       7.081     -0.081     -0.06
  I    277       7.081     -0.081     -0.06
  I    278       7.081     -0.081     -0.06
  I    279       7.081     -0.081     -0.06
  I    280       7.081     -0.081     -0.06
  Cr   281      13.756      0.244      1.67
  Cr   282      13.757      0.243      1.67
  I    283       7.081     -0.081     -0.06
  I    284       7.081     -0.081     -0.06
  I    285       7.081     -0.081     -0.06
  I    286       7.081     -0.081     -0.06
  I    287       7.081     -0.081     -0.06
  I    288       7.081     -0.081     -0.06
=================================================

        Bond         Population      Spin       Length (bohr)
=============================================================
 Cr  186 -- I   191        0.28     -0.03      4.86412
 Cr  178 -- I   183        0.28     -0.03      4.86412
 Cr  154 -- I   159        0.28     -0.03      4.86412
 Cr  162 -- I   167        0.28     -0.03      4.86412
 Cr  146 -- I   151        0.28     -0.03      4.86412
 Cr   82 -- I    87        0.28     -0.03      4.86412
 Cr  250 -- I   255        0.29     -0.03      4.86412
 Cr  226 -- I   231        0.28     -0.03      4.86412
 Cr   74 -- I    79        0.28     -0.03      4.86412
 Cr   10 -- I    15        0.29     -0.03      4.86412
 Cr  106 -- I   111        0.28     -0.03      4.86412
 Cr   34 -- I    39        0.29     -0.03      4.86412
 Cr   42 -- I    47        0.29     -0.03      4.86412
 Cr   18 -- I    23        0.29     -0.03      4.86412
 Cr  114 -- I   119        0.28     -0.03      4.86412
 Cr    2 -- I     7        0.28     -0.03      4.86412
 Cr   90 -- I    95        0.29     -0.03      4.86412
 Cr  218 -- I   223        0.28     -0.03      4.86412
 Cr  258 -- I   263        0.29     -0.03      4.86412
 Cr  234 -- I   239        0.28     -0.03      4.86412
 Cr  274 -- I   279        0.28     -0.03      4.86412
 Cr  130 -- I   135        0.28     -0.03      4.86412
 Cr   98 -- I   103        0.29     -0.03      4.86412
 Cr   66 -- I    71        0.29     -0.03      4.86412
 Cr  242 -- I   247        0.28     -0.03      4.86412
 Cr   50 -- I    55        0.28     -0.03      4.86412
 Cr   26 -- I    31        0.29     -0.03      4.86412
 Cr   58 -- I    63        0.29     -0.03      4.86412
 Cr  210 -- I   215        0.28     -0.03      4.86412
 Cr  170 -- I   175        0.29     -0.03      4.86412
 Cr  122 -- I   127        0.28     -0.03      4.86412
 Cr  266 -- I   271        0.28     -0.03      4.86412
 Cr  282 -- I   287        0.29     -0.03      4.86412
 Cr  138 -- I   143        0.28     -0.03      4.86412
 Cr  202 -- I   207        0.29     -0.03      4.86412
 Cr  194 -- I   199        0.29     -0.03      4.86412
 Cr  210 -- I   212        0.28     -0.03      4.86413
 Cr  138 -- I   140        0.28     -0.03      4.86413
 Cr   90 -- I    92        0.29     -0.03      4.86413
 Cr  258 -- I   260        0.28     -0.03      4.86413
 Cr  234 -- I   236        0.29     -0.03      4.86413
 Cr   42 -- I    44        0.28     -0.03      4.86413
 Cr   66 -- I    68        0.28     -0.03      4.86413
 Cr  114 -- I   116        0.28     -0.03      4.86413
 Cr   18 -- I    20        0.28     -0.03      4.86413
 Cr  162 -- I   164        0.28     -0.03      4.86413
 Cr  282 -- I   284        0.29     -0.03      4.86413
 Cr  186 -- I   188        0.28     -0.03      4.86413
 Cr  194 -- I   196        0.28     -0.03      4.86413
 Cr  202 -- I   204        0.29     -0.03      4.86413
 Cr   50 -- I    52        0.28     -0.03      4.86413
 Cr   58 -- I    60        0.28     -0.03      4.86413
 Cr  122 -- I   124        0.28     -0.03      4.86413
 Cr  266 -- I   268        0.28     -0.03      4.86413
 Cr  274 -- I   276        0.29     -0.03      4.86413
 Cr  130 -- I   132        0.29     -0.03      4.86413
 Cr  154 -- I   156        0.28     -0.03      4.86413
 Cr  170 -- I   172        0.29     -0.03      4.86413
 Cr   34 -- I    36        0.28     -0.03      4.86413
 Cr   10 -- I    12        0.29     -0.03      4.86413
 Cr  146 -- I   148        0.28     -0.03      4.86413
 Cr    2 -- I     4        0.28     -0.03      4.86413
 Cr   26 -- I    28        0.28     -0.03      4.86413
 Cr  242 -- I   244        0.28     -0.03      4.86413
 Cr  218 -- I   220        0.29     -0.03      4.86413
 Cr  178 -- I   180        0.28     -0.03      4.86413
 Cr   74 -- I    76        0.28     -0.03      4.86413
 Cr   98 -- I   100        0.29     -0.03      4.86413
 Cr  250 -- I   252        0.29     -0.03      4.86413
 Cr  226 -- I   228        0.28     -0.03      4.86413
 Cr  106 -- I   108        0.28     -0.03      4.86413
 Cr   82 -- I    84        0.29     -0.03      4.86413
 Cr  153 -- I   159        0.29     -0.03      4.86414
 Cr  177 -- I   183        0.28     -0.03      4.86414
 Cr   41 -- I    47        0.29     -0.03      4.86414
 Cr  161 -- I   167        0.29     -0.03      4.86414
 Cr    9 -- I    15        0.28     -0.03      4.86414
 Cr  185 -- I   191        0.28     -0.03      4.86414
 Cr   33 -- I    39        0.28     -0.03      4.86414
 Cr   17 -- I    23        0.28     -0.03      4.86414
 Cr  113 -- I   119        0.29     -0.03      4.86414
 Cr   89 -- I    95        0.28     -0.03      4.86414
 Cr  233 -- I   239        0.28     -0.03      4.86414
 Cr  257 -- I   263        0.28     -0.03      4.86414
 Cr  249 -- I   255        0.28     -0.03      4.86414
 Cr  225 -- I   231        0.28     -0.03      4.86414
 Cr   81 -- I    87        0.29     -0.03      4.86414
 Cr  105 -- I   111        0.28     -0.03      4.86414
 Cr  209 -- I   215        0.28     -0.03      4.86414
 Cr   65 -- I    71        0.29     -0.03      4.86414
 Cr   57 -- I    63        0.29     -0.03      4.86414
 Cr  137 -- I   143        0.28     -0.03      4.86414
 Cr  201 -- I   207        0.28     -0.03      4.86414
 Cr  281 -- I   287        0.29     -0.03      4.86414
 Cr  129 -- I   135        0.28     -0.03      4.86414
 Cr  273 -- I   279        0.28     -0.03      4.86414
 Cr   73 -- I    79        0.28     -0.03      4.86414
 Cr  217 -- I   223        0.28     -0.03      4.86414
 Cr  145 -- I   151        0.28     -0.03      4.86414
 Cr    1 -- I     7        0.28     -0.03      4.86414
 Cr  121 -- I   127        0.29     -0.03      4.86414
 Cr  241 -- I   247        0.28     -0.03      4.86414
 Cr   97 -- I   103        0.28     -0.03      4.86414
 Cr  265 -- I   271        0.28     -0.03      4.86414
 Cr   49 -- I    55        0.28     -0.03      4.86414
 Cr   25 -- I    31        0.28     -0.03      4.86414
 Cr  169 -- I   175        0.28     -0.03      4.86414
 Cr  193 -- I   199        0.28     -0.03      4.86414
 Cr  193 -- I   196        0.29     -0.03      4.86414
 Cr   49 -- I    52        0.28     -0.03      4.86414
 Cr  265 -- I   268        0.28     -0.03      4.86414
 Cr  121 -- I   124        0.29     -0.03      4.86414
 Cr  257 -- I   260        0.28     -0.03      4.86414
 Cr  169 -- I   172        0.28     -0.03      4.86414
 Cr  145 -- I   148        0.28     -0.03      4.86414
 Cr   65 -- I    68        0.28     -0.03      4.86414
 Cr  137 -- I   140        0.28     -0.03      4.86414
 Cr  185 -- I   188        0.29     -0.03      4.86414
 Cr  281 -- I   284        0.29     -0.03      4.86414
 Cr  209 -- I   212        0.28     -0.03      4.86414
 Cr  161 -- I   164        0.29     -0.03      4.86414
 Cr    1 -- I     4        0.28     -0.03      4.86414
 Cr   41 -- I    44        0.28     -0.03      4.86414
 Cr  113 -- I   116        0.29     -0.03      4.86414
 Cr  241 -- I   244        0.28     -0.03      4.86414
 Cr   25 -- I    28        0.28     -0.03      4.86414
 Cr   17 -- I    20        0.28     -0.03      4.86414
 Cr   89 -- I    92        0.28     -0.03      4.86414
 Cr  217 -- I   220        0.28     -0.03      4.86414
 Cr  233 -- I   236        0.28     -0.03      4.86414
 Cr   97 -- I   100        0.28     -0.03      4.86414
 Cr   73 -- I    76        0.28     -0.03      4.86414
 Cr  273 -- I   276        0.28     -0.03      4.86414
 Cr  201 -- I   204        0.28     -0.03      4.86414
 Cr  129 -- I   132        0.28     -0.03      4.86414
 Cr   57 -- I    60        0.28     -0.03      4.86414
 Cr   81 -- I    84        0.28     -0.03      4.86414
 Cr  105 -- I   108        0.28     -0.03      4.86414
 Cr  249 -- I   252        0.28     -0.03      4.86414
 Cr  225 -- I   228        0.28     -0.03      4.86414
 Cr  153 -- I   156        0.29     -0.03      4.86414
 Cr   33 -- I    36        0.28     -0.03      4.86414
 Cr  177 -- I   180        0.28     -0.03      4.86414
 Cr    9 -- I    12        0.28     -0.03      4.86414
 I    27 -- Cr  114        0.29     -0.03      5.11128
 I     3 -- Cr   90        0.29     -0.03      5.11128
 I    51 -- Cr  138        0.28     -0.03      5.11128
 Cr  266 -- I   275        0.29     -0.03      5.11128
 Cr  122 -- I   131        0.29     -0.03      5.11128
 Cr   74 -- I    83        0.29     -0.03      5.11128
 Cr   98 -- I   107        0.29     -0.03      5.11128
 Cr  242 -- I   251        0.29     -0.03      5.11128
 Cr  218 -- I   227        0.28     -0.03      5.11128
 Cr  146 -- I   155        0.28     -0.03      5.11128
 Cr  170 -- I   179        0.28     -0.03      5.11128
 Cr   50 -- I    59        0.29     -0.03      5.11128
 Cr    2 -- I    11        0.29     -0.03      5.11128
 Cr   26 -- I    35        0.29     -0.03      5.11128
 Cr  194 -- I   203        0.29     -0.03      5.11128
 I   171 -- Cr  258        0.28     -0.03      5.11128
 I   195 -- Cr  282        0.29     -0.03      5.11128
 I   147 -- Cr  234        0.28     -0.03      5.11128
 Cr  194 -- I   197        0.28     -0.03      5.11128
 Cr  210 -- I   213        0.28     -0.03      5.11128
 Cr  250 -- I   253        0.28     -0.03      5.11128
 Cr  242 -- I   245        0.28     -0.03      5.11128
 Cr   50 -- I    53        0.28     -0.03      5.11128
 Cr  234 -- I   237        0.28     -0.03      5.11128
 Cr  226 -- I   229        0.28     -0.03      5.11128
 Cr  218 -- I   221        0.28     -0.03      5.11128
 Cr   26 -- I    29        0.28     -0.03      5.11128
 Cr  154 -- I   157        0.28     -0.03      5.11128
 Cr  146 -- I   149        0.28     -0.03      5.11128
 Cr  106 -- I   109        0.28     -0.03      5.11128
 Cr  282 -- I   285        0.28     -0.03      5.11128
 Cr    2 -- I     5        0.28     -0.03      5.11128
 Cr  122 -- I   125        0.28     -0.03      5.11128
 Cr  130 -- I   133        0.28     -0.03      5.11128
 Cr   10 -- I    13        0.29     -0.03      5.11128
 Cr   58 -- I    61        0.28     -0.03      5.11128
 Cr   42 -- I    45        0.28     -0.03      5.11128
 Cr   82 -- I    85        0.28     -0.03      5.11128
 Cr   34 -- I    37        0.28     -0.03      5.11128
 Cr   18 -- I    21        0.28     -0.03      5.11128
 Cr  138 -- I   141        0.28     -0.03      5.11128
 Cr   98 -- I   101        0.28     -0.03      5.11128
 Cr   90 -- I    93        0.29     -0.03      5.11128
 Cr  114 -- I   117        0.28     -0.03      5.11128
 Cr   66 -- I    69        0.29     -0.03      5.11128
 Cr  202 -- I   205        0.28     -0.03      5.11128
 Cr  170 -- I   173        0.28     -0.03      5.11128
 Cr   74 -- I    77        0.28     -0.03      5.11128
 Cr  274 -- I   277        0.28     -0.03      5.11128
 Cr  162 -- I   165        0.28     -0.03      5.11128
 Cr  266 -- I   269        0.28     -0.03      5.11128
 Cr  178 -- I   181        0.28     -0.03      5.11128
 Cr  258 -- I   261        0.28     -0.03      5.11128
 Cr  186 -- I   189        0.28     -0.03      5.11128
 Cr  186 -- I   243        0.28     -0.03      5.11128
 Cr  210 -- I   267        0.28     -0.03      5.11128
 Cr  162 -- I   219        0.28     -0.03      5.11128
 Cr  274 -- I   283        0.29     -0.03      5.11128
 Cr  130 -- I   139        0.29     -0.03      5.11128
 Cr   82 -- I    91        0.29     -0.03      5.11128
 Cr  106 -- I   115        0.29     -0.03      5.11128
 Cr   34 -- I    43        0.29     -0.03      5.11128
 Cr   58 -- I    67        0.28     -0.03      5.11128
 Cr  226 -- I   235        0.28     -0.03      5.11128
 Cr  202 -- I   211        0.28     -0.03      5.11128
 Cr  178 -- I   187        0.29     -0.03      5.11128
 Cr   10 -- I    19        0.29     -0.03      5.11128
 Cr  154 -- I   163        0.28     -0.03      5.11128
 Cr  250 -- I   259        0.29     -0.03      5.11128
 Cr   18 -- I    75        0.28     -0.03      5.11128
 Cr   66 -- I   123        0.28     -0.03      5.11128
 Cr   42 -- I    99        0.28     -0.03      5.11128
 Cr  234 -- I   240        0.28     -0.03      5.11128
 Cr  138 -- I   144        0.29     -0.03      5.11128
 Cr  282 -- I   288        0.29     -0.03      5.11128
 Cr  258 -- I   264        0.28     -0.03      5.11128
 Cr  114 -- I   120        0.29     -0.03      5.11128
 Cr   90 -- I    96        0.29     -0.03      5.11128
 Cr  242 -- I   248        0.28     -0.03      5.11128
 Cr  122 -- I   128        0.29     -0.03      5.11128
 Cr  218 -- I   224        0.28     -0.03      5.11128
 Cr  194 -- I   200        0.28     -0.03      5.11128
 Cr   98 -- I   104        0.29     -0.03      5.11128
 Cr   74 -- I    80        0.29     -0.03      5.11128
 Cr  210 -- I   216        0.28     -0.03      5.11128
 Cr   42 -- I    48        0.28     -0.03      5.11128
 Cr   66 -- I    72        0.28     -0.03      5.11128
 Cr   50 -- I    56        0.29     -0.03      5.11128
 Cr   18 -- I    24        0.28     -0.03      5.11128
 Cr   26 -- I    32        0.29     -0.03      5.11128
 Cr   10 -- I    16        0.29     -0.03      5.11128
 Cr  250 -- I   256        0.28     -0.03      5.11128
 Cr    2 -- I     8        0.29     -0.03      5.11128
 Cr   34 -- I    40        0.29     -0.03      5.11128
 Cr  146 -- I   152        0.28     -0.03      5.11128
 Cr  266 -- I   272        0.29     -0.03      5.11128
 Cr  154 -- I   160        0.28     -0.03      5.11128
 Cr   58 -- I    64        0.29     -0.03      5.11128
 Cr  202 -- I   208        0.28     -0.03      5.11128
 Cr  162 -- I   168        0.28     -0.03      5.11128
 Cr  170 -- I   176        0.28     -0.03      5.11128
 Cr  178 -- I   184        0.29     -0.03      5.11128
 Cr  130 -- I   136        0.29     -0.03      5.11128
 Cr  226 -- I   232        0.29     -0.03      5.11128
 Cr  106 -- I   112        0.29     -0.03      5.11128
 Cr   82 -- I    88        0.29     -0.03      5.11128
 Cr  186 -- I   192        0.28     -0.03      5.11128
 Cr  274 -- I   280        0.29     -0.03      5.11128
 Cr  130 -- I   142        0.28     -0.03      5.11128
 Cr  274 -- I   286        0.28     -0.03      5.11128
 Cr  250 -- I   262        0.29     -0.03      5.11128
 Cr  226 -- I   238        0.28     -0.03      5.11128
 Cr  106 -- I   118        0.28     -0.03      5.11128
 Cr   82 -- I    94        0.28     -0.03      5.11128
 Cr  266 -- I   278        0.29     -0.03      5.11128
 Cr  242 -- I   254        0.29     -0.03      5.11128
 Cr  218 -- I   230        0.29     -0.03      5.11128
 Cr  194 -- I   206        0.28     -0.03      5.11128
 Cr  122 -- I   134        0.28     -0.03      5.11128
 Cr   34 -- I    46        0.28     -0.03      5.11128
 Cr  154 -- I   166        0.28     -0.03      5.11128
 Cr   26 -- I    38        0.28     -0.03      5.11128
 Cr   10 -- I    22        0.29     -0.03      5.11128
 Cr   58 -- I    70        0.28     -0.03      5.11128
 Cr   50 -- I    62        0.28     -0.03      5.11128
 Cr    2 -- I    14        0.28     -0.03      5.11128
 Cr  170 -- I   182        0.28     -0.03      5.11128
 Cr   74 -- I    86        0.28     -0.03      5.11128
 Cr   98 -- I   110        0.28     -0.03      5.11128
 Cr  146 -- I   158        0.28     -0.03      5.11128
 Cr  202 -- I   214        0.28     -0.03      5.11128
 Cr  178 -- I   190        0.28     -0.03      5.11128
 I   198 -- Cr  282        0.28     -0.03      5.11128
 I   150 -- Cr  234        0.28     -0.03      5.11128
 I   174 -- Cr  258        0.28     -0.03      5.11128
 I    54 -- Cr  138        0.28     -0.03      5.11128
 I     6 -- Cr   90        0.29     -0.03      5.11128
 I    30 -- Cr  114        0.28     -0.03      5.11128
 Cr   18 -- I    78        0.28     -0.03      5.11128
 Cr   42 -- I   102        0.28     -0.03      5.11128
 Cr   66 -- I   126        0.28     -0.03      5.11128
 Cr  210 -- I   270        0.28     -0.03      5.11128
 Cr  162 -- I   222        0.28     -0.03      5.11128
 Cr  186 -- I   246        0.28     -0.03      5.11128
 Cr  265 -- I   270        0.28     -0.03      5.11131
 Cr  241 -- I   246        0.28     -0.03      5.11131
 Cr  217 -- I   222        0.28     -0.03      5.11131
 Cr   97 -- I   102        0.28     -0.03      5.11131
 Cr   73 -- I    78        0.28     -0.03      5.11131
 Cr  121 -- I   126        0.29     -0.03      5.11131
 Cr  249 -- I   280        0.28     -0.03      5.11131
 Cr  185 -- I   216        0.28     -0.03      5.11131
 Cr  161 -- I   192        0.28     -0.03      5.11131
 Cr  153 -- I   184        0.28     -0.03      5.11131
 Cr  177 -- I   208        0.28     -0.03      5.11131
 Cr   89 -- I   120        0.28     -0.03      5.11131
 Cr   33 -- I    64        0.28     -0.03      5.11131
 Cr  129 -- I   232        0.28     -0.03      5.11131
 Cr  113 -- I   144        0.28     -0.03      5.11131
 Cr  233 -- I   264        0.28     -0.03      5.11131
 Cr   41 -- I    72        0.28     -0.03      5.11131
 Cr   17 -- I    48        0.28     -0.03      5.11131
 Cr  105 -- I   136        0.28     -0.03      5.11131
 Cr   81 -- I   112        0.28     -0.03      5.11131
 Cr  137 -- I   240        0.28     -0.03      5.11131
 Cr    9 -- I    40        0.28     -0.03      5.11131
 Cr  225 -- I   256        0.28     -0.03      5.11131
 Cr  257 -- I   288        0.28     -0.03      5.11131
 Cr  145 -- I   176        0.28     -0.03      5.11131
 Cr  121 -- I   224        0.29     -0.03      5.11131
 Cr  241 -- I   272        0.28     -0.03      5.11131
 Cr   73 -- I   104        0.28     -0.03      5.11131
 Cr    1 -- I    32        0.28     -0.03      5.11131
 Cr   97 -- I   128        0.28     -0.03      5.11131
 Cr   25 -- I    56        0.28     -0.03      5.11131
 Cr  169 -- I   200        0.28     -0.03      5.11131
 Cr  217 -- I   248        0.28     -0.03      5.11131
 Cr  273 -- I   278        0.28     -0.03      5.11131
 Cr   81 -- I    86        0.28     -0.03      5.11131
 Cr  105 -- I   110        0.28     -0.03      5.11131
 Cr  281 -- I   286        0.28     -0.03      5.11131
 Cr  129 -- I   134        0.28     -0.03      5.11131
 Cr  249 -- I   254        0.28     -0.03      5.11131
 Cr  225 -- I   230        0.29     -0.03      5.11131
 Cr  137 -- I   142        0.28     -0.03      5.11131
 Cr  257 -- I   262        0.28     -0.03      5.11131
 Cr   65 -- I    70        0.28     -0.03      5.11131
 Cr   57 -- I    62        0.28     -0.03      5.11131
 Cr  113 -- I   118        0.29     -0.03      5.11131
 Cr   41 -- I    46        0.29     -0.03      5.11131
 Cr   17 -- I    22        0.29     -0.03      5.11131
 Cr  233 -- I   238        0.29     -0.03      5.11131
 Cr    9 -- I    14        0.29     -0.03      5.11131
 Cr  201 -- I   206        0.29     -0.03      5.11131
 Cr   89 -- I    94        0.28     -0.03      5.11131
 Cr  177 -- I   182        0.28     -0.03      5.11131
 Cr  161 -- I   166        0.29     -0.03      5.11131
 Cr   33 -- I    38        0.29     -0.03      5.11131
 Cr  153 -- I   158        0.29     -0.03      5.11131
 Cr  185 -- I   190        0.29     -0.03      5.11131
 Cr  209 -- I   214        0.29     -0.03      5.11131
 Cr   65 -- I   168        0.28     -0.03      5.11131
 Cr   57 -- I   160        0.28     -0.03      5.11131
 Cr   49 -- I   152        0.28     -0.03      5.11131
 Cr  153 -- I   181        0.29     -0.03      5.11131
 Cr  177 -- I   205        0.28     -0.03      5.11131
 Cr    9 -- I    37        0.28     -0.03      5.11131
 Cr   33 -- I    61        0.29     -0.03      5.11131
 Cr  249 -- I   277        0.28     -0.03      5.11131
 Cr   41 -- I    69        0.29     -0.03      5.11131
 Cr  233 -- I   261        0.29     -0.03      5.11131
[...]
*    I     144      0.00131946  -0.00234053   0.00482271 *
*    Cr    145     -0.00002986   0.00001310  -0.00000254 *
*    Cr    146      0.00000109  -0.00002359  -0.00000177 *
*    I     147      0.00269826   0.00002353  -0.00482323 *
*    I     148     -0.00132307  -0.00230615  -0.00482840 *
*    I     149     -0.00133991   0.00233716  -0.00482525 *
*    I     150     -0.00269301  -0.00000907   0.00482715 *
*    I     151      0.00133634   0.00229993   0.00482806 *
*    I     152      0.00132610  -0.00234256   0.00482596 *
*    Cr    153      0.00000722   0.00000348  -0.00000111 *
*    Cr    154     -0.00000696  -0.00000572  -0.00000179 *
*    I     155      0.00269563   0.00003563  -0.00482242 *
*    I     156     -0.00131791  -0.00230638  -0.00482192 *
*    I     157     -0.00133460   0.00233758  -0.00482925 *
*    I     158     -0.00269328  -0.00000172   0.00482115 *
*    I     159      0.00133901   0.00229317   0.00482444 *
*    I     160      0.00132645  -0.00234047   0.00482824 *
*    Cr    161      0.00001262  -0.00000612  -0.00000120 *
*    Cr    162     -0.00002422   0.00001068  -0.00000078 *
*    I     163      0.00268928   0.00003262  -0.00482225 *
*    I     164     -0.00132116  -0.00230146  -0.00481504 *
*    I     165     -0.00132472   0.00233803  -0.00482017 *
*    I     166     -0.00269211  -0.00000731   0.00482369 *
*    I     167      0.00133207   0.00229797   0.00481630 *
*    I     168      0.00133045  -0.00233750   0.00482017 *
*    Cr    169     -0.00004050   0.00001657  -0.00000419 *
*    Cr    170     -0.00003112  -0.00000363  -0.00000256 *
*    I     171      0.00269536   0.00003060  -0.00482277 *
*    I     172     -0.00132391  -0.00229207  -0.00481468 *
*    I     173     -0.00132147   0.00233864  -0.00481737 *
*    I     174     -0.00268362  -0.00000747   0.00482627 *
*    I     175      0.00132319   0.00229580   0.00481548 *
*    I     176      0.00133644  -0.00233272   0.00481624 *
*    Cr    177     -0.00003491   0.00002187  -0.00000328 *
*    Cr    178      0.00000800  -0.00000377  -0.00000322 *
*    I     179      0.00268806   0.00001838  -0.00480939 *
*    I     180     -0.00131465  -0.00230509  -0.00482221 *
*    I     181     -0.00134076   0.00233154  -0.00482238 *
*    I     182     -0.00267943  -0.00001781   0.00481319 *
*    I     183      0.00133921   0.00229210   0.00482363 *
*    I     184      0.00131751  -0.00234940   0.00482361 *
*    Cr    185      0.00000221  -0.00000917  -0.00000064 *
*    Cr    186      0.00000167   0.00000940  -0.00000166 *
*    I     187      0.00269067   0.00002813  -0.00481958 *
*    I     188     -0.00131485  -0.00230516  -0.00482337 *
*    I     189     -0.00134172   0.00233226  -0.00482007 *
*    I     190     -0.00269342  -0.00000704   0.00482492 *
*    I     191      0.00133975   0.00229415   0.00482470 *
*    I     192      0.00131732  -0.00234904   0.00482564 *
*    Cr    193     -0.00000104  -0.00000062   0.00000013 *
*    Cr    194     -0.00001543   0.00000657  -0.00000409 *
*    I     195      0.00269410   0.00001725  -0.00482881 *
*    I     196     -0.00132659  -0.00230497  -0.00483252 *
*    I     197     -0.00133402   0.00233012  -0.00482646 *
*    I     198     -0.00269329  -0.00001759   0.00483438 *
*    I     199      0.00133214   0.00230348   0.00483354 *
*    I     200      0.00132309  -0.00234613   0.00482491 *
*    Cr    201     -0.00003566   0.00002626  -0.00000295 *
*    Cr    202     -0.00001233   0.00002837  -0.00000220 *
*    I     203      0.00269034   0.00002388  -0.00482097 *
*    I     204     -0.00131887  -0.00230457  -0.00482496 *
*    I     205     -0.00134085   0.00232683  -0.00481928 *
*    I     206     -0.00268786  -0.00001261   0.00482921 *
*    I     207      0.00133523   0.00229418   0.00482529 *
*    I     208      0.00132035  -0.00234923   0.00482161 *
*    Cr    209     -0.00002694   0.00001718  -0.00000123 *
*    Cr    210      0.00001776   0.00001714  -0.00000097 *
*    I     211      0.00269340   0.00001892  -0.00482341 *
*    I     212     -0.00132321  -0.00230825  -0.00482651 *
*    I     213     -0.00134593   0.00233359  -0.00482013 *
*    I     214     -0.00268874  -0.00001086   0.00482555 *
*    I     215      0.00133622   0.00229947   0.00482788 *
*    I     216      0.00132055  -0.00234780   0.00482221 *
*    Cr    217      0.00000660  -0.00003526  -0.00000066 *
*    Cr    218     -0.00000065   0.00000422  -0.00000064 *
*    I     219      0.00268794   0.00001365  -0.00481777 *
*    I     220     -0.00133758  -0.00229910  -0.00482064 *
*    I     221     -0.00133138   0.00233823  -0.00483985 *
*    I     222     -0.00268734  -0.00002177   0.00482161 *
*    I     223      0.00132664   0.00231035   0.00481922 *
*    I     224      0.00132987  -0.00233871   0.00484322 *
*    Cr    225     -0.00000050  -0.00002576  -0.00000290 *
*    Cr    226     -0.00003691  -0.00001759  -0.00000291 *
*    I     227      0.00269271   0.00000731  -0.00481857 *
*    I     228     -0.00132839  -0.00230222  -0.00483241 *
*    I     229     -0.00133986   0.00232772  -0.00482042 *
*    I     230     -0.00268961  -0.00002709   0.00482250 *
*    I     231      0.00133412   0.00230644   0.00483178 *
*    I     232      0.00132182  -0.00233999   0.00482389 *
*    Cr    233     -0.00002822   0.00000940  -0.00000271 *
*    Cr    234     -0.00003537  -0.00001022  -0.00000138 *
*    I     235      0.00269408   0.00002677  -0.00481980 *
*    I     236     -0.00131636  -0.00230469  -0.00482341 *
*    I     237     -0.00134104   0.00233005  -0.00481879 *
*    I     238     -0.00268600  -0.00000139   0.00482365 *
*    I     239      0.00134029   0.00229540   0.00482409 *
*    I     240      0.00132253  -0.00234003   0.00481896 *
*    Cr    241      0.00000345  -0.00004342  -0.00000275 *
*    Cr    242     -0.00002441  -0.00001600  -0.00000241 *
*    I     243      0.00268489   0.00002870  -0.00481929 *
*    I     244     -0.00131552  -0.00230343  -0.00482181 *
*    I     245     -0.00133741   0.00233834  -0.00482432 *
*    I     246     -0.00268683  -0.00000286   0.00482220 *
*    I     247      0.00133915   0.00229576   0.00482137 *
*    I     248      0.00132712  -0.00233849   0.00482654 *
*    Cr    249      0.00000004  -0.00004407  -0.00000321 *
*    Cr    250     -0.00003805  -0.00002161  -0.00000273 *
*    I     251      0.00268691   0.00002639  -0.00482193 *
*    I     252     -0.00131625  -0.00229914  -0.00482653 *
*    I     253     -0.00133399   0.00233816  -0.00482895 *
*    I     254     -0.00268319  -0.00000237   0.00482173 *
*    I     255      0.00133826   0.00229820   0.00482488 *
*    I     256      0.00133207  -0.00233545   0.00482882 *
*    Cr    257     -0.00000621  -0.00000989  -0.00000283 *
*    Cr    258     -0.00004097  -0.00001216  -0.00000382 *
*    I     259      0.00269128   0.00002666  -0.00482250 *
*    I     260     -0.00131676  -0.00230116  -0.00482784 *
*    I     261     -0.00133586   0.00233068  -0.00482224 *
*    I     262     -0.00268506  -0.00000781   0.00482608 *
*    I     263      0.00133614   0.00229844   0.00482517 *
*    I     264      0.00132174  -0.00234106   0.00482091 *
*    Cr    265      0.00000991  -0.00003531  -0.00000145 *
*    Cr    266      0.00002322  -0.00002046  -0.00000199 *
*    I     267      0.00269245   0.00002187  -0.00482494 *
*    I     268     -0.00133098  -0.00229255  -0.00481732 *
*    I     269     -0.00132978   0.00233381  -0.00480771 *
*    I     270     -0.00269182  -0.00000631   0.00482500 *
*    I     271      0.00132039   0.00230281   0.00481771 *
*    I     272      0.00132695  -0.00232607   0.00481115 *
*    Cr    273      0.00000992  -0.00004345  -0.00000411 *
*    Cr    274     -0.00000539  -0.00000877  -0.00000347 *
*    I     275      0.00268089   0.00001695  -0.00481412 *
*    I     276     -0.00131786  -0.00230082  -0.00482862 *
*    I     277     -0.00133944   0.00233431  -0.00482265 *
*    I     278     -0.00268253  -0.00001748   0.00481285 *
*    I     279      0.00133847   0.00229875   0.00482628 *
*    I     280      0.00131892  -0.00233878   0.00482628 *
*    Cr    281      0.00000380  -0.00000946  -0.00000058 *
*    Cr    282     -0.00000901  -0.00000037  -0.00000006 *
*    I     283      0.00269475   0.00002409  -0.00483240 *
*    I     284     -0.00132774  -0.00230256  -0.00483250 *
*    I     285     -0.00133413   0.00233616  -0.00482514 *
*    I     286     -0.00269385  -0.00001356   0.00483228 *
*    I     287      0.00132950   0.00230099   0.00483194 *
*    I     288      0.00132362  -0.00234053   0.00482454 *
*                                                        *
**********************************************************
* TOTAL:            0.00000000   0.00000000   0.00000000 *
**********************************************************
 
 
***********************************************************
********** Summary of Forces (values in Eh/a) *************
*                                                         *
* ---------------------- Minimum ------------------------ *
* Atom:        90, |F|min =    0.00000119                 *
* Components:     Fx|min       Fy|min       Fz|min        *
*              -0.00000097  -0.00000061   0.00000030      *
*                                                         *
* ---------------------- Maximum ------------------------ *
* Atom:       126, |F|max =    0.00554074                 *
* Components:     Fx|max       Fy|max       Fz|max        *
*              -0.00269229  -0.00001888   0.00484263      *
*                                                         *
* ---------------- Root Mean Square Force --------------- *
*                  |F|rms =    0.00477797                 *
* Components:     Fx|rms       Fy|rms       Fz|rms        *
*               0.00164062   0.00163978   0.00417714      *
***********************************************************
 

------------------------------ TIMING INFORMATION ------------------------------
AVERAGE TIME:   25588.850s on     56 proc(s)                                    
TOTAL TIME:     25588.851s on     56 proc(s)                                    
==================== AVERAGE TIMINGS FROM ALL PROCS (CUMULATIVE) =====================
|| TAG                                         #calls     cpu time   %total  Gflops ||
|| hubbard_species_proj                       :     1        0.00s   0.000%  ------ ||
|| hubbard_ngwf_on_grid                       :     1        0.00s   0.000%  ------ ||
|| linalg_invert_sym_matrix                   :     4        0.01s   0.000%  ------ || (1 procs only)
|| onetep.F90 main loop imbalance             :     1        0.00s   0.000%  ------ ||
|| sw_bessel_init_cpu                         :     1        0.01s   0.000%  ------ || (1 procs only)
|| hubbard_tensorial_correction               :     2        0.00s   0.000%  ------ ||
|| hubbard_ngwf_select                        :     1        0.00s   0.000%  ------ ||
|| hubbard_projector_character                :     1        0.00s   0.000%  ------ ||
|| density_fftbox_interp_mult_imbal           : 18282        0.00s   0.000%  ------ ||
|| hash_table_free                            :    59        0.01s   0.000%  ------ ||
|| sparse_blacstospam3_real_fast_imbal        :    24        0.01s   0.000%  ------ ||
|| sparse_spam3toblacs_real_fast_B2           :   560        0.02s   0.000%  ------ ||
|| linalg_dgemv                               :    32        0.02s   0.000%  ------ ||
|| onetep.F90 final imbalance                 :     1        0.03s   0.000%  ------ ||
|| ewald_calculate_forces_realspace           :     1        0.03s   0.000%  ------ ||
|| sparse_spam3toblacs_real_fast_imbal        :    10        0.04s   0.000%  ------ ||
|| ewald_calculate_energy                     :     1        0.04s   0.000%  ------ ||
|| ewald_calculate_forces_recipspace          :     1        0.06s   0.000%  ------ ||
|| restart_hamiltonian_write                  :     1        0.09s   0.000%  ------ ||
|| paw_tcore_hartree_on_grid                  :     1        0.10s   0.000%  ------ ||
|| sparse_set_to_garbage                      :  1290        0.10s   0.000%  ------ ||
|| sw_init                                    :   552        0.12s   0.000%  ------ ||
|| paw_dij_hartree                            :   302        0.14s   0.001%  ------ ||
|| pseudo_make_structure_factor               :     1        0.16s   0.001%  ------ ||
|| ewald_calculate_forces                     :     1        0.21s   0.001%  ------ ||
|| sparse_spam3toblacs_real_fast_B1           :   560        0.24s   0.001%  ------ ||
|| restart_kernel_read                        :     1        0.26s   0.001%  ------ ||
|| hubbard_projection_mtx                     :    61        0.37s   0.001%  ------ ||
|| sparse_spam3toblacs_real_fast              :    10        0.37s   0.001%  ------ ||
|| sparse_init                                :     1        0.40s   0.002%  ------ ||
|| augmentation_density_forces                :     1        0.42s   0.002%  ------ ||
|| paw_tcore_hartree_calc_forces              :     1        0.70s   0.003%  ------ ||
|| basis_extract_function_from_box            :  3600        0.90s   0.004%  ------ ||
|| hubbard_projector_ham                      :   132        1.03s   0.004%  ------ ||
|| hubbard_ham_matrix                         :   132        1.16s   0.005%  ------ ||
|| dense_eigensolve                           :     2        1.20s   0.005%  ------ ||
|| sparse_blacstospam3_real_fast              :    24        1.38s   0.005%  ------ ||
|| paw_tcore_density                          :     1        1.85s   0.007%  ------ ||
|| paw_dataset_init                           :     2        2.14s   0.008%  ------ ||
|| hubbard_energy_total                       :   273        2.28s   0.009%  ------ ||
|| paw_nlcc_calculate_forces                  :     1        2.52s   0.010%  ------ ||
|| paw_sphere_density_on_grid                 :     1        2.80s   0.011%  ------ ||
|| nonsc_forces_ngwfs_calc                    :     1        3.48s   0.014%  ------ ||
|| paw_species_calc_proj_prec_mat             :     1        5.83s   0.023%  ------ ||
|| restart_kernel_write                       :    26        6.01s   0.024%  ------ ||
|| sparse_embed_array_hotelling_invert        :    59        7.14s   0.028%  ------ ||
|| hubbard_calculate_forces                   :     1       10.50s   0.041%  ------ ||
|| energy_and_force_init_cell                 :     1       12.35s   0.048%  ------ ||
|| integrals_grad_spam3                       :     4       13.61s   0.053%  ------ ||
|| sparse_trace                               :  8900       14.23s   0.056%  ------ ||
|| kernel_fix                                 :   130       19.05s   0.074%  ------ ||
|| kernel_purify                              :   429       21.57s   0.084%  ------ ||
|| restart_ngwfs_tightbox_input               :     2       22.28s   0.087%  ------ ||
|| ngwf_gradient_coeffs                       :    27       23.42s   0.092%  ------ ||
|| lnv_gradient_norm                          :   130       23.53s   0.092%  ------ ||
|| fourier_filter_cell                        :   320       25.47s   0.100% 139.461 ||
|| basis_copy_function_to_box                 : 32657       30.98s   0.121%  ------ ||
|| eigenstates_calculate                      :     1       34.70s   0.136%  ------ ||
|| hartree_on_grid_single                     :   275       35.80s   0.140%  ------ ||
|| hamiltonian_energy_components              :     1       36.68s   0.143%  ------ ||
|| projectors_func_grad_ovlp_box_spam3        :     6       39.00s   0.152%  ------ ||
|| aug_nl_calculate_forces                    :     1       40.06s   0.157%  ------ ||
|| fourier_apply_box_pair                     :  5442       41.22s   0.161%  1.795k ||
|| fourier_interpolate_cell                   :   554       46.23s   0.181% 133.040 ||
|| hubbard_projector_update                   :     1       52.00s   0.203%  ------ ||
|| augmentation_screen_dij_spam3              :   274       90.23s   0.353%  ------ ||
|| cell_grid_deposit_box_real                 : 22416      117.97s   0.461%  ------ ||
|| forces_calculate                           :     1      124.84s   0.488%  ------ ||
|| sparse_product                             : 18494      127.03s   0.496%  ------ ||
|| aug_nonlocal_mat_spam3_embed_array         :   274      139.62s   0.546%  ------ ||
|| paw_dij_xc                                 :   302      147.41s   0.576%  ------ ||
|| fourier_apply_cell_backward                :  2476      165.54s   0.647% 149.414 ||
|| fourier_apply_cell_forward                 :  2476      173.75s   0.679% 142.353 ||
|| fourier_filter                             :  6072      189.74s   0.742%  ------ ||
|| aug_density_on_grid_spam3                  :   277      200.26s   0.783%  ------ ||
|| projectors_init_fftbox_recip               :   735      267.67s   1.046%  ------ ||
|| cell_grid_extract_box_real                 : 14112      289.11s   1.130%  ------ ||
|| fourier_interpolate                        :  6072      296.62s   1.159%  ------ ||
|| restart_ngwfs_tightbox_output              :    27      319.38s   1.248%  ------ ||
|| function_ops_brappd_ketppd_spam3           :   240      366.10s   1.431%  ------ ||
|| xc_energy_potential                        :   275      377.31s   1.475%  ------ ||
|| properties_calculate                       :     1      459.32s   1.795%  ------ ||
|| density_fftbox_deposit_to_cell             : 18282      715.51s   2.796%  ------ ||
|| projectors_func_ovlp_box_spam3             :   242      894.91s   3.497%  ------ ||
|| integrals_kinetic_spam3                    :   118      986.83s   3.856%  ------ ||
|| basis_dot_function_with_box                : 11.61M    1215.93s   4.752%  ------ ||
|| potential_apply_to_ngwf_batch              :   794     1486.59s   5.810%  ------ ||
|| projectors_gradient_batch                  :   324     1752.59s   6.849%  ------ ||
|| integrals_locpot_mat_els_batch             :   794     2286.18s   8.934%  ------ ||
|| fourier_apply_box                          : 101.7k    2286.44s   8.935%  1.971k ||
|| fourier_interpolate_product                : 17807     2501.84s   9.777%  ------ ||
|| density_fftbox_interpolate_multiply        : 18282     2628.54s  10.272%  ------ ||
|| basis_add_function_to_box                  : 22.69M    2665.35s  10.416%  ------ ||
|| projectors_grad_precond_batch              :   162     3478.92s  13.595%  ------ ||
|| integrals_locpot_dbl_grid                  :   266     3775.10s  14.753%  ------ ||
|| density_batch_interp_deposit               :  1662     4487.01s  17.535%  ------ ||
|| density_batch_row_sums                     :  1662     4575.36s  17.880%  ------ ||
|| ngwf_gradient_build_batch                  :   162     5820.59s  22.747%  ------ ||
|| ngwf_gradient_batch                        :   162     8331.55s  32.559%  ------ ||
|| ngwf_gradient_lnv                          :    27     8457.18s  33.050%  ------ ||
|| density_on_dbl_grid                        :   554     9143.23s  35.731%  ------ ||
|| hamiltonian_lhxc_calculate                 :   273     9820.37s  38.378%  ------ ||
|| lnv_denskernel_optimise_cg                 :    26    12525.41s  48.949%  ------ ||
|| ngwf_cg_optimise                           :     1    24867.01s  97.179%  ------ ||
|| energy_and_forces                          :     1    25574.78s  99.945%  ------ ||
|| total_time                                 :     1    25588.85s 100.000%  ------ ||
======================================================================================
Overhead of generating timer report: 
- 0 ms averaging over threads,
- 5 ms ensuring consistency across MPI ranks,
- 35 ms printing in order.

Job completed: 02-10-2024 05:58 (+0100)

onetep_launcher: ONETEP seems to have finished correctly (zero exit code).
                 Brought to you by PID 164449 on nid001507.
