==================================================================================
It's Tue 01 Oct 2024 11:46:34 AM BST.
*** Starting onetep_launcher (node nid006260, PIDs 132395 132396 132397 132398 132399 132400 132401 132402)...
    - ONETEP arguments: U_0.5_0.1.dat
    - Current directory: /work/e89/e89/phsmea/U_det/U_0.05_0.1
    - Launcher executable directory: /mnt/lustre/a2fs-work3/work/e89/e89/phsmea/U_det/U_0.05_0.1
    - (-e) ONETEP executable specified through command-line: /work/e89/e89/phsmea/onetep.archer2_2024_cray
      ... trying /work/e89/e89/phsmea/onetep.archer2_2024_cray
          -> looks OK
*** Setting up environment...
    - (-s) Process stack size: unlimited
    - (-t) OMP_NUM_THREADS: 16
    - (-o) OMP_STACKSIZE: 64M
    - (-c) Maximum core file size: 2048000
    - (-d) decfort_dump_flag: n
    - (-m) I_MPI_OFA_TRANSLATION_CACHE: 0
    - (-m) I_MPI_DAPL_TRANSLATION_CACHE: 0
    - (-m) I_MPI_DAPL_UD_TRANSLATION_CACHE: 0
*** Starting ONETEP...
    - /work/e89/e89/phsmea/onetep.archer2_2024_cray U_0.5_0.1.dat
=================================================================================
_________________________________________________________________________________
 +---------------------------------------------------------------+
 |                                                               |
 |        ####### #     # ####### ####### ####### ######         |
 |        #     # ##    # #          #    #       #     #        |
 |        #     # # #   # #          #    #       #     #        |
 |        #     # #  #  # #####      #    #####   ######         |
 |        #     # #   # # #          #    #       #              |
 |        #     # #    ## #          #    #       #              |
 |        ####### #     # #######    #    ####### #              |
 |                                                               |
 |        Linear-Scaling Ab Initio Total Energy Program          |
 |                                                               |
 |          Release for academic collaborators of ODG            |
 |                                             Version 7.3.0     |
 | Remote: git@github.com:Miesaz/onetep_mea.git                  |
 | Local branch: master                                          |
 | Commit ID: 4af45e89288c8df5499704252eec3e032ee3d0c8           |
 | Date: Tue Aug 6 11:28:44 2024 +0100                           |
 | Working tree clean                                            |
 |                                                               |
 +---------------------------------------------------------------+
 |                                                               |
 |  Authors:                                                     |
 |  Jacek Dziedzic, Peter D. Haynes, Nicholas D. M. Hine,        |
 |  Arash A. Mostofi, Mike C. Payne and Chris-Kriton Skylaris    |
 |                                                               |
 |  Contributors:                                                |
 |  J. Aarons, L. Andrinopoulos, P. W. Avraam, R. A. Bell,       |
 |  A. Bhandari, G. A. Bramley, R. J. Charlton, S. J. Clark,     |
 |  R. J. Clements, G. C. Constantinescu, F. Corsetti,           |
 |  N. Corsini, O. Dieguez, S. M. M. Dubois, K. K. B. Duff,      |
 |  J. M. Escartin, M. Escobar Azor, A. Greco,                   |
 |  H. Helal, Q. O. Hill, L. P. Lee, J.-H. Li,                   |
 |  T. Li, E. B. Linscott, G. Moynihan, D. D. O`Regan,           |
 |  O. K. Okan, E. Parkinson, M. J. S. Phipps,                   |
 |  C. J. Pickard, J. C. A. Prentice, M. I. J. Probert,          |
 |  L. E. Ratcliff, M. Robinson, A. Ruiz Serrano,                |
 |  M. dos Santos Dias, J. S. Spencer, E. W. Tait,               |
 |  G. Teobaldi, D. Turban, V. Vitale, K. A. Wilkinson,          |
 |  C. Weber, J. C. Womack, Chengcheng Xiao, N. Yeung,           |
 |  and T. J. Zuehlsdorff.                                       |
 |                                                               |
 |                                   Copyright (c) 2004-2024     |
 |                                                               |
 |  Please cite:                                                 |
 |  "The ONETEP linear-scaling density functional theory program"|
 |   J. Chem. Phys. 152(17) 174111 (2020)                        |
 |                                                               |
 |          in all publications arising from your use of ONETEP. |
 |                                                               |
 +---------------------------------------------------------------+
 |                                                               |
 |   ONETEP is based on developments described in the following  |
 |   publications:                                               |
 |                                                               |
 |  "Nonorthogonal generalized Wannier function pseudopotential  |
 |   plane-wave method".                                         |
 |   C.-K. Skylaris, A. A. Mostofi, P. D. Haynes, O. Dieguez,    |
 |   M. C. Payne.                                                |
 |   Phys. Rev. B 66 035119 (2002).                              |
 |                                                               |
 |  "Preconditioned iterative minimization for linear-scaling    |
 |   electronic structure calculations".                         |
 |   A. A. Mostofi, P. D. Haynes, C.-K. Skylaris, M. C. Payne.   |
 |   J. Chem. Phys. 119(17), pp.8842-8848 (2003).                |
 |                                                               |
 |  "Total-energy calculations on a real space grid with         |
 |   localized functions and a plane-wave basis".                |
 |   A. A. Mostofi, C.-K. Skylaris, P. D. Haynes, M. C. Payne.   |
 |   Comput. Phys. Commun. 147, pp.788-802 (2002).               |
 |                                                               |
 |  "Accurate kinetic energy evaluation in electronic structure  |
 |   calculations with localized functions on real space grids"  |
 |   C.-K. Skylaris, A. A. Mostofi, P. D. Haynes, C. J. Pickard, |
 |   M. C. Payne.                                                |
 |   Comput. Phys. Commun. 140, pp.315-322 (2001).               |
 |                                                               |
 |  "Accurate ionic forces and geometry optimization in linear-  |
 |   scaling density-functional theory with local orbitals"      |
 |   N. D. M. Hine, M. Robinson, P. D. Haynes, C.-K. Skylaris,   |
 |   M. C. Payne, and A. A. Mostofi.                             |
 |   Phys. Rev. B 83 195102 (2011).                              |
 |                                                               |
 +---------------------------------------------------------------+

Job started: 01-10-2024 11:46 (+0100)
 
Reading parameters from file "U_0.5_0.1.dat" ...
WARNING in get_rundat: hubbard_calculating_u is TRUE, so do_properties will be
overridden to TRUE.
... done

If your calculation crashes here, before "Checking processes and threads..."
is displayed, then your stack size is insufficient.
If so, use "ulimit -s unlimited" at runtime.
You can disable this check with "check_stack_size F".

Checking processes and threads...
   Running with 56 MPI processes.
   There are 8 MPI processes running on the same node as the root process.
   Each MPI process is using: 
               1 threads for simulation cell FFTs.
               1 threads for threaded FFT box operations.
              16 threads for loops over batched FFT box operations.
              16 threads in other parallel regions.
   MPI Interface: S1 (use mpi_f08) (-DMPI -DUSE_MPI_F08).
   MPI_ASYNC_PROTECTS_NONBLOCKING: Yes. MPI_SUBARRAYS_SUPPORTED: Yes.
   FFTW Interface: OMP-capable and MODERN. (-DUSE_MODERN_FFTW specified).
   GPU Interface: None.
   GPU FFT Backend: None.
... done

Basic input checks...... done

Reading geometry and species blocks from file "U_0.5_0.1.dat" ...... done


--------------------------------------------------------------------------------
---------------------------------- INPUT FILE ----------------------------------
--------------------------------------------------------------------------------

charge : 0                                                                      
cutoff_energy : 1000 eV                                                         
do_properties : T                                                               
edft : F                                                                        
edft_init_maxit : 5                                                             
elec_energy_tol : 2e-07 Ha                                                      
fine_grid_scale : 4                                                             
forces_output_detail : VERBOSE                                                  
hubbard_calculating_u : T                                                       
maxit_ngwf_cg : 40                                                              
ngwf_threshold_orig : 1e-06                                                     
output_detail : BRIEF                                                           
paw : T                                                                         
spin_polarized : T                                                              
ngwfs_spin_polarized : T                                                        
read_denskern : F                                                               
read_hamiltonian : F                                                            
read_tightbox_ngwfs : F                                                         
spin : 216                                                                      
task : SinglePoint                                                              
write_denskern : T                                                              
write_forces : T                                                                
write_hamiltonian : T                                                           
write_tightbox_ngwfs : T                                                        
xc_functional : PBE                                                             
%BLOCK LATTICE_CART                                                             
ang                                                                             
41.261892132    0.000000000     0.000000000                                     
-20.630946066   35.733846792     0.000000000                                    
0.0000000000    0.000000000    17.192455055                                     
%ENDBLOCK LATTICE_CART                                                          
%BLOCK POSITIONS_ABS                                                            
ang                                                                             
Cr       3.43849101       1.98521371       9.03176873                           
Cr       0.00000000       3.97042742       9.03176919                           
I        4.42260340      -0.00001318       7.48054615                           
I        1.22717790       2.12556082       7.48054615                           
I       -2.21129029       3.83009349       7.48054615                           
I        2.45437873      -0.00001140      10.58299027                           
I        2.21129177       3.83009250      10.58299027                           
I       -1.22717949       2.12556004      10.58299027                           
Cr       0.00000000       7.94085485       9.03176873                           
Cr      -3.43849101       9.92606855       9.03176919                           
I        0.98411239       5.95562795       7.48054615                           
I       -2.21131311       8.08120195       7.48054615                           
I       -5.64978130       9.78573462       7.48054615                           
I       -0.98411228       5.95562973      10.58299027                           
I       -1.22719924       9.78573363      10.58299027                           
I       -4.66567050       8.08120117      10.58299027                           
Cr      -3.43849101      13.89649598       9.03176873                           
Cr      -6.87698202      15.88170968       9.03176919                           
I       -2.45437862      11.91126909       7.48054615                           
I       -5.64980412      14.03684309       7.48054615                           
I       -9.08827231      15.74137575       7.48054615                           
I       -4.42260329      11.91127086      10.58299027                           
I       -4.66569025      15.74137476      10.58299027                           
I       -8.10416151      14.03684230      10.58299027                           
Cr      10.31547303       1.98521371       9.03176873                           
Cr       6.87698202       3.97042742       9.03176919                           
I       11.29958542      -0.00001318       7.48054615                           
I        8.10415992       2.12556082       7.48054615                           
I        4.66569173       3.83009349       7.48054615                           
I        9.33136075      -0.00001140      10.58299027                           
I        9.08827380       3.83009250      10.58299027                           
I        5.64980253       2.12556004      10.58299027                           
Cr       6.87698202       7.94085485       9.03176873                           
Cr       3.43849101       9.92606855       9.03176919                           
I        7.86109441       5.95562795       7.48054615                           
I        4.66566891       8.08120195       7.48054615                           
I        1.22720072       9.78573462       7.48054615                           
I        5.89286974       5.95562973      10.58299027                           
I        5.64978278       9.78573363      10.58299027                           
I        2.21131152       8.08120117      10.58299027                           
Cr       3.43849101      13.89649598       9.03176873                           
Cr       0.00000000      15.88170968       9.03176919                           
I        4.42260340      11.91126909       7.48054615                           
I        1.22717790      14.03684309       7.48054615                           
I       -2.21129029      15.74137575       7.48054615                           
I        2.45437873      11.91127086      10.58299027                           
I        2.21129177      15.74137476      10.58299027                           
I       -1.22717949      14.03684230      10.58299027                           
Cr      17.19245505       1.98521371       9.03176873                           
Cr      13.75396404       3.97042742       9.03176919                           
I       18.17656744      -0.00001318       7.48054615                           
I       14.98114195       2.12556082       7.48054615                           
I       11.54267375       3.83009349       7.48054615                           
I       16.20834277      -0.00001140      10.58299027                           
I       15.96525582       3.83009250      10.58299027                           
I       12.52678455       2.12556004      10.58299027                           
Cr      13.75396404       7.94085485       9.03176873                           
Cr      10.31547303       9.92606855       9.03176919                           
I       14.73807643       5.95562795       7.48054615                           
I       11.54265094       8.08120195       7.48054615                           
I        8.10418274       9.78573462       7.48054615                           
I       12.76985176       5.95562973      10.58299027                           
I       12.52676481       9.78573363      10.58299027                           
I        9.08829354       8.08120117      10.58299027                           
Cr      10.31547303      13.89649598       9.03176873                           
Cr       6.87698202      15.88170968       9.03176919                           
I       11.29958542      11.91126909       7.48054615                           
I        8.10415992      14.03684309       7.48054615                           
I        4.66569173      15.74137575       7.48054615                           
I        9.33136075      11.91127086      10.58299027                           
I        9.08827380      15.74137476      10.58299027                           
I        5.64980253      14.03684230      10.58299027                           
Cr      -6.87698202      19.85213711       9.03176873                           
Cr     -10.31547303      21.83735082       9.03176919                           
I       -5.89286963      17.86691022       7.48054615                           
I       -9.08829513      19.99248422       7.48054615                           
I      -12.52676332      21.69701689       7.48054615                           
I       -7.86109430      17.86691200      10.58299027                           
I       -8.10418126      21.69701590      10.58299027                           
I      -11.54265252      19.99248344      10.58299027                           
Cr     -10.31547303      25.80777825       9.03176873                           
Cr     -13.75396404      27.79299195       9.03176919                           
I       -9.33136064      23.82255135       7.48054615                           
I      -12.52678614      25.94812535       7.48054615                           
I      -15.96525433      27.65265802       7.48054615                           
I      -11.29958531      23.82255313      10.58299027                           
I      -11.54267227      27.65265703      10.58299027                           
I      -14.98114353      25.94812457      10.58299027                           
Cr     -13.75396404      31.76341938       9.03176873                           
Cr     -17.19245505      33.74863308       9.03176919                           
I      -12.76985165      29.77819249       7.48054615                           
I      -15.96527715      31.90376649       7.48054615                           
I      -19.40374534      33.60829915       7.48054615                           
I      -14.73807632      29.77819426      10.58299027                           
I      -14.98116328      33.60829816      10.58299027                           
I      -18.41963454      31.90376570      10.58299027                           
Cr      -0.00000000      19.85213711       9.03176873                           
Cr      -3.43849101      21.83735082       9.03176919                           
I        0.98411239      17.86691022       7.48054615                           
I       -2.21131311      19.99248422       7.48054615                           
I       -5.64978130      21.69701689       7.48054615                           
I       -0.98411228      17.86691200      10.58299027                           
I       -1.22719923      21.69701590      10.58299027                           
I       -4.66567050      19.99248344      10.58299027                           
Cr      -3.43849101      25.80777825       9.03176873                           
Cr      -6.87698202      27.79299195       9.03176919                           
I       -2.45437862      23.82255135       7.48054615                           
I       -5.64980412      25.94812535       7.48054615                           
I       -9.08827231      27.65265802       7.48054615                           
I       -4.42260329      23.82255313      10.58299027                           
I       -4.66569025      27.65265703      10.58299027                           
I       -8.10416151      25.94812457      10.58299027                           
Cr      -6.87698202      31.76341938       9.03176873                           
Cr     -10.31547303      33.74863308       9.03176919                           
I       -5.89286963      29.77819249       7.48054615                           
I       -9.08829513      31.90376649       7.48054615                           
I      -12.52676332      33.60829915       7.48054615                           
I       -7.86109430      29.77819426      10.58299027                           
I       -8.10418126      33.60829816      10.58299027                           
I      -11.54265252      31.90376570      10.58299027                           
CrU       6.87698202      19.85213711       9.03176873                          
Cr       3.43849101      21.83735082       9.03176919                           
I        7.86109441      17.86691022       7.48054615                           
I        4.66566892      19.99248422       7.48054615                           
I        1.22720072      21.69701689       7.48054615                           
I        5.89286974      17.86691200      10.58299027                           
I        5.64978279      21.69701590      10.58299027                           
I        2.21131152      19.99248344      10.58299027                           
Cr       3.43849101      25.80777825       9.03176873                           
Cr      -0.00000000      27.79299195       9.03176919                           
I        4.42260340      23.82255135       7.48054615                           
I        1.22717791      25.94812535       7.48054615                           
I       -2.21129029      27.65265802       7.48054615                           
I        2.45437873      23.82255313      10.58299027                           
I        2.21129178      27.65265703      10.58299027                           
I       -1.22717949      25.94812457      10.58299027                           
Cr      -0.00000000      31.76341938       9.03176873                           
Cr      -3.43849101      33.74863308       9.03176919                           
I        0.98411239      29.77819249       7.48054615                           
I       -2.21131311      31.90376649       7.48054615                           
I       -5.64978130      33.60829915       7.48054615                           
I       -0.98411228      29.77819426      10.58299027                           
I       -1.22719923      33.60829816      10.58299027                           
I       -4.66567050      31.90376570      10.58299027                           
Cr      24.06943708       1.98521371       9.03176873                           
Cr      20.63094607       3.97042742       9.03176919                           
I       25.05354947      -0.00001318       7.48054615                           
I       21.85812397       2.12556082       7.48054615                           
I       18.41965578       3.83009349       7.48054615                           
I       23.08532480      -0.00001140      10.58299027                           
I       22.84223784       3.83009250      10.58299027                           
I       19.40376658       2.12556004      10.58299027                           
Cr      20.63094607       7.94085485       9.03176873                           
Cr      17.19245506       9.92606855       9.03176919                           
I       21.61505846       5.95562795       7.48054615                           
I       18.41963296       8.08120195       7.48054615                           
I       14.98116477       9.78573462       7.48054615                           
I       19.64683379       5.95562973      10.58299027                           
I       19.40374683       9.78573363      10.58299027                           
I       15.96527557       8.08120117      10.58299027                           
Cr      17.19245506      13.89649598       9.03176873                           
Cr      13.75396405      15.88170968       9.03176919                           
I       18.17656745      11.91126909       7.48054615                           
I       14.98114195      14.03684309       7.48054615                           
I       11.54267376      15.74137575       7.48054615                           
I       16.20834278      11.91127086      10.58299027                           
I       15.96525582      15.74137476      10.58299027                           
I       12.52678456      14.03684230      10.58299027                           
Cr      30.94641910       1.98521371       9.03176873                           
Cr      27.50792809       3.97042742       9.03176919                           
I       31.93053149      -0.00001318       7.48054615                           
I       28.73510599       2.12556082       7.48054615                           
I       25.29663780       3.83009349       7.48054615                           
I       29.96230682      -0.00001140      10.58299027                           
I       29.71921987       3.83009250      10.58299027                           
I       26.28074860       2.12556004      10.58299027                           
Cr      27.50792809       7.94085485       9.03176873                           
Cr      24.06943708       9.92606855       9.03176919                           
I       28.49204048       5.95562795       7.48054615                           
I       25.29661498       8.08120195       7.48054615                           
I       21.85814679       9.78573462       7.48054615                           
I       26.52381581       5.95562973      10.58299027                           
I       26.28072885       9.78573363      10.58299027                           
I       22.84225759       8.08120117      10.58299027                           
Cr      24.06943708      13.89649598       9.03176873                           
Cr      20.63094607      15.88170968       9.03176919                           
I       25.05354947      11.91126909       7.48054615                           
I       21.85812397      14.03684309       7.48054615                           
I       18.41965578      15.74137575       7.48054615                           
I       23.08532480      11.91127086      10.58299027                           
I       22.84223784      15.74137476      10.58299027                           
I       19.40376658      14.03684230      10.58299027                           
Cr      37.82340112       1.98521371       9.03176873                           
Cr      34.38491011       3.97042742       9.03176919                           
I       38.80751351      -0.00001318       7.48054615                           
I       35.61208802       2.12556082       7.48054615                           
I       32.17361982       3.83009349       7.48054615                           
I       36.83928884      -0.00001140      10.58299027                           
I       36.59620189       3.83009250      10.58299027                           
I       33.15773062       2.12556004      10.58299027                           
Cr      34.38491011       7.94085485       9.03176873                           
Cr      30.94641910       9.92606855       9.03176919                           
I       35.36902250       5.95562795       7.48054615                           
I       32.17359701       8.08120195       7.48054615                           
I       28.73512881       9.78573462       7.48054615                           
I       33.40079783       5.95562973      10.58299027                           
I       33.15771088       9.78573363      10.58299027                           
I       29.71923961       8.08120117      10.58299027                           
Cr      30.94641910      13.89649598       9.03176873                           
Cr      27.50792809      15.88170968       9.03176919                           
I       31.93053149      11.91126909       7.48054615                           
I       28.73510599      14.03684309       7.48054615                           
I       25.29663780      15.74137575       7.48054615                           
I       29.96230682      11.91127086      10.58299027                           
I       29.71921987      15.74137476      10.58299027                           
I       26.28074860      14.03684230      10.58299027                           
Cr      13.75396404      19.85213711       9.03176873                           
Cr      10.31547303      21.83735082       9.03176919                           
I       14.73807643      17.86691022       7.48054615                           
I       11.54265093      19.99248422       7.48054615                           
I        8.10418274      21.69701689       7.48054615                           
I       12.76985176      17.86691200      10.58299027                           
I       12.52676480      21.69701590      10.58299027                           
I        9.08829354      19.99248344      10.58299027                           
Cr      10.31547303      25.80777825       9.03176873                           
Cr       6.87698202      27.79299195       9.03176919                           
I       11.29958542      23.82255135       7.48054615                           
I        8.10415992      25.94812535       7.48054615                           
I        4.66569173      27.65265802       7.48054615                           
I        9.33136075      23.82255313      10.58299027                           
I        9.08827379      27.65265703      10.58299027                           
I        5.64980253      25.94812457      10.58299027                           
Cr       6.87698202      31.76341938       9.03176873                           
Cr       3.43849101      33.74863308       9.03176919                           
I        7.86109441      29.77819249       7.48054615                           
I        4.66566891      31.90376649       7.48054615                           
I        1.22720072      33.60829915       7.48054615                           
I        5.89286974      29.77819426      10.58299027                           
I        5.64978278      33.60829816      10.58299027                           
I        2.21131152      31.90376570      10.58299027                           
Cr      20.63094606      19.85213711       9.03176873                           
Cr      17.19245505      21.83735082       9.03176919                           
I       21.61505845      17.86691022       7.48054615                           
I       18.41963295      19.99248422       7.48054615                           
I       14.98116476      21.69701689       7.48054615                           
I       19.64683378      17.86691200      10.58299027                           
I       19.40374683      21.69701590      10.58299027                           
I       15.96527556      19.99248344      10.58299027                           
Cr      17.19245505      25.80777825       9.03176873                           
Cr      13.75396404      27.79299195       9.03176919                           
I       18.17656744      23.82255135       7.48054615                           
I       14.98114194      25.94812535       7.48054615                           
I       11.54267375      27.65265802       7.48054615                           
I       16.20834277      23.82255313      10.58299027                           
I       15.96525581      27.65265703      10.58299027                           
I       12.52678455      25.94812457      10.58299027                           
Cr      13.75396404      31.76341938       9.03176873                           
Cr      10.31547303      33.74863308       9.03176919                           
I       14.73807643      29.77819249       7.48054615                           
I       11.54265093      31.90376649       7.48054615                           
I        8.10418274      33.60829915       7.48054615                           
I       12.76985176      29.77819426      10.58299027                           
I       12.52676480      33.60829816      10.58299027                           
I        9.08829354      31.90376570      10.58299027                           
Cr      27.50792808      19.85213711       9.03176873                           
Cr      24.06943707      21.83735082       9.03176919                           
I       28.49204047      17.86691022       7.48054615                           
I       25.29661498      19.99248422       7.48054615                           
I       21.85814678      21.69701689       7.48054615                           
I       26.52381580      17.86691200      10.58299027                           
I       26.28072885      21.69701590      10.58299027                           
I       22.84225758      19.99248344      10.58299027                           
Cr      24.06943707      25.80777825       9.03176873                           
Cr      20.63094606      27.79299195       9.03176919                           
I       25.05354946      23.82255135       7.48054615                           
I       21.85812397      25.94812535       7.48054615                           
I       18.41965577      27.65265802       7.48054615                           
I       23.08532479      23.82255313      10.58299027                           
I       22.84223784      27.65265703      10.58299027                           
I       19.40376657      25.94812457      10.58299027                           
Cr      20.63094606      31.76341938       9.03176873                           
Cr      17.19245505      33.74863308       9.03176919                           
I       21.61505845      29.77819249       7.48054615                           
I       18.41963295      31.90376649       7.48054615                           
I       14.98116476      33.60829915       7.48054615                           
I       19.64683378      29.77819426      10.58299027                           
I       19.40374683      33.60829816      10.58299027                           
I       15.96527556      31.90376570      10.58299027                           
%ENDBLOCK POSITIONS_ABS                                                         
%BLOCK SPECIES                                                                  
Cr Cr 24 -1 15                                                                  
I   I  53 -1 15                                                                 
CrU Cr 24 -1 15                                                                 
%ENDBLOCK SPECIES                                                               
%BLOCK SPECIES_ATOMIC_SET                                                       
Cr  "SOLVE INIT SPIN=3"                                                         
I   "SOLVE"                                                                     
CrU "SOLVE INIT SPIN=3"                                                         
%ENDBLOCK SPECIES_ATOMIC_SET                                                    
%BLOCK HUBBARD                                                                  
CrU 2 0.0 0.0 -10.0 0.05 0.1                                                    
%ENDBLOCK HUBBARD                                                               
%BLOCK SPECIES_LDOS_GROUPS                                                      
Cr                                                                              
I                                                                               
CrU                                                                             
%ENDBLOCK SPECIES_LDOS_GROUPS                                                   
%BLOCK SPECIES_POT                                                              
Cr  "/work/e89/e89/phsmea/U_det/Cr.PBE-paw.abinit"                              
I   "/work/e89/e89/phsmea/U_det/I.PBE-paw.abinit"                               
CrU "/work/e89/e89/phsmea/U_det/Cr.PBE-paw.abinit"                              
%ENDBLOCK SPECIES_POT                                                           

--------------------------------------------------------------------------------
-------------------------------- END INPUT FILE --------------------------------
--------------------------------------------------------------------------------


 
 ESDF WARNING(1): "charge" (esdf_physical) has no units. Assume "e".
<<<<<<<<<<<<<<<<<<<<<<<<<<<<<<<<< Full system >>>>>>>>>>>>>>>>>>>>>>>>>>>>>>>>>>
<<<<<<<<<<<<<<<<<<<<<<<<<<< PAW Dataset information >>>>>>>>>>>>>>>>>>>>>>>>>>>
File: /work/e89/e89/phsmea/U_det/Cr.PBE-paw.abinit; rc = 2.11 bohr; shape type =  2; rshape = 1.80 bohr;
  Atomic number: 24;  ionic charge: 14.000000
    Partial Wave 1: l = 0
    Partial Wave 2: l = 0
    Partial Wave 3: l = 1
    Partial Wave 4: l = 1
    Partial Wave 5: l = 2
    Partial Wave 6: l = 2
  Core charge supplied for Nonlinear Core Corrections
File: /work/e89/e89/phsmea/U_det/I.PBE-paw.abinit; rc = 2.30 bohr; shape type =  2; rshape = 2.11 bohr;
  Atomic number: 53;  ionic charge:  7.000000
    Partial Wave 1: l = 0
    Partial Wave 2: l = 0
    Partial Wave 3: l = 1
    Partial Wave 4: l = 1
  Core charge supplied for Nonlinear Core Corrections
<<<<<<<<<<<<<<<<<<<<<<<<<<<<<<<<<<<<<<< >>>>>>>>>>>>>>>>>>>>>>>>>>>>>>>>>>>>>>>

-------------------------- Atom counting information ---------------------------
Symbol    Natoms    Nngwfs    Nprojs
  Cr        72       936      1296
  I        216       864      1728
.......   ......    ......    ......
Totals:    288      1800      3024
--------------------------------------------------------------------------------

=============================== PSINC grid sizes ===============================
                      Simulation cell:  175 x 175 x  75
                              FFT-box:  175 x 175 x  75
                                  PPD:    5 x   5 x   1
================================================================================

Atom SCF Calculation for Cr : Z (AE atom) =  24 : Z (PS atom) =  14
Config String: 3s2.0 3p6.0 3d5.0 4s1.0 4p0.0 INIT SPIN=3
Orbitals (num,occ):  5     2.00 6.00 5.00 1.00 0.00
Orbitals   (num,l):  5        0    1    2    0    1
Atom SCF converged after  64 iterations to a total energy of    -87.07044631
Adjusting orbital occupancies:
Orbitals (num,spin,occ):  5  1     1.00 3.00 3.50 1.00 0.00
Orbitals   (num,spin,l):  5  1        0    1    2    0    1
Orbitals (num,spin,occ):  5  2     1.00 3.00 1.00 0.50 0.00
Orbitals   (num,spin,l):  5  2        0    1    2    0    1

Atom SCF Calculation for I  : Z (AE atom) =  53 : Z (PS atom) =   7
Config String: 5s2.0 5p5.0
Orbitals (num,occ):  2     2.00 5.00
Orbitals   (num,l):  2        0    1
Atom SCF converged after  28 iterations to a total energy of    -11.61352964

Atom SCF Calculation for Cr : Z (AE atom) =  24 : Z (PS atom) =  14
Config String: 3s2.0 3p6.0 3d5.0 4s1.0 4p0.0 INIT SPIN=3
Orbitals (num,occ):  5     2.00 6.00 5.00 1.00 0.00
Orbitals   (num,l):  5        0    1    2    0    1
Atom SCF converged after  64 iterations to a total energy of    -87.07044631
Adjusting orbital occupancies:
Orbitals (num,spin,occ):  5  1     1.00 3.00 3.50 1.00 0.00
Orbitals   (num,spin,l):  5  1        0    1    2    0    1
Orbitals (num,spin,occ):  5  2     1.00 3.00 1.00 0.50 0.00
Orbitals   (num,spin,l):  5  2        0    1    2    0    1

Atom SCF Calculation for Cr : Z (AE atom) =  24 : Z (PS atom) =  14
Config String: 3s2.0 3p6.0 3d5.0 4s1.0 4p0.0 INIT SPIN=3
Orbitals (num,occ):  5     2.00 6.00 5.00 1.00 0.00
Orbitals   (num,l):  5        0    1    2    0    1
Atom SCF converged after  64 iterations to a total energy of    -87.07044631

Atom SCF Calculation for I  : Z (AE atom) =  53 : Z (PS atom) =   7
Config String: 5s2.0 5p5.0
Orbitals (num,occ):  2     2.00 5.00
Orbitals   (num,l):  2        0    1
Atom SCF converged after  28 iterations to a total energy of    -11.61352964

Atom SCF Calculation for Cr : Z (AE atom) =  24 : Z (PS atom) =  14
Config String: 3s2.0 3p6.0 3d5.0 4s1.0 4p0.0 INIT SPIN=3
Orbitals (num,occ):  5     2.00 6.00 5.00 1.00 0.00
Orbitals   (num,l):  5        0    1    2    0    1
Atom SCF converged after  64 iterations to a total energy of    -87.07044631
Calculating Ewald energy ...             6126.916246 Hartree

============================= Charge Augmentation ==============================
                           Aug box size:   49 x  49 x  45
================================================================================

================================= Core Density =================================
               Core den box size:  125 x 125 x 117
================================================================================
Density kernel initialisation

################################################################################
###################### NGWF self-consistent optimisation #######################
################################################################################
|ITER|    RMS GRADIENT   |     TOTAL ENERGY    |   step   |     Epredicted      
   0     0.00009869846279  -8812.31716803890231   2.349112  -8816.22650716705175        
   1     0.00006752719620  -8816.44640736913607   1.629012  -8817.78537636047804        
   2     0.00004161130583  -8817.82131107308851   1.808603  -8818.37049835645121        
   3     0.00002884189164  -8818.39471201376728   1.957633  -8818.68518513500931        
   4     0.00002027245650  -8818.68644538794251   1.137917  -8818.76633716083597        
   5     0.00001353565524  -8818.76648715613737   1.990927  -8818.82857977707681        
   6     0.00001150257911  -8818.82748697691568   1.751927  -8818.86623415741269        
   7     0.00000898529284  -8818.86479469019105   1.585775  -8818.88583331010341        
   8     0.00000729174680  -8818.88483296594677   0.929040  -8818.89327168514865        
   9     0.00000475904825  -8818.89326764028920   2.169131  -8818.90164023083526        
  10     0.00000434448838  -8818.90145018608382   1.682705  -8818.90682348266637        
  11     0.00000322225603  -8818.90637662438166   2.399727  -8818.91038708708220        
  12     0.00000419825766  -8818.90914759903899   0.913976  -8818.91189961997952        
  13     0.00000220081898  -8818.91187944471494   2.346703  -8818.91380274466974        
  14     0.00000233943152  -8818.91356210501544   2.063806  -8818.91523575130486        
  15     0.00000224626095  -8818.91452113248852   1.621367  -8818.91539640648625        
  16     0.00000232057135  -8818.91469382796276   1.149854  -8818.91575164683854        
  17     0.00000180467073  -8818.91574127554304   1.852799  -8818.91676586725771        
  18     0.00000145704684  -8818.91667162433441   1.612066  -8818.91723793343772        
  19     0.00000098902188  -8818.91708171860409   3.055899  -8818.91751172604745        
  20     0.00000181159882  -8818.91709278773487   0.726476  -8818.91750009705720        
  21     0.00000059938665  -8818.91748817420557   1.973880  -8818.91760522450386        
  22     0.00000068106104  -8818.91756839375375   3.151105  -8818.91774503895977        
  23     0.00000117357461  -8818.91725899720223   1.008812  -8818.91749635877932        
  24     0.00000077602790  -8818.91747991042212   2.124614  -8818.91768719201536        
  25     0.00000069595658  -8818.91765157884947   1.764474  -8818.91779471492373        
  26     0.00000067013909  -8818.91768985790259   2.866288  -8818.91785736451129        
  27     0.00000115070976  -8818.91742864969456   0.983783  -8818.91765119057345        
  28     0.00000064516860  -8818.91764053009865   1.495341  -8818.91773838688823        
  29     0.00000044934464  -8818.91772243512969   2.040334  -8818.91778460577007        
  30     0.00000055252672  -8818.91772579306053   0.150000      0.00000000000000        

================================================================================
           ---------------- ENERGY COMPONENTS (Eh) ----------------
           | Kinetic                    :     1819.32659866546601 |
           | Core Hartree               :   -28372.33617175275500 |
           | CoreHart (non-coul chg cor):        0.00000000000000
           | Hartree                    :    13503.79919520825020 |
           | Exchange-correlation       :    -1248.29393383521347 |
           | Hubbard DFT+U correction   :        0.00505408692180 |
           | Ewald                      :     6126.91624599049464 |
           | Dij0                       :     -555.72082612954875 |
           | Dijhartree                 :      248.95357309369851 |
           | Exc [AE core]              :   -42415.10551487139310 |
           | Exc DC [AE core]           :    -1638.57746145947840 |
           | Exc [PS core]              :    -1032.29811066588218 |
           | Exc DC [PS core]           :     -982.37081516162539 |
           | Exc [Core]                 :   -41041.23993575423080 |
           | Total [Sphere]             :     -648.33472148712463 |
           | Total                      :    -8818.91773312396072 |
           --------------------------------------------------------
           Integrated compensation chrg.:      189.12738071496210
           Integrated density           :     2519.99993595535580
           Integrated spin density      :      215.99995947183305
           Integrated |spin density|    :      164.28392034088714
================================================================================

  31     0.00000050495944  -8818.91773312395526  <-- CG                                 

################################################################################
DFT+U information on atom      1 of Hubbard species CrU 
################################################################################
Occupancy matrix of Hubbard site      1 and spin      1 is 
  m_l =   -2          -1           0           1           2
  0.89176827  0.14722429  0.00000111  0.00000088  0.00000325
  0.14726093  0.77645348 -0.00000196  0.00000324 -0.00000261
 -0.00000026  0.00000008  0.99129856  0.00000036  0.00000030
  0.00000206  0.00000319 -0.00000076  0.77645028 -0.14725835
  0.00000319 -0.00000138 -0.00000046 -0.14722308  0.89177158
################################################################################
Occupancy matrix of Hubbard site      1 and spin      2 is 
  m_l =   -2          -1           0           1           2
  0.25351814 -0.13154185 -0.00000223  0.00000199  0.00000201
 -0.13157357  0.35724957  0.00000181  0.00000174 -0.00000066
 -0.00000085 -0.00000001  0.15375063 -0.00000005  0.00000052
  0.00000095  0.00000179  0.00000095  0.35724757  0.13157473
  0.00000206 -0.00000175  0.00000129  0.13154422  0.25352113
################################################################################
Total occupancy of Hubbard site      1 is         5.70302920 e
Local magnetic moment of Hubbard site      1 is   2.95245514 mu_B
DFT+U energy of Hubbard site      1 is            0.00505409 Ha
################################################################################

##### For calculating the Hubbard U and Hund J #################################
DFT+U information on Hubbard site      1 of species CrU  and spin      1
The average Hxc+local potential is            -19.04332037 eV.
The average Hubbard potential is                0.00000000 eV.
The average non-local PAW contribution is     -10.97813857 eV.
################################################################################
DFT+U information on Hubbard site      1 of species CrU  and spin      2
The average Hxc+local potential is            -17.95616689 eV.
The average Hubbard potential is                0.10000000 eV.
The average non-local PAW contribution is      -9.50910708 eV.
################################################################################

======================== Writing density and potential =========================
Writing "U_0.5_0.1_ps_density.cube" ... done
Writing "U_0.5_0.1_ps_spindensity.cube" ... done
Writing "U_0.5_0.1_ae_density.cube" ... done
Writing "U_0.5_0.1_ae_spindensity.cube" ... done
Writing "U_0.5_0.1_potential.cube" ... done
Writing "U_0.5_0.1_electrostatic_potential.cube" ... done
================================================================================

    Mulliken Atomic Populations
    ---------------------------
Species  Ion    Total   Charge (e)    Spin (hbar)
=================================================
  Cr     1      13.825      0.175      1.68
  Cr     2      13.826      0.174      1.68
  I      3       7.058     -0.058     -0.06
  I      4       7.058     -0.058     -0.06
  I      5       7.058     -0.058     -0.06
  I      6       7.058     -0.058     -0.06
  I      7       7.058     -0.058     -0.06
  I      8       7.058     -0.058     -0.06
  Cr     9      13.825      0.175      1.68
  Cr    10      13.826      0.174      1.68
  I     11       7.058     -0.058     -0.06
  I     12       7.058     -0.058     -0.06
  I     13       7.058     -0.058     -0.06
  I     14       7.058     -0.058     -0.06
  I     15       7.058     -0.058     -0.06
  I     16       7.058     -0.058     -0.06
  Cr    17      13.825      0.175      1.68
  Cr    18      13.826      0.174      1.68
  I     19       7.058     -0.058     -0.06
  I     20       7.058     -0.058     -0.06
  I     21       7.058     -0.058     -0.06
  I     22       7.058     -0.058     -0.06
  I     23       7.058     -0.058     -0.06
  I     24       7.058     -0.058     -0.06
  Cr    25      13.825      0.175      1.68
  Cr    26      13.826      0.174      1.68
  I     27       7.058     -0.058     -0.06
  I     28       7.058     -0.058     -0.06
  I     29       7.058     -0.058     -0.06
  I     30       7.058     -0.058     -0.06
  I     31       7.058     -0.058     -0.06
  I     32       7.058     -0.058     -0.06
  Cr    33      13.825      0.175      1.68
  Cr    34      13.825      0.175      1.68
  I     35       7.058     -0.058     -0.06
  I     36       7.058     -0.058     -0.06
  I     37       7.058     -0.058     -0.06
  I     38       7.058     -0.058     -0.06
  I     39       7.058     -0.058     -0.06
  I     40       7.058     -0.058     -0.06
  Cr    41      13.825      0.175      1.68
  Cr    42      13.825      0.175      1.68
  I     43       7.058     -0.058     -0.06
  I     44       7.058     -0.058     -0.06
  I     45       7.058     -0.058     -0.06
  I     46       7.058     -0.058     -0.06
  I     47       7.058     -0.058     -0.06
  I     48       7.058     -0.058     -0.06
  Cr    49      13.825      0.175      1.68
  Cr    50      13.826      0.174      1.68
  I     51       7.058     -0.058     -0.06
  I     52       7.058     -0.058     -0.06
  I     53       7.058     -0.058     -0.06
  I     54       7.058     -0.058     -0.06
  I     55       7.058     -0.058     -0.06
  I     56       7.058     -0.058     -0.06
  Cr    57      13.825      0.175      1.68
  Cr    58      13.825      0.175      1.68
  I     59       7.058     -0.058     -0.06
  I     60       7.058     -0.058     -0.06
  I     61       7.058     -0.058     -0.06
  I     62       7.058     -0.058     -0.06
  I     63       7.058     -0.058     -0.06
  I     64       7.058     -0.058     -0.06
  Cr    65      13.824      0.176      1.68
  Cr    66      13.822      0.178      1.68
  I     67       7.058     -0.058     -0.06
  I     68       7.059     -0.059     -0.06
  I     69       7.059     -0.059     -0.06
  I     70       7.058     -0.058     -0.06
  I     71       7.059     -0.059     -0.06
  I     72       7.059     -0.059     -0.06
  Cr    73      13.825      0.175      1.68
  Cr    74      13.825      0.175      1.68
  I     75       7.058     -0.058     -0.06
  I     76       7.058     -0.058     -0.06
  I     77       7.058     -0.058     -0.06
  I     78       7.058     -0.058     -0.06
  I     79       7.058     -0.058     -0.06
  I     80       7.058     -0.058     -0.06
  Cr    81      13.825      0.175      1.68
  Cr    82      13.825      0.175      1.68
  I     83       7.058     -0.058     -0.06
  I     84       7.058     -0.058     -0.06
  I     85       7.058     -0.058     -0.06
  I     86       7.058     -0.058     -0.06
  I     87       7.058     -0.058     -0.06
  I     88       7.058     -0.058     -0.06
  Cr    89      13.825      0.175      1.68
  Cr    90      13.826      0.174      1.68
  I     91       7.058     -0.058     -0.06
  I     92       7.058     -0.058     -0.06
  I     93       7.058     -0.058     -0.06
  I     94       7.058     -0.058     -0.06
  I     95       7.058     -0.058     -0.06
  I     96       7.058     -0.058     -0.06
  Cr    97      13.824      0.176      1.68
  Cr    98      13.825      0.175      1.68
  I     99       7.058     -0.058     -0.06
  I    100       7.058     -0.058     -0.06
  I    101       7.058     -0.058     -0.06
  I    102       7.058     -0.058     -0.06
  I    103       7.058     -0.058     -0.06
  I    104       7.058     -0.058     -0.06
  Cr   105      13.825      0.175      1.68
  Cr   106      13.825      0.175      1.68
  I    107       7.058     -0.058     -0.06
  I    108       7.058     -0.058     -0.06
  I    109       7.058     -0.058     -0.06
  I    110       7.058     -0.058     -0.06
  I    111       7.058     -0.058     -0.06
  I    112       7.058     -0.058     -0.06
  Cr   113      13.825      0.175      1.68
  Cr   114      13.825      0.175      1.68
  I    115       7.058     -0.058     -0.06
  I    116       7.058     -0.058     -0.06
  I    117       7.058     -0.058     -0.06
  I    118       7.058     -0.058     -0.06
  I    119       7.058     -0.058     -0.06
  I    120       7.058     -0.058     -0.06
  Cr   121      13.819      0.181      1.70
  Cr   122      13.822      0.178      1.68
  I    123       7.060     -0.060     -0.06
  I    124       7.060     -0.060     -0.06
  I    125       7.059     -0.059     -0.06
  I    126       7.060     -0.060     -0.06
  I    127       7.060     -0.060     -0.06
  I    128       7.059     -0.059     -0.06
  Cr   129      13.824      0.176      1.68
  Cr   130      13.825      0.175      1.68
  I    131       7.059     -0.059     -0.06
  I    132       7.058     -0.058     -0.06
  I    133       7.058     -0.058     -0.06
  I    134       7.059     -0.059     -0.06
  I    135       7.058     -0.058     -0.06
  I    136       7.058     -0.058     -0.06
  Cr   137      13.825      0.175      1.68
  Cr   138      13.825      0.175      1.68
  I    139       7.058     -0.058     -0.06
  I    140       7.058     -0.058     -0.06
  I    141       7.058     -0.058     -0.06
  I    142       7.058     -0.058     -0.06
  I    143       7.058     -0.058     -0.06
  I    144       7.058     -0.058     -0.06
  Cr   145      13.825      0.175      1.68
  Cr   146      13.825      0.175      1.68
  I    147       7.058     -0.058     -0.06
  I    148       7.058     -0.058     -0.06
  I    149       7.058     -0.058     -0.06
  I    150       7.058     -0.058     -0.06
  I    151       7.058     -0.058     -0.06
  I    152       7.058     -0.058     -0.06
  Cr   153      13.825      0.175      1.68
  Cr   154      13.825      0.175      1.68
  I    155       7.058     -0.058     -0.06
  I    156       7.058     -0.058     -0.06
  I    157       7.058     -0.058     -0.06
  I    158       7.058     -0.058     -0.06
  I    159       7.058     -0.058     -0.06
  I    160       7.058     -0.058     -0.06
  Cr   161      13.825      0.175      1.68
  Cr   162      13.825      0.175      1.68
  I    163       7.058     -0.058     -0.06
  I    164       7.058     -0.058     -0.06
  I    165       7.058     -0.058     -0.06
  I    166       7.058     -0.058     -0.06
  I    167       7.058     -0.058     -0.06
  I    168       7.058     -0.058     -0.06
  Cr   169      13.825      0.175      1.68
  Cr   170      13.826      0.174      1.68
  I    171       7.058     -0.058     -0.06
  I    172       7.058     -0.058     -0.06
  I    173       7.058     -0.058     -0.06
  I    174       7.058     -0.058     -0.06
  I    175       7.058     -0.058     -0.06
  I    176       7.058     -0.058     -0.06
  Cr   177      13.825      0.175      1.68
  Cr   178      13.825      0.175      1.68
  I    179       7.058     -0.058     -0.06
  I    180       7.058     -0.058     -0.06
  I    181       7.058     -0.058     -0.06
  I    182       7.058     -0.058     -0.06
  I    183       7.058     -0.058     -0.06
  I    184       7.058     -0.058     -0.06
  Cr   185      13.825      0.175      1.68
  Cr   186      13.825      0.175      1.68
  I    187       7.058     -0.058     -0.06
  I    188       7.058     -0.058     -0.06
  I    189       7.058     -0.058     -0.06
  I    190       7.058     -0.058     -0.06
  I    191       7.058     -0.058     -0.06
  I    192       7.058     -0.058     -0.06
  Cr   193      13.825      0.175      1.68
  Cr   194      13.826      0.174      1.68
  I    195       7.058     -0.058     -0.06
  I    196       7.058     -0.058     -0.06
  I    197       7.058     -0.058     -0.06
  I    198       7.058     -0.058     -0.06
  I    199       7.058     -0.058     -0.06
  I    200       7.058     -0.058     -0.06
  Cr   201      13.825      0.175      1.68
  Cr   202      13.826      0.174      1.68
  I    203       7.058     -0.058     -0.06
  I    204       7.058     -0.058     -0.06
  I    205       7.058     -0.058     -0.06
  I    206       7.058     -0.058     -0.06
  I    207       7.058     -0.058     -0.06
  I    208       7.058     -0.058     -0.06
  Cr   209      13.825      0.175      1.68
  Cr   210      13.825      0.175      1.68
  I    211       7.058     -0.058     -0.06
  I    212       7.058     -0.058     -0.06
  I    213       7.058     -0.058     -0.06
  I    214       7.058     -0.058     -0.06
  I    215       7.058     -0.058     -0.06
  I    216       7.058     -0.058     -0.06
  Cr   217      13.824      0.176      1.68
  Cr   218      13.822      0.178      1.68
  I    219       7.058     -0.058     -0.06
  I    220       7.059     -0.059     -0.06
  I    221       7.060     -0.060     -0.06
  I    222       7.058     -0.058     -0.06
  I    223       7.059     -0.059     -0.06
  I    224       7.060     -0.060     -0.06
  Cr   225      13.824      0.176      1.68
  Cr   226      13.825      0.175      1.68
  I    227       7.059     -0.059     -0.06
  I    228       7.058     -0.058     -0.06
  I    229       7.058     -0.058     -0.06
  I    230       7.059     -0.059     -0.06
  I    231       7.058     -0.058     -0.06
  I    232       7.058     -0.058     -0.06
  Cr   233      13.825      0.175      1.68
  Cr   234      13.826      0.174      1.68
  I    235       7.058     -0.058     -0.06
  I    236       7.058     -0.058     -0.06
  I    237       7.058     -0.058     -0.06
  I    238       7.058     -0.058     -0.06
  I    239       7.058     -0.058     -0.06
  I    240       7.058     -0.058     -0.06
  Cr   241      13.825      0.175      1.68
  Cr   242      13.826      0.174      1.68
  I    243       7.058     -0.058     -0.06
  I    244       7.058     -0.058     -0.06
  I    245       7.058     -0.058     -0.06
  I    246       7.058     -0.058     -0.06
  I    247       7.058     -0.058     -0.06
  I    248       7.058     -0.058     -0.06
  Cr   249      13.825      0.175      1.68
  Cr   250      13.825      0.175      1.68
  I    251       7.058     -0.058     -0.06
  I    252       7.058     -0.058     -0.06
  I    253       7.058     -0.058     -0.06
  I    254       7.058     -0.058     -0.06
  I    255       7.058     -0.058     -0.06
  I    256       7.058     -0.058     -0.06
  Cr   257      13.825      0.175      1.68
  Cr   258      13.826      0.174      1.68
  I    259       7.058     -0.058     -0.06
  I    260       7.058     -0.058     -0.06
  I    261       7.058     -0.058     -0.06
  I    262       7.058     -0.058     -0.06
  I    263       7.058     -0.058     -0.06
  I    264       7.058     -0.058     -0.06
  Cr   265      13.825      0.175      1.68
  Cr   266      13.826      0.174      1.68
  I    267       7.058     -0.058     -0.06
  I    268       7.058     -0.058     -0.06
  I    269       7.058     -0.058     -0.06
  I    270       7.058     -0.058     -0.06
  I    271       7.058     -0.058     -0.06
  I    272       7.058     -0.058     -0.06
  Cr   273      13.825      0.175      1.68
  Cr   274      13.826      0.174      1.68
  I    275       7.058     -0.058     -0.06
  I    276       7.058     -0.058     -0.06
  I    277       7.058     -0.058     -0.06
  I    278       7.058     -0.058     -0.06
  I    279       7.058     -0.058     -0.06
  I    280       7.058     -0.058     -0.06
  Cr   281      13.825      0.175      1.68
  Cr   282      13.826      0.174      1.68
  I    283       7.058     -0.058     -0.06
  I    284       7.058     -0.058     -0.06
  I    285       7.058     -0.058     -0.06
  I    286       7.058     -0.058     -0.06
  I    287       7.058     -0.058     -0.06
  I    288       7.058     -0.058     -0.06
=================================================

        Bond         Population      Spin       Length (bohr)
=============================================================
 Cr  186 -- I   191        0.31     -0.03      4.86412
 Cr  178 -- I   183        0.31     -0.03      4.86412
 Cr  154 -- I   159        0.31     -0.03      4.86412
 Cr  162 -- I   167        0.31     -0.03      4.86412
 Cr  146 -- I   151        0.31     -0.03      4.86412
 Cr   82 -- I    87        0.31     -0.03      4.86412
 Cr  250 -- I   255        0.31     -0.03      4.86412
 Cr  226 -- I   231        0.31     -0.03      4.86412
 Cr   74 -- I    79        0.31     -0.03      4.86412
 Cr   10 -- I    15        0.31     -0.03      4.86412
 Cr  106 -- I   111        0.31     -0.03      4.86412
 Cr   34 -- I    39        0.31     -0.03      4.86412
 Cr   42 -- I    47        0.31     -0.03      4.86412
 Cr   18 -- I    23        0.31     -0.03      4.86412
 Cr  114 -- I   119        0.31     -0.03      4.86412
 Cr    2 -- I     7        0.31     -0.03      4.86412
 Cr   90 -- I    95        0.31     -0.03      4.86412
 Cr  218 -- I   223        0.31     -0.03      4.86412
 Cr  258 -- I   263        0.31     -0.03      4.86412
 Cr  234 -- I   239        0.31     -0.03      4.86412
 Cr  274 -- I   279        0.31     -0.03      4.86412
 Cr  130 -- I   135        0.31     -0.03      4.86412
 Cr   98 -- I   103        0.31     -0.03      4.86412
 Cr   66 -- I    71        0.31     -0.03      4.86412
 Cr  242 -- I   247        0.31     -0.03      4.86412
 Cr   50 -- I    55        0.31     -0.03      4.86412
 Cr   26 -- I    31        0.31     -0.03      4.86412
 Cr   58 -- I    63        0.31     -0.03      4.86412
 Cr  210 -- I   215        0.31     -0.03      4.86412
 Cr  170 -- I   175        0.31     -0.03      4.86412
 Cr  122 -- I   127        0.31     -0.03      4.86412
 Cr  266 -- I   271        0.31     -0.03      4.86412
 Cr  282 -- I   287        0.31     -0.03      4.86412
 Cr  138 -- I   143        0.31     -0.03      4.86412
 Cr  202 -- I   207        0.31     -0.03      4.86412
 Cr  194 -- I   199        0.31     -0.03      4.86412
 Cr  210 -- I   212        0.31     -0.03      4.86413
 Cr  138 -- I   140        0.31     -0.03      4.86413
 Cr   90 -- I    92        0.31     -0.03      4.86413
 Cr  258 -- I   260        0.31     -0.03      4.86413
 Cr  234 -- I   236        0.31     -0.03      4.86413
 Cr   42 -- I    44        0.31     -0.03      4.86413
 Cr   66 -- I    68        0.31     -0.03      4.86413
 Cr  114 -- I   116        0.31     -0.03      4.86413
 Cr   18 -- I    20        0.31     -0.03      4.86413
 Cr  162 -- I   164        0.31     -0.03      4.86413
 Cr  282 -- I   284        0.31     -0.03      4.86413
 Cr  186 -- I   188        0.31     -0.03      4.86413
 Cr  194 -- I   196        0.31     -0.03      4.86413
 Cr  202 -- I   204        0.31     -0.03      4.86413
 Cr   50 -- I    52        0.31     -0.03      4.86413
 Cr   58 -- I    60        0.31     -0.03      4.86413
 Cr  122 -- I   124        0.31     -0.03      4.86413
 Cr  266 -- I   268        0.31     -0.03      4.86413
 Cr  274 -- I   276        0.31     -0.03      4.86413
 Cr  130 -- I   132        0.31     -0.03      4.86413
 Cr  154 -- I   156        0.31     -0.03      4.86413
 Cr  170 -- I   172        0.31     -0.03      4.86413
 Cr   34 -- I    36        0.31     -0.03      4.86413
 Cr   10 -- I    12        0.31     -0.03      4.86413
 Cr  146 -- I   148        0.31     -0.03      4.86413
 Cr    2 -- I     4        0.31     -0.03      4.86413
 Cr   26 -- I    28        0.31     -0.03      4.86413
 Cr  242 -- I   244        0.31     -0.03      4.86413
 Cr  218 -- I   220        0.31     -0.03      4.86413
 Cr  178 -- I   180        0.31     -0.03      4.86413
 Cr   74 -- I    76        0.31     -0.03      4.86413
 Cr   98 -- I   100        0.31     -0.03      4.86413
 Cr  250 -- I   252        0.31     -0.03      4.86413
 Cr  226 -- I   228        0.31     -0.03      4.86413
 Cr  106 -- I   108        0.31     -0.03      4.86413
 Cr   82 -- I    84        0.31     -0.03      4.86413
 Cr  153 -- I   159        0.31     -0.03      4.86414
 Cr  177 -- I   183        0.31     -0.03      4.86414
 Cr   41 -- I    47        0.31     -0.03      4.86414
 Cr  161 -- I   167        0.31     -0.03      4.86414
 Cr    9 -- I    15        0.31     -0.03      4.86414
 Cr  185 -- I   191        0.31     -0.03      4.86414
 Cr   33 -- I    39        0.31     -0.03      4.86414
 Cr   17 -- I    23        0.31     -0.03      4.86414
 Cr  113 -- I   119        0.31     -0.03      4.86414
 Cr   89 -- I    95        0.31     -0.03      4.86414
 Cr  233 -- I   239        0.31     -0.03      4.86414
 Cr  257 -- I   263        0.31     -0.03      4.86414
 Cr  249 -- I   255        0.31     -0.03      4.86414
 Cr  225 -- I   231        0.31     -0.03      4.86414
 Cr   81 -- I    87        0.31     -0.03      4.86414
 Cr  105 -- I   111        0.31     -0.03      4.86414
 Cr  209 -- I   215        0.31     -0.03      4.86414
 Cr   65 -- I    71        0.31     -0.03      4.86414
 Cr   57 -- I    63        0.31     -0.03      4.86414
 Cr  137 -- I   143        0.31     -0.03      4.86414
 Cr  201 -- I   207        0.31     -0.03      4.86414
 Cr  281 -- I   287        0.31     -0.03      4.86414
 Cr  129 -- I   135        0.31     -0.03      4.86414
 Cr  273 -- I   279        0.31     -0.03      4.86414
 Cr   73 -- I    79        0.31     -0.03      4.86414
 Cr  217 -- I   223        0.31     -0.03      4.86414
 Cr  145 -- I   151        0.31     -0.03      4.86414
 Cr    1 -- I     7        0.31     -0.03      4.86414
 Cr  121 -- I   127        0.31     -0.03      4.86414
 Cr  241 -- I   247        0.31     -0.03      4.86414
 Cr   97 -- I   103        0.31     -0.03      4.86414
 Cr  265 -- I   271        0.31     -0.03      4.86414
 Cr   49 -- I    55        0.31     -0.03      4.86414
 Cr   25 -- I    31        0.31     -0.03      4.86414
 Cr  169 -- I   175        0.31     -0.03      4.86414
 Cr  193 -- I   199        0.31     -0.03      4.86414
 Cr  193 -- I   196        0.31     -0.03      4.86414
 Cr   49 -- I    52        0.31     -0.03      4.86414
 Cr  265 -- I   268        0.31     -0.03      4.86414
 Cr  121 -- I   124        0.31     -0.03      4.86414
 Cr  257 -- I   260        0.31     -0.03      4.86414
 Cr  169 -- I   172        0.31     -0.03      4.86414
 Cr  145 -- I   148        0.31     -0.03      4.86414
 Cr   65 -- I    68        0.31     -0.03      4.86414
 Cr  137 -- I   140        0.31     -0.03      4.86414
 Cr  185 -- I   188        0.31     -0.03      4.86414
 Cr  281 -- I   284        0.31     -0.03      4.86414
 Cr  209 -- I   212        0.31     -0.03      4.86414
 Cr  161 -- I   164        0.31     -0.03      4.86414
 Cr    1 -- I     4        0.31     -0.03      4.86414
 Cr   41 -- I    44        0.31     -0.03      4.86414
 Cr  113 -- I   116        0.31     -0.03      4.86414
 Cr  241 -- I   244        0.31     -0.03      4.86414
 Cr   25 -- I    28        0.31     -0.03      4.86414
 Cr   17 -- I    20        0.31     -0.03      4.86414
 Cr   89 -- I    92        0.31     -0.03      4.86414
 Cr  217 -- I   220        0.31     -0.03      4.86414
 Cr  233 -- I   236        0.31     -0.03      4.86414
 Cr   97 -- I   100        0.31     -0.03      4.86414
 Cr   73 -- I    76        0.31     -0.03      4.86414
 Cr  273 -- I   276        0.31     -0.03      4.86414
 Cr  201 -- I   204        0.31     -0.03      4.86414
 Cr  129 -- I   132        0.31     -0.03      4.86414
 Cr   57 -- I    60        0.31     -0.03      4.86414
 Cr   81 -- I    84        0.31     -0.03      4.86414
 Cr  105 -- I   108        0.31     -0.03      4.86414
 Cr  249 -- I   252        0.31     -0.03      4.86414
 Cr  225 -- I   228        0.31     -0.03      4.86414
 Cr  153 -- I   156        0.31     -0.03      4.86414
 Cr   33 -- I    36        0.31     -0.03      4.86414
 Cr  177 -- I   180        0.31     -0.03      4.86414
 Cr    9 -- I    12        0.31     -0.03      4.86414
 I    27 -- Cr  114        0.31     -0.03      5.11128
 I     3 -- Cr   90        0.31     -0.03      5.11128
 I    51 -- Cr  138        0.31     -0.03      5.11128
 Cr  266 -- I   275        0.31     -0.03      5.11128
 Cr  122 -- I   131        0.31     -0.03      5.11128
 Cr   74 -- I    83        0.31     -0.03      5.11128
 Cr   98 -- I   107        0.31     -0.03      5.11128
 Cr  242 -- I   251        0.31     -0.03      5.11128
 Cr  218 -- I   227        0.31     -0.03      5.11128
 Cr  146 -- I   155        0.31     -0.03      5.11128
 Cr  170 -- I   179        0.31     -0.03      5.11128
 Cr   50 -- I    59        0.31     -0.03      5.11128
 Cr    2 -- I    11        0.31     -0.03      5.11128
 Cr   26 -- I    35        0.31     -0.03      5.11128
 Cr  194 -- I   203        0.31     -0.03      5.11128
 I   171 -- Cr  258        0.31     -0.03      5.11128
 I   195 -- Cr  282        0.31     -0.03      5.11128
 I   147 -- Cr  234        0.31     -0.03      5.11128
 Cr  194 -- I   197        0.31     -0.03      5.11128
 Cr  210 -- I   213        0.31     -0.03      5.11128
 Cr  250 -- I   253        0.31     -0.03      5.11128
 Cr  242 -- I   245        0.31     -0.03      5.11128
 Cr   50 -- I    53        0.31     -0.03      5.11128
 Cr  234 -- I   237        0.31     -0.03      5.11128
 Cr  226 -- I   229        0.31     -0.03      5.11128
 Cr  218 -- I   221        0.31     -0.03      5.11128
 Cr   26 -- I    29        0.31     -0.03      5.11128
 Cr  154 -- I   157        0.31     -0.03      5.11128
 Cr  146 -- I   149        0.31     -0.03      5.11128
 Cr  106 -- I   109        0.31     -0.03      5.11128
 Cr  282 -- I   285        0.31     -0.03      5.11128
 Cr    2 -- I     5        0.31     -0.03      5.11128
 Cr  122 -- I   125        0.31     -0.03      5.11128
 Cr  130 -- I   133        0.31     -0.03      5.11128
 Cr   10 -- I    13        0.31     -0.03      5.11128
 Cr   58 -- I    61        0.31     -0.03      5.11128
 Cr   42 -- I    45        0.31     -0.03      5.11128
 Cr   82 -- I    85        0.31     -0.03      5.11128
 Cr   34 -- I    37        0.31     -0.03      5.11128
 Cr   18 -- I    21        0.31     -0.03      5.11128
 Cr  138 -- I   141        0.31     -0.03      5.11128
 Cr   98 -- I   101        0.31     -0.03      5.11128
 Cr   90 -- I    93        0.31     -0.03      5.11128
 Cr  114 -- I   117        0.31     -0.03      5.11128
 Cr   66 -- I    69        0.31     -0.03      5.11128
 Cr  202 -- I   205        0.31     -0.03      5.11128
 Cr  170 -- I   173        0.31     -0.03      5.11128
 Cr   74 -- I    77        0.31     -0.03      5.11128
 Cr  274 -- I   277        0.31     -0.03      5.11128
 Cr  162 -- I   165        0.31     -0.03      5.11128
 Cr  266 -- I   269        0.31     -0.03      5.11128
 Cr  178 -- I   181        0.31     -0.03      5.11128
 Cr  258 -- I   261        0.31     -0.03      5.11128
 Cr  186 -- I   189        0.31     -0.03      5.11128
 Cr  186 -- I   243        0.31     -0.03      5.11128
 Cr  210 -- I   267        0.31     -0.03      5.11128
 Cr  162 -- I   219        0.31     -0.03      5.11128
 Cr  274 -- I   283        0.31     -0.03      5.11128
 Cr  130 -- I   139        0.31     -0.03      5.11128
 Cr   82 -- I    91        0.31     -0.03      5.11128
 Cr  106 -- I   115        0.31     -0.03      5.11128
 Cr   34 -- I    43        0.31     -0.03      5.11128
 Cr   58 -- I    67        0.31     -0.03      5.11128
 Cr  226 -- I   235        0.31     -0.03      5.11128
 Cr  202 -- I   211        0.31     -0.03      5.11128
 Cr  178 -- I   187        0.31     -0.03      5.11128
 Cr   10 -- I    19        0.31     -0.03      5.11128
 Cr  154 -- I   163        0.31     -0.03      5.11128
 Cr  250 -- I   259        0.31     -0.03      5.11128
 Cr   18 -- I    75        0.31     -0.03      5.11128
 Cr   66 -- I   123        0.31     -0.03      5.11128
 Cr   42 -- I    99        0.31     -0.03      5.11128
 Cr  234 -- I   240        0.31     -0.03      5.11128
 Cr  138 -- I   144        0.31     -0.03      5.11128
 Cr  282 -- I   288        0.31     -0.03      5.11128
 Cr  258 -- I   264        0.31     -0.03      5.11128
 Cr  114 -- I   120        0.31     -0.03      5.11128
 Cr   90 -- I    96        0.31     -0.03      5.11128
 Cr  242 -- I   248        0.31     -0.03      5.11128
 Cr  122 -- I   128        0.31     -0.03      5.11128
 Cr  218 -- I   224        0.31     -0.03      5.11128
 Cr  194 -- I   200        0.31     -0.03      5.11128
 Cr   98 -- I   104        0.31     -0.03      5.11128
 Cr   74 -- I    80        0.31     -0.03      5.11128
 Cr  210 -- I   216        0.31     -0.03      5.11128
 Cr   42 -- I    48        0.31     -0.03      5.11128
 Cr   66 -- I    72        0.31     -0.03      5.11128
 Cr   50 -- I    56        0.31     -0.03      5.11128
 Cr   18 -- I    24        0.31     -0.03      5.11128
 Cr   26 -- I    32        0.31     -0.03      5.11128
 Cr   10 -- I    16        0.31     -0.03      5.11128
 Cr  250 -- I   256        0.31     -0.03      5.11128
 Cr    2 -- I     8        0.31     -0.03      5.11128
 Cr   34 -- I    40        0.31     -0.03      5.11128
 Cr  146 -- I   152        0.31     -0.03      5.11128
 Cr  266 -- I   272        0.31     -0.03      5.11128
 Cr  154 -- I   160        0.31     -0.03      5.11128
 Cr   58 -- I    64        0.31     -0.03      5.11128
 Cr  202 -- I   208        0.31     -0.03      5.11128
 Cr  162 -- I   168        0.31     -0.03      5.11128
 Cr  170 -- I   176        0.31     -0.03      5.11128
 Cr  178 -- I   184        0.31     -0.03      5.11128
 Cr  130 -- I   136        0.31     -0.03      5.11128
 Cr  226 -- I   232        0.31     -0.03      5.11128
 Cr  106 -- I   112        0.31     -0.03      5.11128
 Cr   82 -- I    88        0.31     -0.03      5.11128
 Cr  186 -- I   192        0.31     -0.03      5.11128
 Cr  274 -- I   280        0.31     -0.03      5.11128
 Cr  130 -- I   142        0.31     -0.03      5.11128
 Cr  274 -- I   286        0.31     -0.03      5.11128
 Cr  250 -- I   262        0.31     -0.03      5.11128
 Cr  226 -- I   238        0.31     -0.03      5.11128
 Cr  106 -- I   118        0.31     -0.03      5.11128
 Cr   82 -- I    94        0.31     -0.03      5.11128
 Cr  266 -- I   278        0.31     -0.03      5.11128
 Cr  242 -- I   254        0.31     -0.03      5.11128
 Cr  218 -- I   230        0.31     -0.03      5.11128
 Cr  194 -- I   206        0.31     -0.03      5.11128
 Cr  122 -- I   134        0.31     -0.03      5.11128
 Cr   34 -- I    46        0.31     -0.03      5.11128
 Cr  154 -- I   166        0.31     -0.03      5.11128
 Cr   26 -- I    38        0.31     -0.03      5.11128
 Cr   10 -- I    22        0.31     -0.03      5.11128
 Cr   58 -- I    70        0.31     -0.03      5.11128
 Cr   50 -- I    62        0.31     -0.03      5.11128
 Cr    2 -- I    14        0.31     -0.03      5.11128
 Cr  170 -- I   182        0.31     -0.03      5.11128
 Cr   74 -- I    86        0.31     -0.03      5.11128
 Cr   98 -- I   110        0.31     -0.03      5.11128
 Cr  146 -- I   158        0.31     -0.03      5.11128
 Cr  202 -- I   214        0.31     -0.03      5.11128
 Cr  178 -- I   190        0.31     -0.03      5.11128
 I   198 -- Cr  282        0.31     -0.03      5.11128
 I   150 -- Cr  234        0.31     -0.03      5.11128
 I   174 -- Cr  258        0.31     -0.03      5.11128
 I    54 -- Cr  138        0.31     -0.03      5.11128
 I     6 -- Cr   90        0.31     -0.03      5.11128
 I    30 -- Cr  114        0.31     -0.03      5.11128
 Cr   18 -- I    78        0.31     -0.03      5.11128
 Cr   42 -- I   102        0.31     -0.03      5.11128
 Cr   66 -- I   126        0.31     -0.03      5.11128
 Cr  210 -- I   270        0.31     -0.03      5.11128
 Cr  162 -- I   222        0.31     -0.03      5.11128
 Cr  186 -- I   246        0.31     -0.03      5.11128
 Cr  265 -- I   270        0.31     -0.03      5.11131
 Cr  241 -- I   246        0.31     -0.03      5.11131
 Cr  217 -- I   222        0.31     -0.03      5.11131
 Cr   97 -- I   102        0.31     -0.03      5.11131
 Cr   73 -- I    78        0.31     -0.03      5.11131
 Cr  121 -- I   126        0.31     -0.03      5.11131
 Cr  249 -- I   280        0.31     -0.03      5.11131
 Cr  185 -- I   216        0.31     -0.03      5.11131
 Cr  161 -- I   192        0.31     -0.03      5.11131
 Cr  153 -- I   184        0.31     -0.03      5.11131
 Cr  177 -- I   208        0.31     -0.03      5.11131
 Cr   89 -- I   120        0.31     -0.03      5.11131
 Cr   33 -- I    64        0.31     -0.03      5.11131
 Cr  129 -- I   232        0.31     -0.03      5.11131
 Cr  113 -- I   144        0.31     -0.03      5.11131
 Cr  233 -- I   264        0.31     -0.03      5.11131
 Cr   41 -- I    72        0.31     -0.03      5.11131
 Cr   17 -- I    48        0.31     -0.03      5.11131
 Cr  105 -- I   136        0.31     -0.03      5.11131
 Cr   81 -- I   112        0.31     -0.03      5.11131
 Cr  137 -- I   240        0.31     -0.03      5.11131
 Cr    9 -- I    40        0.31     -0.03      5.11131
 Cr  225 -- I   256        0.31     -0.03      5.11131
 Cr  257 -- I   288        0.31     -0.03      5.11131
 Cr  145 -- I   176        0.31     -0.03      5.11131
 Cr  121 -- I   224        0.31     -0.03      5.11131
 Cr  241 -- I   272        0.31     -0.03      5.11131
 Cr   73 -- I   104        0.31     -0.03      5.11131
 Cr    1 -- I    32        0.31     -0.03      5.11131
 Cr   97 -- I   128        0.31     -0.03      5.11131
 Cr   25 -- I    56        0.31     -0.03      5.11131
 Cr  169 -- I   200        0.31     -0.03      5.11131
 Cr  217 -- I   248        0.31     -0.03      5.11131
 Cr  273 -- I   278        0.31     -0.03      5.11131
 Cr   81 -- I    86        0.31     -0.03      5.11131
 Cr  105 -- I   110        0.31     -0.03      5.11131
 Cr  281 -- I   286        0.31     -0.03      5.11131
 Cr  129 -- I   134        0.31     -0.03      5.11131
 Cr  249 -- I   254        0.31     -0.03      5.11131
 Cr  225 -- I   230        0.31     -0.03      5.11131
 Cr  137 -- I   142        0.31     -0.03      5.11131
 Cr  257 -- I   262        0.31     -0.03      5.11131
 Cr   65 -- I    70        0.31     -0.03      5.11131
 Cr   57 -- I    62        0.31     -0.03      5.11131
 Cr  113 -- I   118        0.31     -0.03      5.11131
 Cr   41 -- I    46        0.31     -0.03      5.11131
 Cr   17 -- I    22        0.31     -0.03      5.11131
 Cr  233 -- I   238        0.31     -0.03      5.11131
[...]
*    I     148     -0.00133881  -0.00232159  -0.00482828 *
*    I     149     -0.00134710   0.00236277  -0.00482514 *
*    I     150     -0.00271919  -0.00001450   0.00482359 *
*    I     151      0.00134269   0.00232147   0.00482825 *
*    I     152      0.00134644  -0.00236310   0.00482546 *
*    Cr    153      0.00001152  -0.00000006   0.00000047 *
*    Cr    154     -0.00001724  -0.00000307  -0.00000081 *
*    I     155      0.00271963   0.00002758  -0.00482130 *
*    I     156     -0.00133285  -0.00232216  -0.00482202 *
*    I     157     -0.00134489   0.00236272  -0.00482775 *
*    I     158     -0.00271732  -0.00000567   0.00481974 *
*    I     159      0.00134515   0.00231444   0.00482298 *
*    I     160      0.00134418  -0.00236072   0.00482566 *
*    Cr    161      0.00001277  -0.00000824   0.00000021 *
*    Cr    162     -0.00002617   0.00001330   0.00000089 *
*    I     163      0.00271568   0.00002604  -0.00482098 *
*    I     164     -0.00133435  -0.00232102  -0.00481822 *
*    I     165     -0.00134508   0.00235562  -0.00481593 *
*    I     166     -0.00271820  -0.00001110   0.00482157 *
*    I     167      0.00134275   0.00231735   0.00481810 *
*    I     168      0.00133932  -0.00236141   0.00481770 *
*    Cr    169     -0.00001046  -0.00000053  -0.00000176 *
*    Cr    170     -0.00002028   0.00000277  -0.00000182 *
*    I     171      0.00271625   0.00002233  -0.00481903 *
*    I     172     -0.00133491  -0.00231666  -0.00481876 *
*    I     173     -0.00134185   0.00236456  -0.00482270 *
*    I     174     -0.00270976  -0.00001262   0.00481653 *
*    I     175      0.00133908   0.00231489   0.00481910 *
*    I     176      0.00134812  -0.00235759   0.00482099 *
*    Cr    177     -0.00001879   0.00001047  -0.00000281 *
*    Cr    178      0.00000350  -0.00000193  -0.00000214 *
*    I     179      0.00271805   0.00001408  -0.00482176 *
*    I     180     -0.00133829  -0.00232101  -0.00482860 *
*    I     181     -0.00135021   0.00235599  -0.00482109 *
*    I     182     -0.00271709  -0.00001962   0.00482232 *
*    I     183      0.00134064   0.00231939   0.00482858 *
*    I     184      0.00133694  -0.00236806   0.00482155 *
*    Cr    185      0.00000569  -0.00001078   0.00000039 *
*    Cr    186     -0.00000610   0.00001521  -0.00000090 *
*    I     187      0.00271551   0.00002098  -0.00481872 *
*    I     188     -0.00133010  -0.00232166  -0.00482284 *
*    I     189     -0.00135040   0.00235689  -0.00481972 *
*    I     190     -0.00271930  -0.00001165   0.00482248 *
*    I     191      0.00134556   0.00231595   0.00482320 *
*    I     192      0.00133654  -0.00236809   0.00482253 *
*    Cr    193      0.00000544  -0.00000487   0.00000067 *
*    Cr    194     -0.00001934   0.00000872  -0.00000076 *
*    I     195      0.00271309   0.00001622  -0.00481758 *
*    I     196     -0.00133521  -0.00231825  -0.00482030 *
*    I     197     -0.00134422   0.00235481  -0.00481836 *
*    I     198     -0.00271381  -0.00001600   0.00482095 *
*    I     199      0.00133942   0.00231603   0.00481982 *
*    I     200      0.00133950  -0.00236065   0.00481833 *
*    Cr    201     -0.00000451   0.00001006  -0.00000252 *
*    Cr    202     -0.00001257   0.00001689  -0.00000166 *
*    I     203      0.00271219   0.00001686  -0.00481583 *
*    I     204     -0.00133512  -0.00231640  -0.00481879 *
*    I     205     -0.00134462   0.00235930  -0.00482015 *
*    I     206     -0.00271368  -0.00001787   0.00482002 *
*    I     207      0.00133939   0.00231525   0.00481852 *
*    I     208      0.00134578  -0.00236195   0.00482259 *
*    Cr    209     -0.00001118   0.00000940   0.00000106 *
*    Cr    210      0.00000596   0.00001326   0.00000096 *
*    I     211      0.00271468   0.00001095  -0.00481910 *
*    I     212     -0.00133948  -0.00232283  -0.00482691 *
*    I     213     -0.00135362   0.00235723  -0.00481964 *
*    I     214     -0.00271636  -0.00001825   0.00482040 *
*    I     215      0.00134161   0.00232289   0.00482801 *
*    I     216      0.00133842  -0.00236592   0.00482049 *
*    Cr    217      0.00000328  -0.00002775   0.00000001 *
*    Cr    218     -0.00006327  -0.00002770   0.00000085 *
*    I     219      0.00271290   0.00001644  -0.00481559 *
*    I     220     -0.00131973  -0.00232474  -0.00482279 *
*    I     221     -0.00104353   0.00279582  -0.00516143 *
*    I     222     -0.00271458  -0.00001438   0.00481692 *
*    I     223      0.00134673   0.00231702   0.00482159 *
*    I     224      0.00187337  -0.00231936   0.00516383 *
*    Cr    225      0.00000448  -0.00002015  -0.00000099 *
*    Cr    226     -0.00003327  -0.00001191  -0.00000198 *
*    I     227      0.00271153   0.00002234  -0.00481723 *
*    I     228     -0.00133671  -0.00231722  -0.00481708 *
*    I     229     -0.00134583   0.00235420  -0.00481597 *
*    I     230     -0.00270625   0.00000274   0.00482061 *
*    I     231      0.00133885   0.00231766   0.00481834 *
*    I     232      0.00133847  -0.00235905   0.00481637 *
*    Cr    233     -0.00000331  -0.00000237  -0.00000106 *
*    Cr    234     -0.00002976  -0.00000246  -0.00000094 *
*    I     235      0.00271700   0.00001158  -0.00482022 *
*    I     236     -0.00134039  -0.00231888  -0.00482654 *
*    I     237     -0.00134595   0.00236099  -0.00482332 *
*    I     238     -0.00271490  -0.00001808   0.00482072 *
*    I     239      0.00133952   0.00232017   0.00482593 *
*    I     240      0.00134799  -0.00235838   0.00482336 *
*    Cr    241      0.00000913  -0.00003210  -0.00000215 *
*    Cr    242     -0.00001873  -0.00000123  -0.00000178 *
*    I     243      0.00271686   0.00001614  -0.00482506 *
*    I     244     -0.00133913  -0.00231912  -0.00482302 *
*    I     245     -0.00134458   0.00235357  -0.00481430 *
*    I     246     -0.00271741  -0.00001520   0.00482675 *
*    I     247      0.00133839   0.00232108   0.00482322 *
*    I     248      0.00134075  -0.00235838   0.00481608 *
*    Cr    249      0.00000665  -0.00002097  -0.00000175 *
*    Cr    250     -0.00002114  -0.00000523  -0.00000120 *
*    I     251      0.00271066   0.00001784  -0.00481587 *
*    I     252     -0.00132961  -0.00232272  -0.00482477 *
*    I     253     -0.00135220   0.00235391  -0.00482241 *
*    I     254     -0.00270907  -0.00001027   0.00481491 *
*    I     255      0.00134915   0.00231696   0.00482679 *
*    I     256      0.00133711  -0.00235951   0.00482116 *
*    Cr    257      0.00000019  -0.00001254   0.00000010 *
*    Cr    258     -0.00002583   0.00000116  -0.00000077 *
*    I     259      0.00271688   0.00002548  -0.00482302 *
*    I     260     -0.00133564  -0.00231539  -0.00482017 *
*    I     261     -0.00134000   0.00236235  -0.00482221 *
*    I     262     -0.00271434  -0.00000515   0.00482358 *
*    I     263      0.00133905   0.00231783   0.00481956 *
*    I     264      0.00134760  -0.00235566   0.00482077 *
*    Cr    265      0.00001280  -0.00002607  -0.00000118 *
*    Cr    266      0.00000019  -0.00000333  -0.00000087 *
*    I     267      0.00271846   0.00001649  -0.00482501 *
*    I     268     -0.00133997  -0.00231749  -0.00482393 *
*    I     269     -0.00134371   0.00236204  -0.00482033 *
*    I     270     -0.00271740  -0.00001037   0.00482501 *
*    I     271      0.00133594   0.00232093   0.00482330 *
*    I     272      0.00134723  -0.00235761   0.00482083 *
*    Cr    273      0.00001396  -0.00002293  -0.00000092 *
*    Cr    274     -0.00001142  -0.00000629   0.00000029 *
*    I     275      0.00271344   0.00002005  -0.00481767 *
*    I     276     -0.00133350  -0.00231673  -0.00482014 *
*    I     277     -0.00134527   0.00235598  -0.00481637 *
*    I     278     -0.00271121  -0.00001189   0.00481626 *
*    I     279      0.00134124   0.00231634   0.00481964 *
*    I     280      0.00134060  -0.00235603   0.00481700 *
*    Cr    281      0.00001029  -0.00000938   0.00000018 *
*    Cr    282     -0.00001333   0.00000418   0.00000038 *
*    I     283      0.00271338   0.00002150  -0.00481883 *
*    I     284     -0.00133548  -0.00231762  -0.00481970 *
*    I     285     -0.00134190   0.00235848  -0.00481883 *
*    I     286     -0.00271208  -0.00001254   0.00481741 *
*    I     287      0.00133831   0.00231387   0.00482064 *
*    I     288      0.00134158  -0.00235700   0.00481731 *
*                                                        *
**********************************************************
* TOTAL:           -0.00000000   0.00000000   0.00000000 *
**********************************************************
 
 
***********************************************************
********** Summary of Forces (values in Eh/a) *************
*                                                         *
* ---------------------- Minimum ------------------------ *
* Atom:       266, |F|min =    0.00000344                 *
* Components:     Fx|min       Fy|min       Fz|min        *
*               0.00000019  -0.00000333  -0.00000087      *
*                                                         *
* ---------------------- Maximum ------------------------ *
* Atom:       126, |F|max =    0.00596518                 *
* Components:     Fx|max       Fy|max       Fz|max        *
*              -0.00294480  -0.00049890   0.00516358      *
*                                                         *
* ---------------- Root Mean Square Force --------------- *
*                  |F|rms =    0.00479642                 *
* Components:     Fx|rms       Fy|rms       Fz|rms        *
*               0.00166049   0.00165845   0.00418306      *
***********************************************************
 

------------------------------ TIMING INFORMATION ------------------------------
AVERAGE TIME:   31336.636s on     56 proc(s)                                    
TOTAL TIME:     31336.637s on     56 proc(s)                                    
==================== AVERAGE TIMINGS FROM ALL PROCS (CUMULATIVE) =====================
|| TAG                                         #calls     cpu time   %total  Gflops ||
|| hubbard_species_proj                       :     1        0.00s   0.000%  ------ ||
|| hubbard_ngwf_on_grid                       :     1        0.00s   0.000%  ------ ||
|| linalg_invert_sym_matrix                   :     4        0.01s   0.000%  ------ || (1 procs only)
|| sw_bessel_init_cpu                         :     1        0.01s   0.000%  ------ || (1 procs only)
|| hubbard_tensorial_correction               :     2        0.00s   0.000%  ------ ||
|| hubbard_ngwf_select                        :     1        0.00s   0.000%  ------ ||
|| hubbard_projector_character                :     1        0.00s   0.000%  ------ ||
|| density_fftbox_interp_mult_imbal           : 23034        0.00s   0.000%  ------ ||
|| hash_table_free                            :    65        0.01s   0.000%  ------ ||
|| ewald_calculate_forces_realspace           :     1        0.01s   0.000%  ------ ||
|| linalg_dgemv                               :    44        0.02s   0.000%  ------ ||
|| sparse_blacstospam3_real_fast_imbal        :    96        0.03s   0.000%  ------ ||
|| ewald_calculate_energy                     :     1        0.04s   0.000%  ------ ||
|| sparse_set_to_garbage                      :  1422        0.07s   0.000%  ------ ||
|| ewald_calculate_forces_recipspace          :     1        0.08s   0.000%  ------ ||
|| paw_tcore_hartree_on_grid                  :     1        0.10s   0.000%  ------ ||
|| sw_init                                    :   697        0.13s   0.000%  ------ ||
|| onetep.F90 main loop imbalance             :     1        0.14s   0.000%  ------ ||
|| paw_dij_hartree                            :   386        0.16s   0.001%  ------ ||
|| pseudo_make_structure_factor               :     1        0.16s   0.001%  ------ ||
|| sparse_spam3toblacs_real_fast_B2           :  4592        0.17s   0.001%  ------ ||
|| restart_hamiltonian_write                  :     2        0.19s   0.001%  ------ ||
|| ewald_calculate_forces                     :     1        0.23s   0.001%  ------ ||
|| sparse_spam3toblacs_real_fast_imbal        :    82        0.37s   0.001%  ------ ||
|| augmentation_density_forces                :     1        0.38s   0.001%  ------ ||
|| sparse_init                                :     1        0.40s   0.001%  ------ ||
|| paw_tcore_hartree_calc_forces              :     1        0.70s   0.002%  ------ ||
|| basis_extract_function_from_box            :  4114        0.85s   0.003%  ------ ||
|| hubbard_projector_ham                      :   167        1.19s   0.004%  ------ ||
|| onetep.F90 final imbalance                 :     1        1.28s   0.004%  ------ ||
|| hubbard_ham_matrix                         :   168        1.43s   0.005%  ------ ||
|| hubbard_projection_mtx                     :    67        1.77s   0.006%  ------ ||
|| paw_tcore_density                          :     1        1.85s   0.006%  ------ ||
|| sparse_spam3toblacs_real_fast_B1           :  4592        1.95s   0.006%  ------ ||
|| paw_dataset_init                           :     2        2.10s   0.007%  ------ ||
|| paw_nlcc_calculate_forces                  :     1        2.47s   0.008%  ------ ||
|| hubbard_energy_total                       :   351        2.77s   0.009%  ------ ||
|| paw_sphere_density_on_grid                 :     1        2.81s   0.009%  ------ ||
|| sparse_spam3toblacs_real_fast              :    82        2.86s   0.009%  ------ ||
|| nonsc_forces_ngwfs_calc                    :     1        3.21s   0.010%  ------ ||
|| sparse_blacstospam3_real_fast              :    96        5.49s   0.018%  ------ ||
|| paw_species_calc_proj_prec_mat             :     1        5.66s   0.018%  ------ ||
|| ngwfs_initialise_from_radial               :     4        5.68s   0.018%  ------ ||
|| sparse_embed_array_hotelling_invert        :    65        7.66s   0.024%  ------ ||
|| dense_eigensolve                           :    38       10.27s   0.033%  ------ ||
|| hubbard_calculate_forces                   :     1       10.59s   0.034%  ------ ||
|| edft_diag_ngwf_ham                         :    36       12.16s   0.039%  ------ ||
|| integrals_grad_spam3                       :     4       13.72s   0.044%  ------ ||
|| restart_kernel_write                       :    34       16.56s   0.053%  ------ ||
|| edft_apply_smearing_operator               :    18       18.48s   0.059%  ------ ||
|| sparse_trace                               : 11978       19.56s   0.062%  ------ ||
|| energy_and_force_init_cell                 :     1       20.62s   0.066%  ------ ||
|| kernel_purify                              :   517       22.33s   0.071%  ------ ||
|| ngwf_gradient_coeffs                       :    32       27.50s   0.088%  ------ ||
|| lnv_gradient_norm                          :   160       28.89s   0.092%  ------ ||
|| kernel_fix                                 :   160       28.95s   0.092%  ------ ||
|| fourier_filter_cell                        :   402       31.34s   0.100% 142.391 ||
|| hamiltonian_energy_components              :     1       37.33s   0.119%  ------ ||
|| basis_copy_function_to_box                 : 40307       38.38s   0.122%  ------ ||
|| projectors_func_grad_ovlp_box_spam3        :     6       38.45s   0.123%  ------ ||
|| aug_nl_calculate_forces                    :     1       39.51s   0.126%  ------ ||
|| eigenstates_calculate                      :     1       42.95s   0.137%  ------ ||
|| hartree_on_grid_single                     :   348       45.62s   0.146%  ------ ||
|| hubbard_projector_update                   :     1       47.08s   0.150%  ------ ||
|| fourier_apply_box_pair                     :  6282       47.81s   0.153%  1.786k ||
|| fourier_interpolate_cell                   :   698       58.36s   0.186% 132.786 ||
|| density_init_guess_real                    :     2       58.51s   0.187%  ------ ||
|| augmentation_screen_dij_spam3              :   347      111.34s   0.355%  ------ ||
|| forces_calculate                           :     1      126.32s   0.403%  ------ ||
|| cell_grid_deposit_box_real                 : 28056      146.55s   0.468%  ------ ||
|| sparse_product                             : 23156      156.33s   0.499%  ------ ||
|| aug_nonlocal_mat_spam3_embed_array         :   353      179.97s   0.574%  ------ ||
|| paw_dij_xc                                 :   386      188.41s   0.601%  ------ ||
|| fourier_apply_cell_backward                :  3133      207.76s   0.663% 150.638 ||
|| fourier_apply_cell_forward                 :  3133      227.91s   0.727% 137.322 ||
|| fourier_filter                             :  7577      233.79s   0.746%  ------ ||
|| aug_density_on_grid_spam3                  :   349      252.38s   0.805%  ------ ||
|| projectors_init_fftbox_recip               :   849      301.03s   0.961%  ------ ||
|| cell_grid_extract_box_real                 : 17766      306.06s   0.977%  ------ ||
|| fourier_interpolate                        :  7577      368.90s   1.177%  ------ ||
|| restart_ngwfs_tightbox_output              :    32      392.22s   1.252%  ------ ||
|| function_ops_brappd_ketppd_spam3           :   264      405.36s   1.294%  ------ ||
|| properties_calculate                       :     1      472.45s   1.508%  ------ ||
|| xc_energy_potential                        :   348      479.90s   1.531%  ------ ||
|| edft_calculate                             :     1      886.49s   2.829%  ------ ||
|| density_fftbox_deposit_to_cell             : 23034      899.17s   2.869%  ------ ||
|| projectors_func_ovlp_box_spam3             :   266      974.46s   3.110%  ------ ||
|| integrals_kinetic_spam3                    :   130     1080.98s   3.450%  ------ ||
|| basis_dot_function_with_box                : 14.11M    1455.11s   4.643%  ------ ||
|| potential_apply_to_ngwf_batch              :  1010     1889.97s   6.031%  ------ ||
|| projectors_gradient_batch                  :   384     2063.71s   6.586%  ------ ||
|| fourier_apply_box                          : 124.4k    2840.41s   9.064%  1.976k ||
|| integrals_locpot_mat_els_batch             :  1010     2946.84s   9.404%  ------ ||
|| fourier_interpolate_product                : 22435     3137.16s  10.011%  ------ ||
|| basis_add_function_to_box                  : 28.11M    3249.67s  10.370%  ------ ||
|| density_fftbox_interpolate_multiply        : 23034     3297.46s  10.523%  ------ ||
|| projectors_grad_precond_batch              :   192     4119.08s  13.145%  ------ ||
|| integrals_locpot_dbl_grid                  :   338     4838.88s  15.442%  ------ ||
|| density_batch_interp_deposit               :  2094     5607.42s  17.894%  ------ ||
|| density_batch_row_sums                     :  2094     5853.60s  18.680%  ------ ||
|| ngwf_gradient_build_batch                  :   192     6889.96s  21.987%  ------ ||
|| ngwf_gradient_batch                        :   192     9882.39s  31.536%  ------ ||
|| ngwf_gradient_lnv                          :    32    10036.94s  32.029%  ------ ||
|| density_on_dbl_grid                        :   698    11558.02s  36.883%  ------ ||
|| hamiltonian_lhxc_calculate                 :   345    12445.92s  39.717%  ------ ||
|| lnv_denskernel_optimise_cg                 :    32    15429.15s  49.237%  ------ ||
|| ngwf_cg_optimise                           :     1    29627.93s  94.547%  ------ ||
|| energy_and_forces                          :     1    31312.75s  99.924%  ------ ||
|| total_time                                 :     1    31336.64s 100.000%  ------ ||
======================================================================================
Overhead of generating timer report: 
- 0 ms averaging over threads,
- 5 ms ensuring consistency across MPI ranks,
- 35 ms printing in order.

Job completed: 01-10-2024 20:28 (+0100)

onetep_launcher: ONETEP seems to have finished correctly (zero exit code).
                 Brought to you by PID 132395 on nid006260.
