==================================================================================
It's Tue 22 Oct 2024 03:15:37 AM BST.
*** Starting onetep_launcher (node nid003901, PIDs 261272 261273 261274 261275 261276 261277 261278 261279)...
    - ONETEP arguments: U_0.2_0.dat
    - Current directory: /mnt/lustre/a2fs-work3/work/e89/e89/phsmea/U_det_2/U_0.2_0
    - Launcher executable directory: /mnt/lustre/a2fs-work3/work/e89/e89/phsmea/U_det_2/U_0.2_0
    - (-e) ONETEP executable specified through command-line: /work/e89/e89/phsmea/onetep.archer2_2024_cray
      ... trying /work/e89/e89/phsmea/onetep.archer2_2024_cray
          -> looks OK
*** Setting up environment...
    - (-s) Process stack size: unlimited
    - (-t) OMP_NUM_THREADS: 16
    - (-o) OMP_STACKSIZE: 64M
    - (-c) Maximum core file size: 2048000
    - (-d) decfort_dump_flag: n
    - (-m) I_MPI_OFA_TRANSLATION_CACHE: 0
    - (-m) I_MPI_DAPL_TRANSLATION_CACHE: 0
    - (-m) I_MPI_DAPL_UD_TRANSLATION_CACHE: 0
*** Starting ONETEP...
    - /work/e89/e89/phsmea/onetep.archer2_2024_cray U_0.2_0.dat
=================================================================================
_________________________________________________________________________________
 +---------------------------------------------------------------+
 |                                                               |
 |        ####### #     # ####### ####### ####### ######         |
 |        #     # ##    # #          #    #       #     #        |
 |        #     # # #   # #          #    #       #     #        |
 |        #     # #  #  # #####      #    #####   ######         |
 |        #     # #   # # #          #    #       #              |
 |        #     # #    ## #          #    #       #              |
 |        ####### #     # #######    #    ####### #              |
 |                                                               |
 |        Linear-Scaling Ab Initio Total Energy Program          |
 |                                                               |
 |          Release for academic collaborators of ODG            |
 |                                             Version 7.3.0     |
 | Remote: git@github.com:Miesaz/onetep_mea.git                  |
 | Local branch: master                                          |
 | Commit ID: 4af45e89288c8df5499704252eec3e032ee3d0c8           |
 | Date: Tue Aug 6 11:28:44 2024 +0100                           |
 | Working tree clean                                            |
 |                                                               |
 +---------------------------------------------------------------+
 |                                                               |
 |  Authors:                                                     |
 |  Jacek Dziedzic, Peter D. Haynes, Nicholas D. M. Hine,        |
 |  Arash A. Mostofi, Mike C. Payne and Chris-Kriton Skylaris    |
 |                                                               |
 |  Contributors:                                                |
 |  J. Aarons, L. Andrinopoulos, P. W. Avraam, R. A. Bell,       |
 |  A. Bhandari, G. A. Bramley, R. J. Charlton, S. J. Clark,     |
 |  R. J. Clements, G. C. Constantinescu, F. Corsetti,           |
 |  N. Corsini, O. Dieguez, S. M. M. Dubois, K. K. B. Duff,      |
 |  J. M. Escartin, M. Escobar Azor, A. Greco,                   |
 |  H. Helal, Q. O. Hill, L. P. Lee, J.-H. Li,                   |
 |  T. Li, E. B. Linscott, G. Moynihan, D. D. O`Regan,           |
 |  O. K. Okan, E. Parkinson, M. J. S. Phipps,                   |
 |  C. J. Pickard, J. C. A. Prentice, M. I. J. Probert,          |
 |  L. E. Ratcliff, M. Robinson, A. Ruiz Serrano,                |
 |  M. dos Santos Dias, J. S. Spencer, E. W. Tait,               |
 |  G. Teobaldi, D. Turban, V. Vitale, K. A. Wilkinson,          |
 |  C. Weber, J. C. Womack, Chengcheng Xiao, N. Yeung,           |
 |  and T. J. Zuehlsdorff.                                       |
 |                                                               |
 |                                   Copyright (c) 2004-2024     |
 |                                                               |
 |  Please cite:                                                 |
 |  "The ONETEP linear-scaling density functional theory program"|
 |   J. Chem. Phys. 152(17) 174111 (2020)                        |
 |                                                               |
 |          in all publications arising from your use of ONETEP. |
 |                                                               |
 +---------------------------------------------------------------+
 |                                                               |
 |   ONETEP is based on developments described in the following  |
 |   publications:                                               |
 |                                                               |
 |  "Nonorthogonal generalized Wannier function pseudopotential  |
 |   plane-wave method".                                         |
 |   C.-K. Skylaris, A. A. Mostofi, P. D. Haynes, O. Dieguez,    |
 |   M. C. Payne.                                                |
 |   Phys. Rev. B 66 035119 (2002).                              |
 |                                                               |
 |  "Preconditioned iterative minimization for linear-scaling    |
 |   electronic structure calculations".                         |
 |   A. A. Mostofi, P. D. Haynes, C.-K. Skylaris, M. C. Payne.   |
 |   J. Chem. Phys. 119(17), pp.8842-8848 (2003).                |
 |                                                               |
 |  "Total-energy calculations on a real space grid with         |
 |   localized functions and a plane-wave basis".                |
 |   A. A. Mostofi, C.-K. Skylaris, P. D. Haynes, M. C. Payne.   |
 |   Comput. Phys. Commun. 147, pp.788-802 (2002).               |
 |                                                               |
 |  "Accurate kinetic energy evaluation in electronic structure  |
 |   calculations with localized functions on real space grids"  |
 |   C.-K. Skylaris, A. A. Mostofi, P. D. Haynes, C. J. Pickard, |
 |   M. C. Payne.                                                |
 |   Comput. Phys. Commun. 140, pp.315-322 (2001).               |
 |                                                               |
 |  "Accurate ionic forces and geometry optimization in linear-  |
 |   scaling density-functional theory with local orbitals"      |
 |   N. D. M. Hine, M. Robinson, P. D. Haynes, C.-K. Skylaris,   |
 |   M. C. Payne, and A. A. Mostofi.                             |
 |   Phys. Rev. B 83 195102 (2011).                              |
 |                                                               |
 +---------------------------------------------------------------+

Job started: 22-10-2024 03:15 (+0100)
 
Reading parameters from file "U_0.2_0.dat" ...
WARNING in get_rundat: hubbard_calculating_u is TRUE, so do_properties will be
overridden to TRUE.
... done

If your calculation crashes here, before "Checking processes and threads..."
is displayed, then your stack size is insufficient.
If so, use "ulimit -s unlimited" at runtime.
You can disable this check with "check_stack_size F".

Checking processes and threads...
   Running with 56 MPI processes.
   There are 8 MPI processes running on the same node as the root process.
   Each MPI process is using: 
               1 threads for simulation cell FFTs.
               1 threads for threaded FFT box operations.
              16 threads for loops over batched FFT box operations.
              16 threads in other parallel regions.
   MPI Interface: S1 (use mpi_f08) (-DMPI -DUSE_MPI_F08).
   MPI_ASYNC_PROTECTS_NONBLOCKING: Yes. MPI_SUBARRAYS_SUPPORTED: Yes.
   FFTW Interface: OMP-capable and MODERN. (-DUSE_MODERN_FFTW specified).
   GPU Interface: None.
   GPU FFT Backend: None.
... done

Basic input checks...... done

Reading geometry and species blocks from file "U_0.2_0.dat" ...... done


--------------------------------------------------------------------------------
---------------------------------- INPUT FILE ----------------------------------
--------------------------------------------------------------------------------

charge : 0                                                                      
cutoff_energy : 1000 eV                                                         
do_properties : T                                                               
edft : F                                                                        
edft_init_maxit : 5                                                             
elec_energy_tol : 2e-07 Ha                                                      
fine_grid_scale : 4                                                             
forces_output_detail : VERBOSE                                                  
hubbard_calculating_u : T                                                       
maxit_ngwf_cg : 40                                                              
ngwf_threshold_orig : 1e-06                                                     
output_detail : BRIEF                                                           
paw : T                                                                         
spin_polarized : T                                                              
ngwfs_spin_polarized : T                                                        
read_denskern : T                                                               
read_hamiltonian : T                                                            
read_tightbox_ngwfs : T                                                         
spin : 216                                                                      
task : SinglePoint                                                              
write_denskern : T                                                              
write_forces : T                                                                
write_hamiltonian : T                                                           
write_tightbox_ngwfs : T                                                        
xc_functional : PBE                                                             
%BLOCK LATTICE_CART                                                             
ang                                                                             
41.261892132    0.000000000     0.000000000                                     
-20.630946066   35.733846792     0.000000000                                    
0.0000000000    0.000000000    17.192455055                                     
%ENDBLOCK LATTICE_CART                                                          
%BLOCK POSITIONS_ABS                                                            
ang                                                                             
Cr       3.43849101       1.98521371       9.03176873                           
Cr       0.00000000       3.97042742       9.03176919                           
I        4.42260340      -0.00001318       7.48054615                           
I        1.22717790       2.12556082       7.48054615                           
I       -2.21129029       3.83009349       7.48054615                           
I        2.45437873      -0.00001140      10.58299027                           
I        2.21129177       3.83009250      10.58299027                           
I       -1.22717949       2.12556004      10.58299027                           
Cr       0.00000000       7.94085485       9.03176873                           
Cr      -3.43849101       9.92606855       9.03176919                           
I        0.98411239       5.95562795       7.48054615                           
I       -2.21131311       8.08120195       7.48054615                           
I       -5.64978130       9.78573462       7.48054615                           
I       -0.98411228       5.95562973      10.58299027                           
I       -1.22719924       9.78573363      10.58299027                           
I       -4.66567050       8.08120117      10.58299027                           
Cr      -3.43849101      13.89649598       9.03176873                           
Cr      -6.87698202      15.88170968       9.03176919                           
I       -2.45437862      11.91126909       7.48054615                           
I       -5.64980412      14.03684309       7.48054615                           
I       -9.08827231      15.74137575       7.48054615                           
I       -4.42260329      11.91127086      10.58299027                           
I       -4.66569025      15.74137476      10.58299027                           
I       -8.10416151      14.03684230      10.58299027                           
Cr      10.31547303       1.98521371       9.03176873                           
Cr       6.87698202       3.97042742       9.03176919                           
I       11.29958542      -0.00001318       7.48054615                           
I        8.10415992       2.12556082       7.48054615                           
I        4.66569173       3.83009349       7.48054615                           
I        9.33136075      -0.00001140      10.58299027                           
I        9.08827380       3.83009250      10.58299027                           
I        5.64980253       2.12556004      10.58299027                           
Cr       6.87698202       7.94085485       9.03176873                           
Cr       3.43849101       9.92606855       9.03176919                           
I        7.86109441       5.95562795       7.48054615                           
I        4.66566891       8.08120195       7.48054615                           
I        1.22720072       9.78573462       7.48054615                           
I        5.89286974       5.95562973      10.58299027                           
I        5.64978278       9.78573363      10.58299027                           
I        2.21131152       8.08120117      10.58299027                           
Cr       3.43849101      13.89649598       9.03176873                           
Cr       0.00000000      15.88170968       9.03176919                           
I        4.42260340      11.91126909       7.48054615                           
I        1.22717790      14.03684309       7.48054615                           
I       -2.21129029      15.74137575       7.48054615                           
I        2.45437873      11.91127086      10.58299027                           
I        2.21129177      15.74137476      10.58299027                           
I       -1.22717949      14.03684230      10.58299027                           
Cr      17.19245505       1.98521371       9.03176873                           
Cr      13.75396404       3.97042742       9.03176919                           
I       18.17656744      -0.00001318       7.48054615                           
I       14.98114195       2.12556082       7.48054615                           
I       11.54267375       3.83009349       7.48054615                           
I       16.20834277      -0.00001140      10.58299027                           
I       15.96525582       3.83009250      10.58299027                           
I       12.52678455       2.12556004      10.58299027                           
Cr      13.75396404       7.94085485       9.03176873                           
Cr      10.31547303       9.92606855       9.03176919                           
I       14.73807643       5.95562795       7.48054615                           
I       11.54265094       8.08120195       7.48054615                           
I        8.10418274       9.78573462       7.48054615                           
I       12.76985176       5.95562973      10.58299027                           
I       12.52676481       9.78573363      10.58299027                           
I        9.08829354       8.08120117      10.58299027                           
Cr      10.31547303      13.89649598       9.03176873                           
Cr       6.87698202      15.88170968       9.03176919                           
I       11.29958542      11.91126909       7.48054615                           
I        8.10415992      14.03684309       7.48054615                           
I        4.66569173      15.74137575       7.48054615                           
I        9.33136075      11.91127086      10.58299027                           
I        9.08827380      15.74137476      10.58299027                           
I        5.64980253      14.03684230      10.58299027                           
Cr      -6.87698202      19.85213711       9.03176873                           
Cr     -10.31547303      21.83735082       9.03176919                           
I       -5.89286963      17.86691022       7.48054615                           
I       -9.08829513      19.99248422       7.48054615                           
I      -12.52676332      21.69701689       7.48054615                           
I       -7.86109430      17.86691200      10.58299027                           
I       -8.10418126      21.69701590      10.58299027                           
I      -11.54265252      19.99248344      10.58299027                           
Cr     -10.31547303      25.80777825       9.03176873                           
Cr     -13.75396404      27.79299195       9.03176919                           
I       -9.33136064      23.82255135       7.48054615                           
I      -12.52678614      25.94812535       7.48054615                           
I      -15.96525433      27.65265802       7.48054615                           
I      -11.29958531      23.82255313      10.58299027                           
I      -11.54267227      27.65265703      10.58299027                           
I      -14.98114353      25.94812457      10.58299027                           
Cr     -13.75396404      31.76341938       9.03176873                           
Cr     -17.19245505      33.74863308       9.03176919                           
I      -12.76985165      29.77819249       7.48054615                           
I      -15.96527715      31.90376649       7.48054615                           
I      -19.40374534      33.60829915       7.48054615                           
I      -14.73807632      29.77819426      10.58299027                           
I      -14.98116328      33.60829816      10.58299027                           
I      -18.41963454      31.90376570      10.58299027                           
Cr      -0.00000000      19.85213711       9.03176873                           
Cr      -3.43849101      21.83735082       9.03176919                           
I        0.98411239      17.86691022       7.48054615                           
I       -2.21131311      19.99248422       7.48054615                           
I       -5.64978130      21.69701689       7.48054615                           
I       -0.98411228      17.86691200      10.58299027                           
I       -1.22719923      21.69701590      10.58299027                           
I       -4.66567050      19.99248344      10.58299027                           
Cr      -3.43849101      25.80777825       9.03176873                           
Cr      -6.87698202      27.79299195       9.03176919                           
I       -2.45437862      23.82255135       7.48054615                           
I       -5.64980412      25.94812535       7.48054615                           
I       -9.08827231      27.65265802       7.48054615                           
I       -4.42260329      23.82255313      10.58299027                           
I       -4.66569025      27.65265703      10.58299027                           
I       -8.10416151      25.94812457      10.58299027                           
Cr      -6.87698202      31.76341938       9.03176873                           
Cr     -10.31547303      33.74863308       9.03176919                           
I       -5.89286963      29.77819249       7.48054615                           
I       -9.08829513      31.90376649       7.48054615                           
I      -12.52676332      33.60829915       7.48054615                           
I       -7.86109430      29.77819426      10.58299027                           
I       -8.10418126      33.60829816      10.58299027                           
I      -11.54265252      31.90376570      10.58299027                           
CrU       6.87698202      19.85213711       9.03176873                          
Cr       3.43849101      21.83735082       9.03176919                           
I        7.86109441      17.86691022       7.48054615                           
I        4.66566892      19.99248422       7.48054615                           
I        1.22720072      21.69701689       7.48054615                           
I        5.89286974      17.86691200      10.58299027                           
I        5.64978279      21.69701590      10.58299027                           
I        2.21131152      19.99248344      10.58299027                           
Cr       3.43849101      25.80777825       9.03176873                           
Cr      -0.00000000      27.79299195       9.03176919                           
I        4.42260340      23.82255135       7.48054615                           
I        1.22717791      25.94812535       7.48054615                           
I       -2.21129029      27.65265802       7.48054615                           
I        2.45437873      23.82255313      10.58299027                           
I        2.21129178      27.65265703      10.58299027                           
I       -1.22717949      25.94812457      10.58299027                           
Cr      -0.00000000      31.76341938       9.03176873                           
Cr      -3.43849101      33.74863308       9.03176919                           
I        0.98411239      29.77819249       7.48054615                           
I       -2.21131311      31.90376649       7.48054615                           
I       -5.64978130      33.60829915       7.48054615                           
I       -0.98411228      29.77819426      10.58299027                           
I       -1.22719923      33.60829816      10.58299027                           
I       -4.66567050      31.90376570      10.58299027                           
Cr      24.06943708       1.98521371       9.03176873                           
Cr      20.63094607       3.97042742       9.03176919                           
I       25.05354947      -0.00001318       7.48054615                           
I       21.85812397       2.12556082       7.48054615                           
I       18.41965578       3.83009349       7.48054615                           
I       23.08532480      -0.00001140      10.58299027                           
I       22.84223784       3.83009250      10.58299027                           
I       19.40376658       2.12556004      10.58299027                           
Cr      20.63094607       7.94085485       9.03176873                           
Cr      17.19245506       9.92606855       9.03176919                           
I       21.61505846       5.95562795       7.48054615                           
I       18.41963296       8.08120195       7.48054615                           
I       14.98116477       9.78573462       7.48054615                           
I       19.64683379       5.95562973      10.58299027                           
I       19.40374683       9.78573363      10.58299027                           
I       15.96527557       8.08120117      10.58299027                           
Cr      17.19245506      13.89649598       9.03176873                           
Cr      13.75396405      15.88170968       9.03176919                           
I       18.17656745      11.91126909       7.48054615                           
I       14.98114195      14.03684309       7.48054615                           
I       11.54267376      15.74137575       7.48054615                           
I       16.20834278      11.91127086      10.58299027                           
I       15.96525582      15.74137476      10.58299027                           
I       12.52678456      14.03684230      10.58299027                           
Cr      30.94641910       1.98521371       9.03176873                           
Cr      27.50792809       3.97042742       9.03176919                           
I       31.93053149      -0.00001318       7.48054615                           
I       28.73510599       2.12556082       7.48054615                           
I       25.29663780       3.83009349       7.48054615                           
I       29.96230682      -0.00001140      10.58299027                           
I       29.71921987       3.83009250      10.58299027                           
I       26.28074860       2.12556004      10.58299027                           
Cr      27.50792809       7.94085485       9.03176873                           
Cr      24.06943708       9.92606855       9.03176919                           
I       28.49204048       5.95562795       7.48054615                           
I       25.29661498       8.08120195       7.48054615                           
I       21.85814679       9.78573462       7.48054615                           
I       26.52381581       5.95562973      10.58299027                           
I       26.28072885       9.78573363      10.58299027                           
I       22.84225759       8.08120117      10.58299027                           
Cr      24.06943708      13.89649598       9.03176873                           
Cr      20.63094607      15.88170968       9.03176919                           
I       25.05354947      11.91126909       7.48054615                           
I       21.85812397      14.03684309       7.48054615                           
I       18.41965578      15.74137575       7.48054615                           
I       23.08532480      11.91127086      10.58299027                           
I       22.84223784      15.74137476      10.58299027                           
I       19.40376658      14.03684230      10.58299027                           
Cr      37.82340112       1.98521371       9.03176873                           
Cr      34.38491011       3.97042742       9.03176919                           
I       38.80751351      -0.00001318       7.48054615                           
I       35.61208802       2.12556082       7.48054615                           
I       32.17361982       3.83009349       7.48054615                           
I       36.83928884      -0.00001140      10.58299027                           
I       36.59620189       3.83009250      10.58299027                           
I       33.15773062       2.12556004      10.58299027                           
Cr      34.38491011       7.94085485       9.03176873                           
Cr      30.94641910       9.92606855       9.03176919                           
I       35.36902250       5.95562795       7.48054615                           
I       32.17359701       8.08120195       7.48054615                           
I       28.73512881       9.78573462       7.48054615                           
I       33.40079783       5.95562973      10.58299027                           
I       33.15771088       9.78573363      10.58299027                           
I       29.71923961       8.08120117      10.58299027                           
Cr      30.94641910      13.89649598       9.03176873                           
Cr      27.50792809      15.88170968       9.03176919                           
I       31.93053149      11.91126909       7.48054615                           
I       28.73510599      14.03684309       7.48054615                           
I       25.29663780      15.74137575       7.48054615                           
I       29.96230682      11.91127086      10.58299027                           
I       29.71921987      15.74137476      10.58299027                           
I       26.28074860      14.03684230      10.58299027                           
Cr      13.75396404      19.85213711       9.03176873                           
Cr      10.31547303      21.83735082       9.03176919                           
I       14.73807643      17.86691022       7.48054615                           
I       11.54265093      19.99248422       7.48054615                           
I        8.10418274      21.69701689       7.48054615                           
I       12.76985176      17.86691200      10.58299027                           
I       12.52676480      21.69701590      10.58299027                           
I        9.08829354      19.99248344      10.58299027                           
Cr      10.31547303      25.80777825       9.03176873                           
Cr       6.87698202      27.79299195       9.03176919                           
I       11.29958542      23.82255135       7.48054615                           
I        8.10415992      25.94812535       7.48054615                           
I        4.66569173      27.65265802       7.48054615                           
I        9.33136075      23.82255313      10.58299027                           
I        9.08827379      27.65265703      10.58299027                           
I        5.64980253      25.94812457      10.58299027                           
Cr       6.87698202      31.76341938       9.03176873                           
Cr       3.43849101      33.74863308       9.03176919                           
I        7.86109441      29.77819249       7.48054615                           
I        4.66566891      31.90376649       7.48054615                           
I        1.22720072      33.60829915       7.48054615                           
I        5.89286974      29.77819426      10.58299027                           
I        5.64978278      33.60829816      10.58299027                           
I        2.21131152      31.90376570      10.58299027                           
Cr      20.63094606      19.85213711       9.03176873                           
Cr      17.19245505      21.83735082       9.03176919                           
I       21.61505845      17.86691022       7.48054615                           
I       18.41963295      19.99248422       7.48054615                           
I       14.98116476      21.69701689       7.48054615                           
I       19.64683378      17.86691200      10.58299027                           
I       19.40374683      21.69701590      10.58299027                           
I       15.96527556      19.99248344      10.58299027                           
Cr      17.19245505      25.80777825       9.03176873                           
Cr      13.75396404      27.79299195       9.03176919                           
I       18.17656744      23.82255135       7.48054615                           
I       14.98114194      25.94812535       7.48054615                           
I       11.54267375      27.65265802       7.48054615                           
I       16.20834277      23.82255313      10.58299027                           
I       15.96525581      27.65265703      10.58299027                           
I       12.52678455      25.94812457      10.58299027                           
Cr      13.75396404      31.76341938       9.03176873                           
Cr      10.31547303      33.74863308       9.03176919                           
I       14.73807643      29.77819249       7.48054615                           
I       11.54265093      31.90376649       7.48054615                           
I        8.10418274      33.60829915       7.48054615                           
I       12.76985176      29.77819426      10.58299027                           
I       12.52676480      33.60829816      10.58299027                           
I        9.08829354      31.90376570      10.58299027                           
Cr      27.50792808      19.85213711       9.03176873                           
Cr      24.06943707      21.83735082       9.03176919                           
I       28.49204047      17.86691022       7.48054615                           
I       25.29661498      19.99248422       7.48054615                           
I       21.85814678      21.69701689       7.48054615                           
I       26.52381580      17.86691200      10.58299027                           
I       26.28072885      21.69701590      10.58299027                           
I       22.84225758      19.99248344      10.58299027                           
Cr      24.06943707      25.80777825       9.03176873                           
Cr      20.63094606      27.79299195       9.03176919                           
I       25.05354946      23.82255135       7.48054615                           
I       21.85812397      25.94812535       7.48054615                           
I       18.41965577      27.65265802       7.48054615                           
I       23.08532479      23.82255313      10.58299027                           
I       22.84223784      27.65265703      10.58299027                           
I       19.40376657      25.94812457      10.58299027                           
Cr      20.63094606      31.76341938       9.03176873                           
Cr      17.19245505      33.74863308       9.03176919                           
I       21.61505845      29.77819249       7.48054615                           
I       18.41963295      31.90376649       7.48054615                           
I       14.98116476      33.60829915       7.48054615                           
I       19.64683378      29.77819426      10.58299027                           
I       19.40374683      33.60829816      10.58299027                           
I       15.96527556      31.90376570      10.58299027                           
%ENDBLOCK POSITIONS_ABS                                                         
%BLOCK SPECIES                                                                  
Cr Cr 24 -1 15                                                                  
I   I  53 -1 15                                                                 
CrU Cr 24 -1 15                                                                 
%ENDBLOCK SPECIES                                                               
%BLOCK SPECIES_ATOMIC_SET                                                       
Cr  "SOLVE INIT SPIN=3"                                                         
I   "SOLVE"                                                                     
CrU "SOLVE INIT SPIN=3"                                                         
%ENDBLOCK SPECIES_ATOMIC_SET                                                    
%BLOCK HUBBARD                                                                  
CrU 2 0.0 0.0 -10.0 0.20 0.0                                                    
%ENDBLOCK HUBBARD                                                               
%BLOCK SPECIES_LDOS_GROUPS                                                      
Cr                                                                              
I                                                                               
CrU                                                                             
%ENDBLOCK SPECIES_LDOS_GROUPS                                                   
%BLOCK SPECIES_POT                                                              
Cr  "/work/e89/e89/phsmea/U_det/Cr.PBE-paw.abinit"                              
I   "/work/e89/e89/phsmea/U_det/I.PBE-paw.abinit"                               
CrU "/work/e89/e89/phsmea/U_det/Cr.PBE-paw.abinit"                              
%ENDBLOCK SPECIES_POT                                                           

--------------------------------------------------------------------------------
-------------------------------- END INPUT FILE --------------------------------
--------------------------------------------------------------------------------


 
 ESDF WARNING(1): "charge" (esdf_physical) has no units. Assume "e".
<<<<<<<<<<<<<<<<<<<<<<<<<<<<<<<<< Full system >>>>>>>>>>>>>>>>>>>>>>>>>>>>>>>>>>
<<<<<<<<<<<<<<<<<<<<<<<<<<< PAW Dataset information >>>>>>>>>>>>>>>>>>>>>>>>>>>
File: /work/e89/e89/phsmea/U_det/Cr.PBE-paw.abinit; rc = 2.11 bohr; shape type =  2; rshape = 1.80 bohr;
  Atomic number: 24;  ionic charge: 14.000000
    Partial Wave 1: l = 0
    Partial Wave 2: l = 0
    Partial Wave 3: l = 1
    Partial Wave 4: l = 1
    Partial Wave 5: l = 2
    Partial Wave 6: l = 2
  Core charge supplied for Nonlinear Core Corrections
File: /work/e89/e89/phsmea/U_det/I.PBE-paw.abinit; rc = 2.30 bohr; shape type =  2; rshape = 2.11 bohr;
  Atomic number: 53;  ionic charge:  7.000000
    Partial Wave 1: l = 0
    Partial Wave 2: l = 0
    Partial Wave 3: l = 1
    Partial Wave 4: l = 1
  Core charge supplied for Nonlinear Core Corrections
<<<<<<<<<<<<<<<<<<<<<<<<<<<<<<<<<<<<<<< >>>>>>>>>>>>>>>>>>>>>>>>>>>>>>>>>>>>>>>

-------------------------- Atom counting information ---------------------------
Symbol    Natoms    Nngwfs    Nprojs
  Cr        72       936      1296
  I        216       864      1728
.......   ......    ......    ......
Totals:    288      1800      3024
--------------------------------------------------------------------------------

=============================== PSINC grid sizes ===============================
                      Simulation cell:  175 x 175 x  75
                              FFT-box:  175 x 175 x  75
                                  PPD:    5 x   5 x   1
================================================================================

Atom SCF Calculation for Cr : Z (AE atom) =  24 : Z (PS atom) =  14
Config String: 3s2.0 3p6.0 3d5.0 4s1.0 4p0.0 INIT SPIN=3
Orbitals (num,occ):  5     2.00 6.00 5.00 1.00 0.00
Orbitals   (num,l):  5        0    1    2    0    1
Atom SCF converged after  64 iterations to a total energy of    -87.07044631
Adjusting orbital occupancies:
Orbitals (num,spin,occ):  5  1     1.00 3.00 3.50 1.00 0.00
Orbitals   (num,spin,l):  5  1        0    1    2    0    1
Orbitals (num,spin,occ):  5  2     1.00 3.00 1.00 0.50 0.00
Orbitals   (num,spin,l):  5  2        0    1    2    0    1

Atom SCF Calculation for I  : Z (AE atom) =  53 : Z (PS atom) =   7
Config String: 5s2.0 5p5.0
Orbitals (num,occ):  2     2.00 5.00
Orbitals   (num,l):  2        0    1
Atom SCF converged after  28 iterations to a total energy of    -11.61352964

Atom SCF Calculation for Cr : Z (AE atom) =  24 : Z (PS atom) =  14
Config String: 3s2.0 3p6.0 3d5.0 4s1.0 4p0.0 INIT SPIN=3
Orbitals (num,occ):  5     2.00 6.00 5.00 1.00 0.00
Orbitals   (num,l):  5        0    1    2    0    1
Atom SCF converged after  64 iterations to a total energy of    -87.07044631
Adjusting orbital occupancies:
Orbitals (num,spin,occ):  5  1     1.00 3.00 3.50 1.00 0.00
Orbitals   (num,spin,l):  5  1        0    1    2    0    1
Orbitals (num,spin,occ):  5  2     1.00 3.00 1.00 0.50 0.00
Orbitals   (num,spin,l):  5  2        0    1    2    0    1

Atom SCF Calculation for Cr : Z (AE atom) =  24 : Z (PS atom) =  14
Config String: 3s2.0 3p6.0 3d5.0 4s1.0 4p0.0 INIT SPIN=3
Orbitals (num,occ):  5     2.00 6.00 5.00 1.00 0.00
Orbitals   (num,l):  5        0    1    2    0    1
Atom SCF converged after  64 iterations to a total energy of    -87.07044631

Atom SCF Calculation for I  : Z (AE atom) =  53 : Z (PS atom) =   7
Config String: 5s2.0 5p5.0
Orbitals (num,occ):  2     2.00 5.00
Orbitals   (num,l):  2        0    1
Atom SCF converged after  28 iterations to a total energy of    -11.61352964

Atom SCF Calculation for Cr : Z (AE atom) =  24 : Z (PS atom) =  14
Config String: 3s2.0 3p6.0 3d5.0 4s1.0 4p0.0 INIT SPIN=3
Orbitals (num,occ):  5     2.00 6.00 5.00 1.00 0.00
Orbitals   (num,l):  5        0    1    2    0    1
Atom SCF converged after  64 iterations to a total energy of    -87.07044631
Calculating Ewald energy ...             6126.916246 Hartree

============================= Charge Augmentation ==============================
                           Aug box size:   49 x  49 x  45
================================================================================

Reading NGWFs from file "U_0.2_0.tightbox_ngwfs" ... done

================================= Core Density =================================
               Core den box size:  125 x 125 x 117
================================================================================

Reading density kernel from file "U_0.2_0.dkn" ... done

################################################################################
###################### NGWF self-consistent optimisation #######################
################################################################################
|ITER|    RMS GRADIENT   |     TOTAL ENERGY    |   step   |     Epredicted      
   0     0.00000456910823  -8818.87943960970188   0.721644  -8818.88201334889891        
   1     0.00000143280335  -8818.88199105442618   1.067450  -8818.88235590707882        
   2     0.00000080696714  -8818.88237826351178   1.467065  -8818.88254474188579        
   3     0.00000068963265  -8818.88252960204045   3.567789  -8818.88277680559804        
   4     0.00000119484274  -8818.88264483170133   1.077747  -8818.88290768733350        
   5     0.00000073646577  -8818.88291103970732   1.491837  -8818.88305010951444        
   6     0.00000056755222  -8818.88303105027262   2.060304  -8818.88313799210846        
   7     0.00000080689450  -8818.88309330186894   1.286389  -8818.88323638371912        
   8     0.00000060783410  -8818.88323453517478   3.070239  -8818.88341000334003        
   9     0.00000102812395  -8818.88334047480384   0.849829  -8818.88349393699718        
  10     0.00000062783718  -8818.88349661745087   2.376042  -8818.88364872438797        
  11     0.00000060828835  -8818.88361689426711   9.893364  -8818.88420127788413        
  12     0.00000371078474  -8818.88260819145216   0.702447  -8818.88426062494909        
  13     0.00000091384966  -8818.88427829982720   1.168891  -8818.88444534587688        
  14     0.00000062472617  -8818.88445770699400   2.259081  -8818.88460747738645        
  15     0.00000074338402  -8818.88457994676355   9.176038  -8818.88521806405515        
  16     0.00000418833914  -8818.88245695808291   0.796986  -8818.88484539047749        
  17     0.00000161458347  -8818.88487858457302   1.134562  -8818.88539351533655        
  18     0.00000092785114  -8818.88540941430620   1.108045  -8818.88558389980062        
  19     0.00000044332693  -8818.88558284463215   1.572419  -8818.88564089640022        
  20     0.00000051579234  -8818.88563817971044   1.389300  -8818.88570132260793        
  21     0.00000053592446  -8818.88569832053327  -0.000231  -8818.88569830896449        
  22     0.00000051547816  -8818.88570575072299   2.602132  -8818.88592562899248        
  23     0.00000143870729  -8818.88572451911932   0.683708  -8818.88596628477535        
  24     0.00000048493276  -8818.88600511001096   1.860755  -8818.88607582239638        
  25     0.00000052286449  -8818.88606218380846  11.862498  -8818.88657625527048        
  26     0.00000341110715  -8818.88489843444222   0.752968  -8818.88639517333286        
  27     0.00000121428455  -8818.88643571158354   1.275286  -8818.88675722192602        
  28     0.00000073670907  -8818.88678588809125   1.327403  -8818.88691312638366        
  29     0.00000054700905  -8818.88691269308401   3.705612  -8818.88710156742491        
  30     0.00000098525683  -8818.88701245698758   0.918998  -8818.88716485963960        
  31     0.00000047380597  -8818.88716416195530   1.370394  -8818.88721730677025        
  32     0.00000042196380  -8818.88720904802904   2.080885  -8818.88726933180624        

================================================================================
           ---------------- ENERGY COMPONENTS (Eh) ----------------
           | Kinetic                    :     1819.38951937342290 |
           | Core Hartree               :   -28371.97189565339800 |
           | CoreHart (non-coul chg cor):        0.00000000000000
           | Hartree                    :    13503.45968121883200 |
           | Exchange-correlation       :    -1248.31024722828897 |
           | Hubbard DFT+U correction   :        0.04171688656431 |
           | Ewald                      :     6126.91624599049464 |
           | Dij0                       :     -555.80117141526512 |
           | Dijhartree                 :      248.91990318008038 |
           | Exc [AE core]              :   -42415.07937079946710 |
           | Exc DC [AE core]           :    -1638.54461484269973 |
           | Exc [PS core]              :    -1032.30844581443012 |
           | Exc DC [PS core]           :     -982.38779077787206 |
           | Exc [Core]                 :   -41041.23993575423080 |
           | Total [Sphere]             :     -648.41225746599230 |
           | Total                      :    -8818.88723687836318 |
           --------------------------------------------------------
           Integrated compensation chrg.:      189.09301034133159
           Integrated density           :     2519.99993596918512
           Integrated spin density      :      215.99995947223908
           Integrated |spin density|    :      164.32537236461195
================================================================================

  33     0.00000058776997  -8818.88723687834681  <-- CG                                 

################################################################################
DFT+U information on atom      1 of Hubbard species CrU 
################################################################################
Occupancy matrix of Hubbard site      1 and spin      1 is 
  m_l =   -2          -1           0           1           2
  0.88845351  0.15183231  0.00000255  0.00000203  0.00000604
  0.15187016  0.76957070 -0.00000474  0.00000529 -0.00000349
  0.00000112 -0.00000263  0.99109565 -0.00000161 -0.00000077
  0.00000326  0.00000523 -0.00000277  0.76956407 -0.15186618
  0.00000598 -0.00000221 -0.00000156 -0.15182977  0.88846096
################################################################################
Occupancy matrix of Hubbard site      1 and spin      2 is 
  m_l =   -2          -1           0           1           2
  0.25199474 -0.13273918 -0.00000244  0.00000152  0.00000138
 -0.13277120  0.35665519  0.00000294  0.00000013 -0.00000044
 -0.00000104  0.00000110  0.15142490  0.00000074  0.00000064
  0.00000046  0.00000018  0.00000176  0.35665514  0.13277179
  0.00000143 -0.00000154  0.00000141  0.13274098  0.25199635
################################################################################
Total occupancy of Hubbard site      1 is         5.67587122 e
Local magnetic moment of Hubbard site      1 is   2.93841857 mu_B
DFT+U energy of Hubbard site      1 is            0.04171689 Ha
################################################################################

##### For calculating the Hubbard U and Hund J #################################
DFT+U information on Hubbard site      1 of species CrU  and spin      1
The average Hxc+local potential is            -19.08920172 eV.
The average Hubbard potential is                0.20000000 eV.
The average non-local PAW contribution is     -11.03510508 eV.
################################################################################
DFT+U information on Hubbard site      1 of species CrU  and spin      2
The average Hxc+local potential is            -18.00566732 eV.
The average Hubbard potential is                0.20000000 eV.
The average non-local PAW contribution is      -9.57100219 eV.
################################################################################

======================== Writing density and potential =========================
Writing "U_0.2_0_ps_density.cube" ... done
Writing "U_0.2_0_ps_spindensity.cube" ... done
Writing "U_0.2_0_ae_density.cube" ... done
Writing "U_0.2_0_ae_spindensity.cube" ... done
Writing "U_0.2_0_potential.cube" ... done
Writing "U_0.2_0_electrostatic_potential.cube" ... done
================================================================================

    Mulliken Atomic Populations
    ---------------------------
Species  Ion    Total   Charge (e)    Spin (hbar)
=================================================
  Cr     1      13.728      0.272      1.67
  Cr     2      13.728      0.272      1.67
  I      3       7.091     -0.091     -0.06
  I      4       7.091     -0.091     -0.06
  I      5       7.091     -0.091     -0.06
  I      6       7.091     -0.091     -0.06
  I      7       7.091     -0.091     -0.06
  I      8       7.091     -0.091     -0.06
  Cr     9      13.728      0.272      1.67
  Cr    10      13.728      0.272      1.67
  I     11       7.091     -0.091     -0.06
  I     12       7.091     -0.091     -0.06
  I     13       7.091     -0.091     -0.06
  I     14       7.091     -0.091     -0.06
  I     15       7.090     -0.090     -0.06
  I     16       7.091     -0.091     -0.06
  Cr    17      13.728      0.272      1.67
  Cr    18      13.727      0.273      1.67
  I     19       7.091     -0.091     -0.06
  I     20       7.091     -0.091     -0.06
  I     21       7.091     -0.091     -0.06
  I     22       7.091     -0.091     -0.06
  I     23       7.091     -0.091     -0.06
  I     24       7.092     -0.092     -0.06
  Cr    25      13.728      0.272      1.67
  Cr    26      13.728      0.272      1.67
  I     27       7.091     -0.091     -0.06
  I     28       7.091     -0.091     -0.06
  I     29       7.091     -0.091     -0.06
  I     30       7.091     -0.091     -0.06
  I     31       7.090     -0.090     -0.06
  I     32       7.091     -0.091     -0.06
  Cr    33      13.728      0.272      1.67
  Cr    34      13.729      0.271      1.67
  I     35       7.091     -0.091     -0.06
  I     36       7.091     -0.091     -0.06
  I     37       7.090     -0.090     -0.06
  I     38       7.091     -0.091     -0.06
  I     39       7.090     -0.090     -0.06
  I     40       7.091     -0.091     -0.06
  Cr    41      13.727      0.273      1.67
  Cr    42      13.727      0.273      1.67
  I     43       7.091     -0.091     -0.06
  I     44       7.091     -0.091     -0.06
  I     45       7.091     -0.091     -0.06
  I     46       7.091     -0.091     -0.06
  I     47       7.091     -0.091     -0.06
  I     48       7.091     -0.091     -0.06
  Cr    49      13.727      0.273      1.67
  Cr    50      13.728      0.272      1.67
  I     51       7.091     -0.091     -0.06
  I     52       7.091     -0.091     -0.06
  I     53       7.091     -0.091     -0.06
  I     54       7.092     -0.092     -0.06
  I     55       7.091     -0.091     -0.06
  I     56       7.091     -0.091     -0.06
  Cr    57      13.727      0.273      1.67
  Cr    58      13.729      0.271      1.67
  I     59       7.091     -0.091     -0.06
  I     60       7.091     -0.091     -0.06
  I     61       7.090     -0.090     -0.06
  I     62       7.091     -0.091     -0.06
  I     63       7.090     -0.090     -0.06
  I     64       7.091     -0.091     -0.06
  Cr    65      13.726      0.274      1.67
  Cr    66      13.724      0.276      1.67
  I     67       7.091     -0.091     -0.06
  I     68       7.092     -0.092     -0.06
  I     69       7.091     -0.091     -0.06
  I     70       7.091     -0.091     -0.06
  I     71       7.091     -0.091     -0.06
  I     72       7.092     -0.092     -0.06
  Cr    73      13.725      0.275      1.67
  Cr    74      13.727      0.273      1.67
  I     75       7.091     -0.091     -0.06
  I     76       7.091     -0.091     -0.06
  I     77       7.092     -0.092     -0.06
  I     78       7.091     -0.091     -0.06
  I     79       7.091     -0.091     -0.06
  I     80       7.091     -0.091     -0.06
  Cr    81      13.728      0.272      1.67
  Cr    82      13.728      0.272      1.67
  I     83       7.091     -0.091     -0.06
  I     84       7.091     -0.091     -0.06
  I     85       7.091     -0.091     -0.06
  I     86       7.091     -0.091     -0.06
  I     87       7.091     -0.091     -0.06
  I     88       7.090     -0.090     -0.06
  Cr    89      13.728      0.272      1.67
  Cr    90      13.728      0.272      1.67
  I     91       7.091     -0.091     -0.06
  I     92       7.091     -0.091     -0.06
  I     93       7.091     -0.091     -0.06
  I     94       7.091     -0.091     -0.06
  I     95       7.091     -0.091     -0.06
  I     96       7.090     -0.090     -0.06
  Cr    97      13.728      0.272      1.67
  Cr    98      13.731      0.269      1.67
  I     99       7.090     -0.090     -0.06
  I    100       7.090     -0.090     -0.06
  I    101       7.091     -0.091     -0.06
  I    102       7.091     -0.091     -0.06
  I    103       7.090     -0.090     -0.06
  I    104       7.091     -0.091     -0.06
  Cr   105      13.726      0.274      1.67
  Cr   106      13.727      0.273      1.67
  I    107       7.091     -0.091     -0.06
  I    108       7.091     -0.091     -0.06
  I    109       7.091     -0.091     -0.06
  I    110       7.090     -0.090     -0.06
  I    111       7.091     -0.091     -0.06
  I    112       7.090     -0.090     -0.06
  Cr   113      13.728      0.272      1.67
  Cr   114      13.728      0.272      1.67
  I    115       7.091     -0.091     -0.06
  I    116       7.091     -0.091     -0.06
  I    117       7.091     -0.091     -0.06
  I    118       7.091     -0.091     -0.06
  I    119       7.091     -0.091     -0.06
  I    120       7.090     -0.090     -0.06
  Cr   121      13.713      0.287      1.68
  Cr   122      13.723      0.277      1.67
  I    123       7.094     -0.094     -0.06
  I    124       7.094     -0.094     -0.06
  I    125       7.091     -0.091     -0.06
  I    126       7.094     -0.094     -0.06
  I    127       7.094     -0.094     -0.06
  I    128       7.091     -0.091     -0.06
  Cr   129      13.728      0.272      1.67
  Cr   130      13.731      0.269      1.67
  I    131       7.091     -0.091     -0.06
  I    132       7.090     -0.090     -0.06
  I    133       7.090     -0.090     -0.06
  I    134       7.091     -0.091     -0.06
  I    135       7.090     -0.090     -0.06
  I    136       7.091     -0.091     -0.06
  Cr   137      13.725      0.275      1.67
  Cr   138      13.727      0.273      1.67
  I    139       7.091     -0.091     -0.06
  I    140       7.091     -0.091     -0.06
  I    141       7.091     -0.091     -0.06
  I    142       7.091     -0.091     -0.06
  I    143       7.091     -0.091     -0.06
  I    144       7.091     -0.091     -0.06
  Cr   145      13.727      0.273      1.67
  Cr   146      13.725      0.275      1.67
  I    147       7.092     -0.092     -0.06
  I    148       7.091     -0.091     -0.06
  I    149       7.091     -0.091     -0.06
  I    150       7.091     -0.091     -0.06
  I    151       7.091     -0.091     -0.06
  I    152       7.091     -0.091     -0.06
  Cr   153      13.729      0.271      1.67
  Cr   154      13.726      0.274      1.67
  I    155       7.091     -0.091     -0.06
  I    156       7.091     -0.091     -0.06
  I    157       7.091     -0.091     -0.06
  I    158       7.091     -0.091     -0.06
  I    159       7.091     -0.091     -0.06
  I    160       7.091     -0.091     -0.06
  Cr   161      13.729      0.271      1.67
  Cr   162      13.725      0.275      1.67
  I    163       7.091     -0.091     -0.06
  I    164       7.091     -0.091     -0.06
  I    165       7.091     -0.091     -0.06
  I    166       7.091     -0.091     -0.06
  I    167       7.091     -0.091     -0.06
  I    168       7.091     -0.091     -0.06
  Cr   169      13.728      0.272      1.67
  Cr   170      13.728      0.272      1.67
  I    171       7.091     -0.091     -0.06
  I    172       7.091     -0.091     -0.06
  I    173       7.091     -0.091     -0.06
  I    174       7.090     -0.090     -0.06
  I    175       7.091     -0.091     -0.06
  I    176       7.091     -0.091     -0.06
  Cr   177      13.727      0.273      1.67
  Cr   178      13.726      0.274      1.67
  I    179       7.091     -0.091     -0.06
  I    180       7.091     -0.091     -0.06
  I    181       7.091     -0.091     -0.06
  I    182       7.090     -0.090     -0.06
  I    183       7.091     -0.091     -0.06
  I    184       7.091     -0.091     -0.06
  Cr   185      13.729      0.271      1.67
  Cr   186      13.726      0.274      1.67
  I    187       7.091     -0.091     -0.06
  I    188       7.091     -0.091     -0.06
  I    189       7.091     -0.091     -0.06
  I    190       7.091     -0.091     -0.06
  I    191       7.091     -0.091     -0.06
  I    192       7.091     -0.091     -0.06
  Cr   193      13.728      0.272      1.67
  Cr   194      13.728      0.272      1.67
  I    195       7.091     -0.091     -0.06
  I    196       7.091     -0.091     -0.06
  I    197       7.091     -0.091     -0.06
  I    198       7.090     -0.090     -0.06
  I    199       7.091     -0.091     -0.06
  I    200       7.091     -0.091     -0.06
  Cr   201      13.728      0.272      1.67
  Cr   202      13.728      0.272      1.67
  I    203       7.091     -0.091     -0.06
  I    204       7.091     -0.091     -0.06
  I    205       7.091     -0.091     -0.06
  I    206       7.090     -0.090     -0.06
  I    207       7.091     -0.091     -0.06
  I    208       7.091     -0.091     -0.06
  Cr   209      13.727      0.273      1.67
  Cr   210      13.725      0.275      1.67
  I    211       7.091     -0.091     -0.06
  I    212       7.091     -0.091     -0.06
  I    213       7.091     -0.091     -0.06
  I    214       7.091     -0.091     -0.06
  I    215       7.091     -0.091     -0.06
  I    216       7.091     -0.091     -0.06
  Cr   217      13.726      0.274      1.67
  Cr   218      13.724      0.276      1.67
  I    219       7.091     -0.091     -0.06
  I    220       7.091     -0.091     -0.06
  I    221       7.094     -0.094     -0.06
  I    222       7.091     -0.091     -0.06
  I    223       7.092     -0.092     -0.06
  I    224       7.093     -0.093     -0.06
  Cr   225      13.727      0.273      1.67
  Cr   226      13.727      0.273      1.67
  I    227       7.092     -0.092     -0.06
  I    228       7.091     -0.091     -0.06
  I    229       7.091     -0.091     -0.06
  I    230       7.091     -0.091     -0.06
  I    231       7.091     -0.091     -0.06
  I    232       7.090     -0.090     -0.06
  Cr   233      13.728      0.272      1.67
  Cr   234      13.727      0.273      1.67
  I    235       7.091     -0.091     -0.06
  I    236       7.091     -0.091     -0.06
  I    237       7.091     -0.091     -0.06
  I    238       7.090     -0.090     -0.06
  I    239       7.091     -0.091     -0.06
  I    240       7.091     -0.091     -0.06
  Cr   241      13.727      0.273      1.67
  Cr   242      13.729      0.271      1.67
  I    243       7.091     -0.091     -0.06
  I    244       7.090     -0.090     -0.06
  I    245       7.091     -0.091     -0.06
  I    246       7.091     -0.091     -0.06
  I    247       7.091     -0.091     -0.06
  I    248       7.091     -0.091     -0.06
  Cr   249      13.728      0.272      1.67
  Cr   250      13.729      0.271      1.67
  I    251       7.091     -0.091     -0.06
  I    252       7.090     -0.090     -0.06
  I    253       7.091     -0.091     -0.06
  I    254       7.090     -0.090     -0.06
  I    255       7.091     -0.091     -0.06
  I    256       7.091     -0.091     -0.06
  Cr   257      13.728      0.272      1.67
  Cr   258      13.728      0.272      1.67
  I    259       7.091     -0.091     -0.06
  I    260       7.091     -0.091     -0.06
  I    261       7.091     -0.091     -0.06
  I    262       7.090     -0.090     -0.06
  I    263       7.091     -0.091     -0.06
  I    264       7.091     -0.091     -0.06
  Cr   265      13.727      0.273      1.67
  Cr   266      13.728      0.272      1.67
  I    267       7.091     -0.091     -0.06
  I    268       7.091     -0.091     -0.06
  I    269       7.091     -0.091     -0.06
  I    270       7.091     -0.091     -0.06
  I    271       7.091     -0.091     -0.06
  I    272       7.090     -0.090     -0.06
  Cr   273      13.728      0.272      1.67
  Cr   274      13.728      0.272      1.67
  I    275       7.091     -0.091     -0.06
  I    276       7.091     -0.091     -0.06
  I    277       7.091     -0.091     -0.06
  I    278       7.091     -0.091     -0.06
  I    279       7.091     -0.091     -0.06
  I    280       7.090     -0.090     -0.06
  Cr   281      13.728      0.272      1.67
  Cr   282      13.728      0.272      1.67
  I    283       7.091     -0.091     -0.06
  I    284       7.091     -0.091     -0.06
  I    285       7.091     -0.091     -0.06
  I    286       7.091     -0.091     -0.06
  I    287       7.091     -0.091     -0.06
  I    288       7.091     -0.091     -0.06
=================================================

        Bond         Population      Spin       Length (bohr)
=============================================================
 Cr  186 -- I   191        0.28     -0.03      4.86412
 Cr  178 -- I   183        0.27     -0.03      4.86412
 Cr  154 -- I   159        0.27     -0.03      4.86412
 Cr  162 -- I   167        0.27     -0.03      4.86412
 Cr  146 -- I   151        0.27     -0.03      4.86412
 Cr   82 -- I    87        0.27     -0.03      4.86412
 Cr  250 -- I   255        0.28     -0.03      4.86412
 Cr  226 -- I   231        0.27     -0.03      4.86412
 Cr   74 -- I    79        0.27     -0.03      4.86412
 Cr   10 -- I    15        0.28     -0.03      4.86412
 Cr  106 -- I   111        0.27     -0.03      4.86412
 Cr   34 -- I    39        0.28     -0.03      4.86412
 Cr   42 -- I    47        0.27     -0.03      4.86412
 Cr   18 -- I    23        0.27     -0.03      4.86412
 Cr  114 -- I   119        0.27     -0.03      4.86412
 Cr    2 -- I     7        0.27     -0.03      4.86412
 Cr   90 -- I    95        0.27     -0.03      4.86412
 Cr  218 -- I   223        0.27     -0.03      4.86412
 Cr  258 -- I   263        0.28     -0.03      4.86412
 Cr  234 -- I   239        0.27     -0.03      4.86412
 Cr  274 -- I   279        0.27     -0.03      4.86412
 Cr  130 -- I   135        0.27     -0.03      4.86412
 Cr   98 -- I   103        0.27     -0.03      4.86412
 Cr   66 -- I    71        0.27     -0.03      4.86412
 Cr  242 -- I   247        0.28     -0.03      4.86412
 Cr   50 -- I    55        0.27     -0.03      4.86412
 Cr   26 -- I    31        0.27     -0.03      4.86412
 Cr   58 -- I    63        0.28     -0.03      4.86412
 Cr  210 -- I   215        0.27     -0.03      4.86412
 Cr  170 -- I   175        0.28     -0.03      4.86412
 Cr  122 -- I   127        0.28     -0.03      4.86412
 Cr  266 -- I   271        0.27     -0.03      4.86412
 Cr  282 -- I   287        0.27     -0.03      4.86412
 Cr  138 -- I   143        0.27     -0.03      4.86412
 Cr  202 -- I   207        0.27     -0.03      4.86412
 Cr  194 -- I   199        0.27     -0.03      4.86412
 Cr  210 -- I   212        0.27     -0.03      4.86413
 Cr  138 -- I   140        0.27     -0.03      4.86413
 Cr   90 -- I    92        0.27     -0.03      4.86413
 Cr  258 -- I   260        0.27     -0.03      4.86413
 Cr  234 -- I   236        0.27     -0.03      4.86413
 Cr   42 -- I    44        0.27     -0.03      4.86413
 Cr   66 -- I    68        0.27     -0.03      4.86413
 Cr  114 -- I   116        0.27     -0.03      4.86413
 Cr   18 -- I    20        0.27     -0.03      4.86413
 Cr  162 -- I   164        0.27     -0.03      4.86413
 Cr  282 -- I   284        0.27     -0.03      4.86413
 Cr  186 -- I   188        0.27     -0.03      4.86413
 Cr  194 -- I   196        0.27     -0.03      4.86413
 Cr  202 -- I   204        0.27     -0.03      4.86413
 Cr   50 -- I    52        0.27     -0.03      4.86413
 Cr   58 -- I    60        0.28     -0.03      4.86413
 Cr  122 -- I   124        0.28     -0.03      4.86413
 Cr  266 -- I   268        0.27     -0.03      4.86413
 Cr  274 -- I   276        0.27     -0.03      4.86413
 Cr  130 -- I   132        0.27     -0.03      4.86413
 Cr  154 -- I   156        0.28     -0.03      4.86413
 Cr  170 -- I   172        0.27     -0.03      4.86413
 Cr   34 -- I    36        0.28     -0.03      4.86413
 Cr   10 -- I    12        0.27     -0.03      4.86413
 Cr  146 -- I   148        0.27     -0.03      4.86413
 Cr    2 -- I     4        0.27     -0.03      4.86413
 Cr   26 -- I    28        0.27     -0.03      4.86413
 Cr  242 -- I   244        0.28     -0.03      4.86413
 Cr  218 -- I   220        0.27     -0.03      4.86413
 Cr  178 -- I   180        0.27     -0.03      4.86413
 Cr   74 -- I    76        0.27     -0.03      4.86413
 Cr   98 -- I   100        0.27     -0.03      4.86413
 Cr  250 -- I   252        0.28     -0.03      4.86413
 Cr  226 -- I   228        0.27     -0.03      4.86413
 Cr  106 -- I   108        0.27     -0.03      4.86413
 Cr   82 -- I    84        0.27     -0.03      4.86413
 Cr  153 -- I   159        0.28     -0.03      4.86414
 Cr  177 -- I   183        0.27     -0.03      4.86414
 Cr   41 -- I    47        0.28     -0.03      4.86414
 Cr  161 -- I   167        0.27     -0.03      4.86414
 Cr    9 -- I    15        0.28     -0.03      4.86414
 Cr  185 -- I   191        0.27     -0.03      4.86414
 Cr   33 -- I    39        0.28     -0.03      4.86414
 Cr   17 -- I    23        0.27     -0.03      4.86414
 Cr  113 -- I   119        0.28     -0.03      4.86414
 Cr   89 -- I    95        0.28     -0.03      4.86414
 Cr  233 -- I   239        0.27     -0.03      4.86414
 Cr  257 -- I   263        0.27     -0.03      4.86414
 Cr  249 -- I   255        0.28     -0.03      4.86414
 Cr  225 -- I   231        0.28     -0.03      4.86414
 Cr   81 -- I    87        0.28     -0.03      4.86414
 Cr  105 -- I   111        0.27     -0.03      4.86414
 Cr  209 -- I   215        0.27     -0.03      4.86414
 Cr   65 -- I    71        0.28     -0.03      4.86414
 Cr   57 -- I    63        0.28     -0.03      4.86414
 Cr  137 -- I   143        0.27     -0.03      4.86414
 Cr  201 -- I   207        0.28     -0.03      4.86414
 Cr  281 -- I   287        0.28     -0.03      4.86414
 Cr  129 -- I   135        0.27     -0.03      4.86414
 Cr  273 -- I   279        0.28     -0.03      4.86414
 Cr   73 -- I    79        0.27     -0.03      4.86414
 Cr  217 -- I   223        0.27     -0.03      4.86414
 Cr  145 -- I   151        0.27     -0.03      4.86414
 Cr    1 -- I     7        0.28     -0.03      4.86414
 Cr  121 -- I   127        0.27     -0.03      4.86414
 Cr  241 -- I   247        0.27     -0.03      4.86414
 Cr   97 -- I   103        0.27     -0.03      4.86414
 Cr  265 -- I   271        0.27     -0.03      4.86414
 Cr   49 -- I    55        0.27     -0.03      4.86414
 Cr   25 -- I    31        0.28     -0.03      4.86414
 Cr  169 -- I   175        0.28     -0.03      4.86414
 Cr  193 -- I   199        0.28     -0.03      4.86414
 Cr  193 -- I   196        0.28     -0.03      4.86414
 Cr   49 -- I    52        0.27     -0.03      4.86414
 Cr  265 -- I   268        0.28     -0.03      4.86414
 Cr  121 -- I   124        0.27     -0.03      4.86414
 Cr  257 -- I   260        0.28     -0.03      4.86414
 Cr  169 -- I   172        0.28     -0.03      4.86414
 Cr  145 -- I   148        0.27     -0.03      4.86414
 Cr   65 -- I    68        0.27     -0.03      4.86414
 Cr  137 -- I   140        0.27     -0.03      4.86414
 Cr  185 -- I   188        0.28     -0.03      4.86414
 Cr  281 -- I   284        0.28     -0.03      4.86414
 Cr  209 -- I   212        0.27     -0.03      4.86414
 Cr  161 -- I   164        0.27     -0.03      4.86414
 Cr    1 -- I     4        0.28     -0.03      4.86414
 Cr   41 -- I    44        0.28     -0.03      4.86414
 Cr  113 -- I   116        0.28     -0.03      4.86414
 Cr  241 -- I   244        0.27     -0.03      4.86414
 Cr   25 -- I    28        0.28     -0.03      4.86414
 Cr   17 -- I    20        0.27     -0.03      4.86414
 Cr   89 -- I    92        0.28     -0.03      4.86414
 Cr  217 -- I   220        0.28     -0.03      4.86414
 Cr  233 -- I   236        0.27     -0.03      4.86414
 Cr   97 -- I   100        0.27     -0.03      4.86414
 Cr   73 -- I    76        0.27     -0.03      4.86414
 Cr  273 -- I   276        0.28     -0.03      4.86414
 Cr  201 -- I   204        0.28     -0.03      4.86414
 Cr  129 -- I   132        0.27     -0.03      4.86414
 Cr   57 -- I    60        0.27     -0.03      4.86414
 Cr   81 -- I    84        0.28     -0.03      4.86414
 Cr  105 -- I   108        0.27     -0.03      4.86414
 Cr  249 -- I   252        0.28     -0.03      4.86414
 Cr  225 -- I   228        0.28     -0.03      4.86414
 Cr  153 -- I   156        0.28     -0.03      4.86414
 Cr   33 -- I    36        0.28     -0.03      4.86414
 Cr  177 -- I   180        0.27     -0.03      4.86414
 Cr    9 -- I    12        0.28     -0.03      4.86414
 I    27 -- Cr  114        0.27     -0.03      5.11128
 I     3 -- Cr   90        0.27     -0.03      5.11128
 I    51 -- Cr  138        0.27     -0.03      5.11128
 Cr  266 -- I   275        0.27     -0.03      5.11128
 Cr  122 -- I   131        0.28     -0.03      5.11128
 Cr   74 -- I    83        0.28     -0.03      5.11128
 Cr   98 -- I   107        0.27     -0.03      5.11128
 Cr  242 -- I   251        0.28     -0.03      5.11128
 Cr  218 -- I   227        0.27     -0.03      5.11128
 Cr  146 -- I   155        0.27     -0.03      5.11128
 Cr  170 -- I   179        0.27     -0.03      5.11128
 Cr   50 -- I    59        0.27     -0.03      5.11128
 Cr    2 -- I    11        0.27     -0.03      5.11128
 Cr   26 -- I    35        0.27     -0.03      5.11128
 Cr  194 -- I   203        0.27     -0.03      5.11128
 I   171 -- Cr  258        0.27     -0.03      5.11128
 I   195 -- Cr  282        0.27     -0.03      5.11128
 I   147 -- Cr  234        0.27     -0.03      5.11128
 Cr  194 -- I   197        0.27     -0.03      5.11128
 Cr  210 -- I   213        0.27     -0.03      5.11128
 Cr  250 -- I   253        0.28     -0.03      5.11128
 Cr  242 -- I   245        0.28     -0.03      5.11128
 Cr   50 -- I    53        0.27     -0.03      5.11128
 Cr  234 -- I   237        0.27     -0.03      5.11128
 Cr  226 -- I   229        0.27     -0.03      5.11128
 Cr  218 -- I   221        0.27     -0.03      5.11128
 Cr   26 -- I    29        0.27     -0.03      5.11128
 Cr  154 -- I   157        0.27     -0.03      5.11128
 Cr  146 -- I   149        0.27     -0.03      5.11128
 Cr  106 -- I   109        0.27     -0.03      5.11128
 Cr  282 -- I   285        0.27     -0.03      5.11128
 Cr    2 -- I     5        0.27     -0.03      5.11128
 Cr  122 -- I   125        0.27     -0.03      5.11128
 Cr  130 -- I   133        0.27     -0.03      5.11128
 Cr   10 -- I    13        0.27     -0.03      5.11128
 Cr   58 -- I    61        0.28     -0.03      5.11128
 Cr   42 -- I    45        0.27     -0.03      5.11128
 Cr   82 -- I    85        0.27     -0.03      5.11128
 Cr   34 -- I    37        0.28     -0.03      5.11128
 Cr   18 -- I    21        0.27     -0.03      5.11128
 Cr  138 -- I   141        0.27     -0.03      5.11128
 Cr   98 -- I   101        0.27     -0.03      5.11128
 Cr   90 -- I    93        0.27     -0.03      5.11128
 Cr  114 -- I   117        0.27     -0.03      5.11128
 Cr   66 -- I    69        0.27     -0.03      5.11128
 Cr  202 -- I   205        0.27     -0.03      5.11128
 Cr  170 -- I   173        0.27     -0.03      5.11128
 Cr   74 -- I    77        0.27     -0.03      5.11128
 Cr  274 -- I   277        0.27     -0.03      5.11128
 Cr  162 -- I   165        0.27     -0.03      5.11128
 Cr  266 -- I   269        0.27     -0.03      5.11128
 Cr  178 -- I   181        0.27     -0.03      5.11128
 Cr  258 -- I   261        0.27     -0.03      5.11128
 Cr  186 -- I   189        0.27     -0.03      5.11128
 Cr  186 -- I   243        0.28     -0.03      5.11128
 Cr  210 -- I   267        0.27     -0.03      5.11128
 Cr  162 -- I   219        0.27     -0.03      5.11128
 Cr  274 -- I   283        0.27     -0.03      5.11128
 Cr  130 -- I   139        0.27     -0.03      5.11128
 Cr   82 -- I    91        0.27     -0.03      5.11128
 Cr  106 -- I   115        0.27     -0.03      5.11128
 Cr   34 -- I    43        0.28     -0.03      5.11128
 Cr   58 -- I    67        0.28     -0.03      5.11128
 Cr  226 -- I   235        0.27     -0.03      5.11128
 Cr  202 -- I   211        0.27     -0.03      5.11128
 Cr  178 -- I   187        0.28     -0.03      5.11128
 Cr   10 -- I    19        0.27     -0.03      5.11128
 Cr  154 -- I   163        0.27     -0.03      5.11128
 Cr  250 -- I   259        0.28     -0.03      5.11128
 Cr   18 -- I    75        0.27     -0.03      5.11128
 Cr   66 -- I   123        0.27     -0.03      5.11128
 Cr   42 -- I    99        0.27     -0.03      5.11128
 Cr  234 -- I   240        0.27     -0.03      5.11128
 Cr  138 -- I   144        0.27     -0.03      5.11128
 Cr  282 -- I   288        0.27     -0.03      5.11128
 Cr  258 -- I   264        0.27     -0.03      5.11128
 Cr  114 -- I   120        0.28     -0.03      5.11128
 Cr   90 -- I    96        0.28     -0.03      5.11128
 Cr  242 -- I   248        0.28     -0.03      5.11128
 Cr  122 -- I   128        0.28     -0.03      5.11128
 Cr  218 -- I   224        0.27     -0.03      5.11128
 Cr  194 -- I   200        0.27     -0.03      5.11128
 Cr   98 -- I   104        0.27     -0.03      5.11128
 Cr   74 -- I    80        0.27     -0.03      5.11128
 Cr  210 -- I   216        0.27     -0.03      5.11128
 Cr   42 -- I    48        0.27     -0.03      5.11128
 Cr   66 -- I    72        0.27     -0.03      5.11128
 Cr   50 -- I    56        0.28     -0.03      5.11128
 Cr   18 -- I    24        0.27     -0.03      5.11128
 Cr   26 -- I    32        0.28     -0.03      5.11128
 Cr   10 -- I    16        0.28     -0.03      5.11128
 Cr  250 -- I   256        0.28     -0.03      5.11128
 Cr    2 -- I     8        0.28     -0.03      5.11128
 Cr   34 -- I    40        0.28     -0.03      5.11128
 Cr  146 -- I   152        0.28     -0.03      5.11128
 Cr  266 -- I   272        0.28     -0.03      5.11128
 Cr  154 -- I   160        0.28     -0.03      5.11128
 Cr   58 -- I    64        0.28     -0.03      5.11128
 Cr  202 -- I   208        0.27     -0.03      5.11128
 Cr  162 -- I   168        0.27     -0.03      5.11128
 Cr  170 -- I   176        0.27     -0.03      5.11128
 Cr  178 -- I   184        0.28     -0.03      5.11128
 Cr  130 -- I   136        0.28     -0.03      5.11128
 Cr  226 -- I   232        0.27     -0.03      5.11128
 Cr  106 -- I   112        0.27     -0.03      5.11128
 Cr   82 -- I    88        0.28     -0.03      5.11128
 Cr  186 -- I   192        0.27     -0.03      5.11128
 Cr  274 -- I   280        0.27     -0.03      5.11128
 Cr  130 -- I   142        0.27     -0.03      5.11128
 Cr  274 -- I   286        0.27     -0.03      5.11128
 Cr  250 -- I   262        0.28     -0.03      5.11128
 Cr  226 -- I   238        0.27     -0.03      5.11128
 Cr  106 -- I   118        0.27     -0.03      5.11128
 Cr   82 -- I    94        0.27     -0.03      5.11128
 Cr  266 -- I   278        0.27     -0.03      5.11128
 Cr  242 -- I   254        0.28     -0.03      5.11128
 Cr  218 -- I   230        0.27     -0.03      5.11128
 Cr  194 -- I   206        0.27     -0.03      5.11128
 Cr  122 -- I   134        0.27     -0.03      5.11128
 Cr   34 -- I    46        0.28     -0.03      5.11128
 Cr  154 -- I   166        0.27     -0.03      5.11128
 Cr   26 -- I    38        0.27     -0.03      5.11128
 Cr   10 -- I    22        0.27     -0.03      5.11128
 Cr   58 -- I    70        0.28     -0.03      5.11128
 Cr   50 -- I    62        0.27     -0.03      5.11128
 Cr    2 -- I    14        0.27     -0.03      5.11128
 Cr  170 -- I   182        0.27     -0.03      5.11128
 Cr   74 -- I    86        0.27     -0.03      5.11128
 Cr   98 -- I   110        0.27     -0.03      5.11128
 Cr  146 -- I   158        0.27     -0.03      5.11128
 Cr  202 -- I   214        0.27     -0.03      5.11128
 Cr  178 -- I   190        0.27     -0.03      5.11128
 I   198 -- Cr  282        0.27     -0.03      5.11128
 I   150 -- Cr  234        0.27     -0.03      5.11128
 I   174 -- Cr  258        0.27     -0.03      5.11128
 I    54 -- Cr  138        0.27     -0.03      5.11128
 I     6 -- Cr   90        0.27     -0.03      5.11128
 I    30 -- Cr  114        0.27     -0.03      5.11128
 Cr   18 -- I    78        0.27     -0.03      5.11128
 Cr   42 -- I   102        0.27     -0.03      5.11128
 Cr   66 -- I   126        0.27     -0.03      5.11128
 Cr  210 -- I   270        0.27     -0.03      5.11128
 Cr  162 -- I   222        0.27     -0.03      5.11128
 Cr  186 -- I   246        0.27     -0.03      5.11128
 Cr  265 -- I   270        0.27     -0.03      5.11131
 Cr  241 -- I   246        0.27     -0.03      5.11131
 Cr  217 -- I   222        0.28     -0.03      5.11131
 Cr   97 -- I   102        0.27     -0.03      5.11131
 Cr   73 -- I    78        0.27     -0.03      5.11131
 Cr  121 -- I   126        0.27     -0.03      5.11131
 Cr  249 -- I   280        0.28     -0.03      5.11131
 Cr  185 -- I   216        0.27     -0.03      5.11131
 Cr  161 -- I   192        0.27     -0.03      5.11131
 Cr  153 -- I   184        0.27     -0.03      5.11131
 Cr  177 -- I   208        0.27     -0.03      5.11131
 Cr   89 -- I   120        0.28     -0.03      5.11131
 Cr   33 -- I    64        0.27     -0.03      5.11131
 Cr  129 -- I   232        0.27     -0.03      5.11131
 Cr  113 -- I   144        0.27     -0.03      5.11131
 Cr  233 -- I   264        0.28     -0.03      5.11131
 Cr   41 -- I    72        0.28     -0.03      5.11131
 Cr   17 -- I    48        0.27     -0.03      5.11131
 Cr  105 -- I   136        0.27     -0.03      5.11131
 Cr   81 -- I   112        0.27     -0.03      5.11131
 Cr  137 -- I   240        0.27     -0.03      5.11131
 Cr    9 -- I    40        0.27     -0.03      5.11131
 Cr  225 -- I   256        0.28     -0.03      5.11131
 Cr  257 -- I   288        0.28     -0.03      5.11131
 Cr  145 -- I   176        0.27     -0.03      5.11131
 Cr  121 -- I   224        0.27     -0.03      5.11131
 Cr  241 -- I   272        0.27     -0.03      5.11131
 Cr   73 -- I   104        0.27     -0.03      5.11131
 Cr    1 -- I    32        0.27     -0.03      5.11131
 Cr   97 -- I   128        0.27     -0.03      5.11131
 Cr   25 -- I    56        0.27     -0.03      5.11131
 Cr  169 -- I   200        0.28     -0.03      5.11131
 Cr  217 -- I   248        0.28     -0.03      5.11131
 Cr  273 -- I   278        0.27     -0.03      5.11131
 Cr   81 -- I    86        0.27     -0.03      5.11131
 Cr  105 -- I   110        0.27     -0.03      5.11131
 Cr  281 -- I   286        0.28     -0.03      5.11131
 Cr  129 -- I   134        0.27     -0.03      5.11131
 Cr  249 -- I   254        0.28     -0.03      5.11131
 Cr  225 -- I   230        0.28     -0.03      5.11131
 Cr  137 -- I   142        0.27     -0.03      5.11131
 Cr  257 -- I   262        0.28     -0.03      5.11131
 Cr   65 -- I    70        0.27     -0.03      5.11131
[...]
*    Cr    145     -0.00005389   0.00002979  -0.00000205 *
*    Cr    146      0.00000673  -0.00004304  -0.00000097 *
*    I     147      0.00267426   0.00001818  -0.00482079 *
*    I     148     -0.00131749  -0.00228811  -0.00482757 *
*    I     149     -0.00132718   0.00231459  -0.00481984 *
*    I     150     -0.00266912  -0.00001202   0.00482603 *
*    I     151      0.00132241   0.00228613   0.00482703 *
*    I     152      0.00131487  -0.00232057   0.00482099 *
*    Cr    153      0.00000673   0.00000703  -0.00000110 *
*    Cr    154     -0.00001146  -0.00001421  -0.00000149 *
*    I     155      0.00267371   0.00002413  -0.00482525 *
*    I     156     -0.00131741  -0.00228765  -0.00482502 *
*    I     157     -0.00132667   0.00231122  -0.00481997 *
*    I     158     -0.00267095  -0.00001047   0.00482399 *
*    I     159      0.00132166   0.00228334   0.00482757 *
*    I     160      0.00130998  -0.00231855   0.00481880 *
*    Cr    161      0.00001098  -0.00000466  -0.00000096 *
*    Cr    162     -0.00003920   0.00001879   0.00000000 *
*    I     163      0.00266826   0.00002033  -0.00482502 *
*    I     164     -0.00131513  -0.00228994  -0.00482563 *
*    I     165     -0.00132740   0.00230856  -0.00481745 *
*    I     166     -0.00267078  -0.00001387   0.00482647 *
*    I     167      0.00132555   0.00228685   0.00482681 *
*    I     168      0.00130948  -0.00232355   0.00481882 *
*    Cr    169     -0.00008536   0.00004110  -0.00000423 *
*    Cr    170     -0.00004937  -0.00001385  -0.00000208 *
*    I     171      0.00267136   0.00002898  -0.00481947 *
*    I     172     -0.00130746  -0.00228667  -0.00482178 *
*    I     173     -0.00132179   0.00231946  -0.00482726 *
*    I     174     -0.00266152  -0.00000553   0.00482488 *
*    I     175      0.00132639   0.00227980   0.00482275 *
*    I     176      0.00132160  -0.00232226   0.00482502 *
*    Cr    177     -0.00006686   0.00003903  -0.00000402 *
*    Cr    178      0.00002381  -0.00001292  -0.00000324 *
*    I     179      0.00267121   0.00002823  -0.00481724 *
*    I     180     -0.00130784  -0.00228766  -0.00482038 *
*    I     181     -0.00132217   0.00231695  -0.00482501 *
*    I     182     -0.00266266  -0.00000551   0.00482265 *
*    I     183      0.00132754   0.00227697   0.00482139 *
*    I     184      0.00131720  -0.00232521   0.00482660 *
*    Cr    185     -0.00000142  -0.00000993  -0.00000064 *
*    Cr    186      0.00000682   0.00001827  -0.00000160 *
*    I     187      0.00266990   0.00001693  -0.00482275 *
*    I     188     -0.00131511  -0.00228491  -0.00482632 *
*    I     189     -0.00132493   0.00231774  -0.00482301 *
*    I     190     -0.00267111  -0.00001570   0.00482738 *
*    I     191      0.00132338   0.00228480   0.00482781 *
*    I     192      0.00131764  -0.00232363   0.00482792 *
*    Cr    193     -0.00000861   0.00000350   0.00000017 *
*    Cr    194     -0.00001908   0.00000894  -0.00000363 *
*    I     195      0.00266716   0.00002393  -0.00482064 *
*    I     196     -0.00130942  -0.00228916  -0.00482442 *
*    I     197     -0.00132467   0.00230963  -0.00482504 *
*    I     198     -0.00266679  -0.00000856   0.00482628 *
*    I     199      0.00132715   0.00228092   0.00482532 *
*    I     200      0.00131142  -0.00232546   0.00482197 *
*    Cr    201     -0.00007943   0.00005151  -0.00000159 *
*    Cr    202     -0.00001275   0.00004919  -0.00000200 *
*    I     203      0.00266760   0.00002385  -0.00481889 *
*    I     204     -0.00130986  -0.00228834  -0.00482209 *
*    I     205     -0.00132972   0.00230577  -0.00481861 *
*    I     206     -0.00266472  -0.00000998   0.00482696 *
*    I     207      0.00132548   0.00227764   0.00482260 *
*    I     208      0.00131009  -0.00232838   0.00481947 *
*    Cr    209     -0.00005316   0.00003125  -0.00000216 *
*    Cr    210      0.00003635   0.00002148  -0.00000036 *
*    I     211      0.00266612   0.00002353  -0.00481501 *
*    I     212     -0.00130860  -0.00228962  -0.00481819 *
*    I     213     -0.00132802   0.00231866  -0.00482303 *
*    I     214     -0.00266186  -0.00000400   0.00481835 *
*    I     215      0.00132902   0.00227731   0.00481985 *
*    I     216      0.00131946  -0.00232301   0.00482502 *
*    Cr    217     -0.00000294  -0.00006024  -0.00000233 *
*    Cr    218     -0.00005505  -0.00003199  -0.00000155 *
*    I     219      0.00266565   0.00002506  -0.00481668 *
*    I     220     -0.00129066  -0.00228810  -0.00482203 *
*    I     221     -0.00072065   0.00319996  -0.00555305 *
*    I     222     -0.00266368  -0.00000524   0.00481900 *
*    I     223      0.00132979   0.00228415   0.00481377 *
*    I     224      0.00238673  -0.00223788   0.00555704 *
*    Cr    225     -0.00000943  -0.00005924  -0.00000172 *
*    Cr    226     -0.00006234  -0.00003397  -0.00000356 *
*    I     227      0.00266612   0.00002370  -0.00481085 *
*    I     228     -0.00130611  -0.00228499  -0.00481989 *
*    I     229     -0.00132854   0.00230935  -0.00482011 *
*    I     230     -0.00265089   0.00001284   0.00482066 *
*    I     231      0.00132936   0.00227964   0.00481964 *
*    I     232      0.00131165  -0.00231890   0.00482091 *
*    Cr    233     -0.00005142   0.00002056  -0.00000179 *
*    Cr    234     -0.00005206  -0.00002284  -0.00000020 *
*    I     235      0.00267306   0.00001767  -0.00482270 *
*    I     236     -0.00131642  -0.00228680  -0.00482738 *
*    I     237     -0.00132678   0.00231323  -0.00482068 *
*    I     238     -0.00266571  -0.00000780   0.00482780 *
*    I     239      0.00132413   0.00228545   0.00482694 *
*    I     240      0.00131748  -0.00231810   0.00482035 *
*    Cr    241      0.00000252  -0.00007038  -0.00000357 *
*    Cr    242     -0.00004851  -0.00003644  -0.00000201 *
*    I     243      0.00266490   0.00002011  -0.00482065 *
*    I     244     -0.00131722  -0.00227785  -0.00481694 *
*    I     245     -0.00131952   0.00231074  -0.00480861 *
*    I     246     -0.00266542  -0.00000851   0.00482286 *
*    I     247      0.00131718   0.00228402   0.00481550 *
*    I     248      0.00131596  -0.00230936   0.00481173 *
*    Cr    249     -0.00000297  -0.00008374  -0.00000143 *
*    Cr    250     -0.00009001  -0.00005560  -0.00000100 *
*    I     251      0.00266102   0.00001435  -0.00481208 *
*    I     252     -0.00131347  -0.00227497  -0.00481768 *
*    I     253     -0.00131880   0.00230913  -0.00481037 *
*    I     254     -0.00265563  -0.00001149   0.00481197 *
*    I     255      0.00131771   0.00228287   0.00481457 *
*    I     256      0.00131676  -0.00230510   0.00481037 *
*    Cr    257     -0.00001356  -0.00001022  -0.00000293 *
*    Cr    258     -0.00007878  -0.00003552  -0.00000409 *
*    I     259      0.00266384   0.00001441  -0.00481243 *
*    I     260     -0.00130802  -0.00228559  -0.00482650 *
*    I     261     -0.00132111   0.00231668  -0.00482627 *
*    I     262     -0.00265781  -0.00001594   0.00481655 *
*    I     263      0.00132639   0.00228273   0.00482278 *
*    I     264      0.00131960  -0.00232034   0.00482526 *
*    Cr    265      0.00000726  -0.00005667  -0.00000069 *
*    Cr    266      0.00004540  -0.00003610  -0.00000188 *
*    I     267      0.00266901   0.00001687  -0.00482430 *
*    I     268     -0.00131736  -0.00228663  -0.00482785 *
*    I     269     -0.00132946   0.00231640  -0.00481894 *
*    I     270     -0.00266840  -0.00000938   0.00482410 *
*    I     271      0.00132267   0.00228646   0.00482714 *
*    I     272      0.00131606  -0.00231642   0.00482404 *
*    Cr    273      0.00000942  -0.00008347  -0.00000428 *
*    Cr    274     -0.00000226  -0.00001615  -0.00000280 *
*    I     275      0.00266279   0.00002902  -0.00481938 *
*    I     276     -0.00130624  -0.00228545  -0.00482476 *
*    I     277     -0.00132941   0.00231312  -0.00481975 *
*    I     278     -0.00266506  -0.00000329   0.00481830 *
*    I     279      0.00133116   0.00227868   0.00482105 *
*    I     280      0.00130982  -0.00231809   0.00482377 *
*    Cr    281      0.00000123  -0.00001351  -0.00000039 *
*    Cr    282     -0.00001191  -0.00000511  -0.00000007 *
*    I     283      0.00266790   0.00002833  -0.00482338 *
*    I     284     -0.00130980  -0.00228745  -0.00482513 *
*    I     285     -0.00132525   0.00231528  -0.00482341 *
*    I     286     -0.00266623  -0.00000529   0.00482287 *
*    I     287      0.00132555   0.00227745   0.00482360 *
*    I     288      0.00131298  -0.00232075   0.00482265 *
*                                                        *
**********************************************************
* TOTAL:            0.00000000  -0.00000000   0.00000000 *
**********************************************************
 
 
***********************************************************
********** Summary of Forces (values in Eh/a) *************
*                                                         *
* ---------------------- Minimum ------------------------ *
* Atom:       122, |F|min =    0.00000910                 *
* Components:     Fx|min       Fy|min       Fz|min        *
*              -0.00000690   0.00000587  -0.00000086      *
*                                                         *
* ---------------------- Maximum ------------------------ *
* Atom:       126, |F|max =    0.00645255                 *
* Components:     Fx|max       Fy|max       Fz|max        *
*              -0.00313299  -0.00097894   0.00555531      *
*                                                         *
* ---------------- Root Mean Square Force --------------- *
*                  |F|rms =    0.00479122                 *
* Components:     Fx|rms       Fy|rms       Fz|rms        *
*               0.00163846   0.00163788   0.00419388      *
***********************************************************
 

------------------------------ TIMING INFORMATION ------------------------------
AVERAGE TIME:   31817.481s on     56 proc(s)                                    
TOTAL TIME:     31817.482s on     56 proc(s)                                    
==================== AVERAGE TIMINGS FROM ALL PROCS (CUMULATIVE) =====================
|| TAG                                         #calls     cpu time   %total  Gflops ||
|| hubbard_species_proj                       :     1        0.00s   0.000%  ------ ||
|| hubbard_ngwf_on_grid                       :     1        0.00s   0.000%  ------ ||
|| linalg_invert_sym_matrix                   :     4        0.01s   0.000%  ------ || (1 procs only)
|| sw_bessel_init_cpu                         :     1        0.01s   0.000%  ------ || (1 procs only)
|| hubbard_tensorial_correction               :     2        0.00s   0.000%  ------ ||
|| hash_table_free                            :    68        0.00s   0.000%  ------ ||
|| hubbard_projector_character                :     1        0.00s   0.000%  ------ ||
|| hubbard_ngwf_select                        :     1        0.00s   0.000%  ------ ||
|| density_fftbox_interp_mult_imbal           : 22638        0.00s   0.000%  ------ ||
|| ewald_calculate_forces_realspace           :     1        0.01s   0.000%  ------ ||
|| sparse_blacstospam3_real_fast_imbal        :    24        0.01s   0.000%  ------ ||
|| sparse_spam3toblacs_real_fast_B2           :   560        0.02s   0.000%  ------ ||
|| linalg_dgemv                               :    44        0.02s   0.000%  ------ ||
|| onetep.F90 final imbalance                 :     1        0.03s   0.000%  ------ ||
|| sparse_spam3toblacs_real_fast_imbal        :    10        0.03s   0.000%  ------ ||
|| ewald_calculate_energy                     :     1        0.04s   0.000%  ------ ||
|| sparse_set_to_garbage                      :  1488        0.07s   0.000%  ------ ||
|| paw_tcore_hartree_on_grid                  :     1        0.09s   0.000%  ------ ||
|| onetep.F90 main loop imbalance             :     1        0.10s   0.000%  ------ ||
|| ewald_calculate_forces_recipspace          :     1        0.11s   0.000%  ------ ||
|| restart_hamiltonian_write                  :     1        0.11s   0.000%  ------ ||
|| sw_init                                    :   684        0.11s   0.000%  ------ ||
|| pseudo_make_structure_factor               :     1        0.15s   0.000%  ------ ||
|| paw_dij_hartree                            :   375        0.16s   0.000%  ------ ||
|| restart_kernel_read                        :     1        0.24s   0.001%  ------ ||
|| ewald_calculate_forces                     :     1        0.25s   0.001%  ------ ||
|| sparse_spam3toblacs_real_fast_B1           :   560        0.30s   0.001%  ------ ||
|| hubbard_projection_mtx                     :    70        0.34s   0.001%  ------ ||
|| augmentation_density_forces                :     1        0.37s   0.001%  ------ ||
|| sparse_init                                :     1        0.38s   0.001%  ------ ||
|| sparse_spam3toblacs_real_fast              :    10        0.41s   0.001%  ------ ||
|| paw_tcore_hartree_calc_forces              :     1        0.71s   0.002%  ------ ||
|| dense_eigensolve                           :     2        0.75s   0.002%  ------ ||
|| basis_extract_function_from_box            :  4435        0.96s   0.003%  ------ ||
|| sparse_blacstospam3_real_fast              :    24        1.37s   0.004%  ------ ||
|| paw_tcore_density                          :     1        1.76s   0.006%  ------ ||
|| hubbard_projector_ham                      :   167        1.91s   0.006%  ------ ||
|| paw_dataset_init                           :     2        2.15s   0.007%  ------ ||
|| paw_nlcc_calculate_forces                  :     1        2.39s   0.008%  ------ ||
|| hubbard_ham_matrix                         :   167        2.50s   0.008%  ------ ||
|| paw_sphere_density_on_grid                 :     1        2.77s   0.009%  ------ ||
|| nonsc_forces_ngwfs_calc                    :     1        2.90s   0.009%  ------ ||
|| ngwfs_initialise_from_radial               :     2        2.90s   0.009%  ------ ||
|| restart_kernel_write                       :    33        3.25s   0.010%  ------ ||
|| hubbard_energy_total                       :   339        5.05s   0.016%  ------ ||
|| paw_species_calc_proj_prec_mat             :     1        5.88s   0.018%  ------ ||
|| restart_ngwfs_tightbox_input               :     1        6.19s   0.019%  ------ ||
|| sparse_embed_array_hotelling_invert        :    68        9.36s   0.029%  ------ ||
|| hubbard_calculate_forces                   :     1       11.23s   0.035%  ------ ||
|| integrals_grad_spam3                       :     4       14.07s   0.044%  ------ ||
|| sparse_trace                               : 11312       20.18s   0.063%  ------ ||
|| energy_and_force_init_cell                 :     1       20.66s   0.065%  ------ ||
|| kernel_purify                              :   537       26.13s   0.082%  ------ ||
|| kernel_fix                                 :   165       26.65s   0.084%  ------ ||
|| hubbard_projector_update                   :     1       30.54s   0.096%  ------ ||
|| ngwf_gradient_coeffs                       :    34       31.14s   0.098%  ------ ||
|| fourier_filter_cell                        :   404       32.73s   0.103% 137.026 ||
|| eigenstates_calculate                      :     1       33.28s   0.105%  ------ ||
|| lnv_gradient_norm                          :   165       34.59s   0.109%  ------ ||
|| hamiltonian_energy_components              :     1       37.17s   0.117%  ------ ||
|| basis_copy_function_to_box                 : 40114       40.33s   0.127%  ------ ||
|| projectors_func_grad_ovlp_box_spam3        :     6       40.78s   0.128%  ------ ||
|| aug_nl_calculate_forces                    :     1       41.84s   0.132%  ------ ||
|| hartree_on_grid_single                     :   341       45.36s   0.143%  ------ ||
|| fourier_apply_box_pair                     :  6638       50.78s   0.160%  1.777k ||
|| fourier_interpolate_cell                   :   686       56.42s   0.177% 134.990 ||
|| augmentation_screen_dij_spam3              :   340      111.66s   0.351%  ------ ||
|| forces_calculate                           :     1      128.31s   0.403%  ------ ||
|| cell_grid_deposit_box_real                 : 27564      136.25s   0.428%  ------ ||
|| aug_nonlocal_mat_spam3_embed_array         :   340      174.53s   0.549%  ------ ||
|| sparse_product                             : 23068      180.91s   0.569%  ------ ||
|| paw_dij_xc                                 :   375      183.31s   0.576%  ------ ||
|| fourier_apply_cell_backward                :  3070      202.75s   0.637% 151.253 ||
|| fourier_apply_cell_forward                 :  3070      216.55s   0.681% 141.615 ||
|| fourier_filter                             :  7672      236.81s   0.744%  ------ ||
|| aug_density_on_grid_spam3                  :   343      247.87s   0.779%  ------ ||
|| restart_ngwfs_tightbox_output              :    33      275.77s   0.867%  ------ ||
|| cell_grid_extract_box_real                 : 17746      302.02s   0.949%  ------ ||
|| projectors_init_fftbox_recip               :   897      320.40s   1.007%  ------ ||
|| fourier_interpolate                        :  7672      356.62s   1.121%  ------ ||
|| function_ops_brappd_ketppd_spam3           :   276      436.93s   1.373%  ------ ||
|| properties_calculate                       :     1      459.34s   1.444%  ------ ||
|| xc_energy_potential                        :   341      463.88s   1.458%  ------ ||
|| density_fftbox_deposit_to_cell             : 22638      923.55s   2.903%  ------ ||
|| projectors_func_ovlp_box_spam3             :   278     1069.52s   3.361%  ------ ||
|| integrals_kinetic_spam3                    :   136     1170.27s   3.678%  ------ ||
|| basis_dot_function_with_box                : 14.24M    1558.74s   4.899%  ------ ||
|| potential_apply_to_ngwf_batch              :  1004     1757.41s   5.523%  ------ ||
|| projectors_gradient_batch                  :   408     2212.08s   6.952%  ------ ||
|| fourier_apply_box                          : 125.3k    2990.67s   9.399%  1.875k ||
|| integrals_locpot_mat_els_batch             :  1004     3038.69s   9.550%  ------ ||
|| fourier_interpolate_product                : 22050     3213.58s  10.100%  ------ ||
|| density_fftbox_interpolate_multiply        : 22638     3388.12s  10.649%  ------ ||
|| basis_add_function_to_box                  : 28.23M    3477.40s  10.929%  ------ ||
|| projectors_grad_precond_batch              :   204     4361.06s  13.706%  ------ ||
|| integrals_locpot_dbl_grid                  :   336     4801.65s  15.091%  ------ ||
|| density_batch_interp_deposit               :  2058     5379.21s  16.906%  ------ ||
|| density_batch_row_sums                     :  2058     6053.84s  19.027%  ------ ||
|| ngwf_gradient_build_batch                  :   204     7275.33s  22.866%  ------ ||
|| ngwf_gradient_batch                        :   204    10429.49s  32.779%  ------ ||
|| ngwf_gradient_lnv                          :    34    10594.05s  33.296%  ------ ||
|| density_on_dbl_grid                        :   686    11516.32s  36.195%  ------ ||
|| hamiltonian_lhxc_calculate                 :   339    12388.58s  38.936%  ------ ||
|| lnv_denskernel_optimise_cg                 :    33    16122.27s  50.671%  ------ ||
|| ngwf_cg_optimise                           :     1    31110.59s  97.778%  ------ ||
|| energy_and_forces                          :     1    31795.34s  99.930%  ------ ||
|| total_time                                 :     1    31817.48s 100.000%  ------ ||
======================================================================================
Overhead of generating timer report: 
- 0 ms averaging over threads,
- 5 ms ensuring consistency across MPI ranks,
- 52 ms printing in order.

Job completed: 22-10-2024 12:05 (+0100)

onetep_launcher: ONETEP seems to have finished correctly (zero exit code).
                 Brought to you by PID 243417 on nid001054.
