==================================================================================
It's Mon 21 Oct 2024 04:13:23 PM BST.
*** Starting onetep_launcher (node nid004992, PIDs 130558 130559 130560 130561 130562 130563 130564 130565)...
    - ONETEP arguments: U_0.1_0.dat
    - Current directory: /mnt/lustre/a2fs-work3/work/e89/e89/phsmea/U_det_2/U_0.1_0
    - Launcher executable directory: /mnt/lustre/a2fs-work3/work/e89/e89/phsmea/U_det_2/U_0.1_0
    - (-e) ONETEP executable specified through command-line: /work/e89/e89/phsmea/onetep.archer2_2024_cray
      ... trying /work/e89/e89/phsmea/onetep.archer2_2024_cray
          -> looks OK
*** Setting up environment...
    - (-s) Process stack size: unlimited
    - (-t) OMP_NUM_THREADS: 16
    - (-o) OMP_STACKSIZE: 64M
    - (-c) Maximum core file size: 2048000
    - (-d) decfort_dump_flag: n
    - (-m) I_MPI_OFA_TRANSLATION_CACHE: 0
    - (-m) I_MPI_DAPL_TRANSLATION_CACHE: 0
    - (-m) I_MPI_DAPL_UD_TRANSLATION_CACHE: 0
*** Starting ONETEP...
    - /work/e89/e89/phsmea/onetep.archer2_2024_cray U_0.1_0.dat
=================================================================================
_________________________________________________________________________________
 +---------------------------------------------------------------+
 |                                                               |
 |        ####### #     # ####### ####### ####### ######         |
 |        #     # ##    # #          #    #       #     #        |
 |        #     # # #   # #          #    #       #     #        |
 |        #     # #  #  # #####      #    #####   ######         |
 |        #     # #   # # #          #    #       #              |
 |        #     # #    ## #          #    #       #              |
 |        ####### #     # #######    #    ####### #              |
 |                                                               |
 |        Linear-Scaling Ab Initio Total Energy Program          |
 |                                                               |
 |          Release for academic collaborators of ODG            |
 |                                             Version 7.3.0     |
 | Remote: git@github.com:Miesaz/onetep_mea.git                  |
 | Local branch: master                                          |
 | Commit ID: 4af45e89288c8df5499704252eec3e032ee3d0c8           |
 | Date: Tue Aug 6 11:28:44 2024 +0100                           |
 | Working tree clean                                            |
 |                                                               |
 +---------------------------------------------------------------+
 |                                                               |
 |  Authors:                                                     |
 |  Jacek Dziedzic, Peter D. Haynes, Nicholas D. M. Hine,        |
 |  Arash A. Mostofi, Mike C. Payne and Chris-Kriton Skylaris    |
 |                                                               |
 |  Contributors:                                                |
 |  J. Aarons, L. Andrinopoulos, P. W. Avraam, R. A. Bell,       |
 |  A. Bhandari, G. A. Bramley, R. J. Charlton, S. J. Clark,     |
 |  R. J. Clements, G. C. Constantinescu, F. Corsetti,           |
 |  N. Corsini, O. Dieguez, S. M. M. Dubois, K. K. B. Duff,      |
 |  J. M. Escartin, M. Escobar Azor, A. Greco,                   |
 |  H. Helal, Q. O. Hill, L. P. Lee, J.-H. Li,                   |
 |  T. Li, E. B. Linscott, G. Moynihan, D. D. O`Regan,           |
 |  O. K. Okan, E. Parkinson, M. J. S. Phipps,                   |
 |  C. J. Pickard, J. C. A. Prentice, M. I. J. Probert,          |
 |  L. E. Ratcliff, M. Robinson, A. Ruiz Serrano,                |
 |  M. dos Santos Dias, J. S. Spencer, E. W. Tait,               |
 |  G. Teobaldi, D. Turban, V. Vitale, K. A. Wilkinson,          |
 |  C. Weber, J. C. Womack, Chengcheng Xiao, N. Yeung,           |
 |  and T. J. Zuehlsdorff.                                       |
 |                                                               |
 |                                   Copyright (c) 2004-2024     |
 |                                                               |
 |  Please cite:                                                 |
 |  "The ONETEP linear-scaling density functional theory program"|
 |   J. Chem. Phys. 152(17) 174111 (2020)                        |
 |                                                               |
 |          in all publications arising from your use of ONETEP. |
 |                                                               |
 +---------------------------------------------------------------+
 |                                                               |
 |   ONETEP is based on developments described in the following  |
 |   publications:                                               |
 |                                                               |
 |  "Nonorthogonal generalized Wannier function pseudopotential  |
 |   plane-wave method".                                         |
 |   C.-K. Skylaris, A. A. Mostofi, P. D. Haynes, O. Dieguez,    |
 |   M. C. Payne.                                                |
 |   Phys. Rev. B 66 035119 (2002).                              |
 |                                                               |
 |  "Preconditioned iterative minimization for linear-scaling    |
 |   electronic structure calculations".                         |
 |   A. A. Mostofi, P. D. Haynes, C.-K. Skylaris, M. C. Payne.   |
 |   J. Chem. Phys. 119(17), pp.8842-8848 (2003).                |
 |                                                               |
 |  "Total-energy calculations on a real space grid with         |
 |   localized functions and a plane-wave basis".                |
 |   A. A. Mostofi, C.-K. Skylaris, P. D. Haynes, M. C. Payne.   |
 |   Comput. Phys. Commun. 147, pp.788-802 (2002).               |
 |                                                               |
 |  "Accurate kinetic energy evaluation in electronic structure  |
 |   calculations with localized functions on real space grids"  |
 |   C.-K. Skylaris, A. A. Mostofi, P. D. Haynes, C. J. Pickard, |
 |   M. C. Payne.                                                |
 |   Comput. Phys. Commun. 140, pp.315-322 (2001).               |
 |                                                               |
 |  "Accurate ionic forces and geometry optimization in linear-  |
 |   scaling density-functional theory with local orbitals"      |
 |   N. D. M. Hine, M. Robinson, P. D. Haynes, C.-K. Skylaris,   |
 |   M. C. Payne, and A. A. Mostofi.                             |
 |   Phys. Rev. B 83 195102 (2011).                              |
 |                                                               |
 +---------------------------------------------------------------+

Job started: 21-10-2024 16:13 (+0100)
 
Reading parameters from file "U_0.1_0.dat" ...
WARNING in get_rundat: hubbard_calculating_u is TRUE, so do_properties will be
overridden to TRUE.
... done

If your calculation crashes here, before "Checking processes and threads..."
is displayed, then your stack size is insufficient.
If so, use "ulimit -s unlimited" at runtime.
You can disable this check with "check_stack_size F".

Checking processes and threads...
   Running with 56 MPI processes.
   There are 8 MPI processes running on the same node as the root process.
   Each MPI process is using: 
               1 threads for simulation cell FFTs.
               1 threads for threaded FFT box operations.
              16 threads for loops over batched FFT box operations.
              16 threads in other parallel regions.
   MPI Interface: S1 (use mpi_f08) (-DMPI -DUSE_MPI_F08).
   MPI_ASYNC_PROTECTS_NONBLOCKING: Yes. MPI_SUBARRAYS_SUPPORTED: Yes.
   FFTW Interface: OMP-capable and MODERN. (-DUSE_MODERN_FFTW specified).
   GPU Interface: None.
   GPU FFT Backend: None.
... done

Basic input checks...... done

Reading geometry and species blocks from file "U_0.1_0.dat" ...... done


--------------------------------------------------------------------------------
---------------------------------- INPUT FILE ----------------------------------
--------------------------------------------------------------------------------

charge : 0                                                                      
cutoff_energy : 1000 eV                                                         
do_properties : T                                                               
edft : F                                                                        
edft_init_maxit : 5                                                             
elec_energy_tol : 2e-07 Ha                                                      
fine_grid_scale : 4                                                             
forces_output_detail : VERBOSE                                                  
hubbard_calculating_u : T                                                       
maxit_ngwf_cg : 40                                                              
ngwf_threshold_orig : 1e-06                                                     
output_detail : BRIEF                                                           
paw : T                                                                         
spin_polarized : T                                                              
ngwfs_spin_polarized : T                                                        
read_denskern : F                                                               
read_hamiltonian : F                                                            
read_tightbox_ngwfs : F                                                         
spin : 216                                                                      
task : SinglePoint                                                              
write_denskern : T                                                              
write_forces : T                                                                
write_hamiltonian : T                                                           
write_tightbox_ngwfs : T                                                        
xc_functional : PBE                                                             
%BLOCK LATTICE_CART                                                             
ang                                                                             
41.261892132    0.000000000     0.000000000                                     
-20.630946066   35.733846792     0.000000000                                    
0.0000000000    0.000000000    17.192455055                                     
%ENDBLOCK LATTICE_CART                                                          
%BLOCK POSITIONS_ABS                                                            
ang                                                                             
Cr       3.43849101       1.98521371       9.03176873                           
Cr       0.00000000       3.97042742       9.03176919                           
I        4.42260340      -0.00001318       7.48054615                           
I        1.22717790       2.12556082       7.48054615                           
I       -2.21129029       3.83009349       7.48054615                           
I        2.45437873      -0.00001140      10.58299027                           
I        2.21129177       3.83009250      10.58299027                           
I       -1.22717949       2.12556004      10.58299027                           
Cr       0.00000000       7.94085485       9.03176873                           
Cr      -3.43849101       9.92606855       9.03176919                           
I        0.98411239       5.95562795       7.48054615                           
I       -2.21131311       8.08120195       7.48054615                           
I       -5.64978130       9.78573462       7.48054615                           
I       -0.98411228       5.95562973      10.58299027                           
I       -1.22719924       9.78573363      10.58299027                           
I       -4.66567050       8.08120117      10.58299027                           
Cr      -3.43849101      13.89649598       9.03176873                           
Cr      -6.87698202      15.88170968       9.03176919                           
I       -2.45437862      11.91126909       7.48054615                           
I       -5.64980412      14.03684309       7.48054615                           
I       -9.08827231      15.74137575       7.48054615                           
I       -4.42260329      11.91127086      10.58299027                           
I       -4.66569025      15.74137476      10.58299027                           
I       -8.10416151      14.03684230      10.58299027                           
Cr      10.31547303       1.98521371       9.03176873                           
Cr       6.87698202       3.97042742       9.03176919                           
I       11.29958542      -0.00001318       7.48054615                           
I        8.10415992       2.12556082       7.48054615                           
I        4.66569173       3.83009349       7.48054615                           
I        9.33136075      -0.00001140      10.58299027                           
I        9.08827380       3.83009250      10.58299027                           
I        5.64980253       2.12556004      10.58299027                           
Cr       6.87698202       7.94085485       9.03176873                           
Cr       3.43849101       9.92606855       9.03176919                           
I        7.86109441       5.95562795       7.48054615                           
I        4.66566891       8.08120195       7.48054615                           
I        1.22720072       9.78573462       7.48054615                           
I        5.89286974       5.95562973      10.58299027                           
I        5.64978278       9.78573363      10.58299027                           
I        2.21131152       8.08120117      10.58299027                           
Cr       3.43849101      13.89649598       9.03176873                           
Cr       0.00000000      15.88170968       9.03176919                           
I        4.42260340      11.91126909       7.48054615                           
I        1.22717790      14.03684309       7.48054615                           
I       -2.21129029      15.74137575       7.48054615                           
I        2.45437873      11.91127086      10.58299027                           
I        2.21129177      15.74137476      10.58299027                           
I       -1.22717949      14.03684230      10.58299027                           
Cr      17.19245505       1.98521371       9.03176873                           
Cr      13.75396404       3.97042742       9.03176919                           
I       18.17656744      -0.00001318       7.48054615                           
I       14.98114195       2.12556082       7.48054615                           
I       11.54267375       3.83009349       7.48054615                           
I       16.20834277      -0.00001140      10.58299027                           
I       15.96525582       3.83009250      10.58299027                           
I       12.52678455       2.12556004      10.58299027                           
Cr      13.75396404       7.94085485       9.03176873                           
Cr      10.31547303       9.92606855       9.03176919                           
I       14.73807643       5.95562795       7.48054615                           
I       11.54265094       8.08120195       7.48054615                           
I        8.10418274       9.78573462       7.48054615                           
I       12.76985176       5.95562973      10.58299027                           
I       12.52676481       9.78573363      10.58299027                           
I        9.08829354       8.08120117      10.58299027                           
Cr      10.31547303      13.89649598       9.03176873                           
Cr       6.87698202      15.88170968       9.03176919                           
I       11.29958542      11.91126909       7.48054615                           
I        8.10415992      14.03684309       7.48054615                           
I        4.66569173      15.74137575       7.48054615                           
I        9.33136075      11.91127086      10.58299027                           
I        9.08827380      15.74137476      10.58299027                           
I        5.64980253      14.03684230      10.58299027                           
Cr      -6.87698202      19.85213711       9.03176873                           
Cr     -10.31547303      21.83735082       9.03176919                           
I       -5.89286963      17.86691022       7.48054615                           
I       -9.08829513      19.99248422       7.48054615                           
I      -12.52676332      21.69701689       7.48054615                           
I       -7.86109430      17.86691200      10.58299027                           
I       -8.10418126      21.69701590      10.58299027                           
I      -11.54265252      19.99248344      10.58299027                           
Cr     -10.31547303      25.80777825       9.03176873                           
Cr     -13.75396404      27.79299195       9.03176919                           
I       -9.33136064      23.82255135       7.48054615                           
I      -12.52678614      25.94812535       7.48054615                           
I      -15.96525433      27.65265802       7.48054615                           
I      -11.29958531      23.82255313      10.58299027                           
I      -11.54267227      27.65265703      10.58299027                           
I      -14.98114353      25.94812457      10.58299027                           
Cr     -13.75396404      31.76341938       9.03176873                           
Cr     -17.19245505      33.74863308       9.03176919                           
I      -12.76985165      29.77819249       7.48054615                           
I      -15.96527715      31.90376649       7.48054615                           
I      -19.40374534      33.60829915       7.48054615                           
I      -14.73807632      29.77819426      10.58299027                           
I      -14.98116328      33.60829816      10.58299027                           
I      -18.41963454      31.90376570      10.58299027                           
Cr      -0.00000000      19.85213711       9.03176873                           
Cr      -3.43849101      21.83735082       9.03176919                           
I        0.98411239      17.86691022       7.48054615                           
I       -2.21131311      19.99248422       7.48054615                           
I       -5.64978130      21.69701689       7.48054615                           
I       -0.98411228      17.86691200      10.58299027                           
I       -1.22719923      21.69701590      10.58299027                           
I       -4.66567050      19.99248344      10.58299027                           
Cr      -3.43849101      25.80777825       9.03176873                           
Cr      -6.87698202      27.79299195       9.03176919                           
I       -2.45437862      23.82255135       7.48054615                           
I       -5.64980412      25.94812535       7.48054615                           
I       -9.08827231      27.65265802       7.48054615                           
I       -4.42260329      23.82255313      10.58299027                           
I       -4.66569025      27.65265703      10.58299027                           
I       -8.10416151      25.94812457      10.58299027                           
Cr      -6.87698202      31.76341938       9.03176873                           
Cr     -10.31547303      33.74863308       9.03176919                           
I       -5.89286963      29.77819249       7.48054615                           
I       -9.08829513      31.90376649       7.48054615                           
I      -12.52676332      33.60829915       7.48054615                           
I       -7.86109430      29.77819426      10.58299027                           
I       -8.10418126      33.60829816      10.58299027                           
I      -11.54265252      31.90376570      10.58299027                           
CrU       6.87698202      19.85213711       9.03176873                          
Cr       3.43849101      21.83735082       9.03176919                           
I        7.86109441      17.86691022       7.48054615                           
I        4.66566892      19.99248422       7.48054615                           
I        1.22720072      21.69701689       7.48054615                           
I        5.89286974      17.86691200      10.58299027                           
I        5.64978279      21.69701590      10.58299027                           
I        2.21131152      19.99248344      10.58299027                           
Cr       3.43849101      25.80777825       9.03176873                           
Cr      -0.00000000      27.79299195       9.03176919                           
I        4.42260340      23.82255135       7.48054615                           
I        1.22717791      25.94812535       7.48054615                           
I       -2.21129029      27.65265802       7.48054615                           
I        2.45437873      23.82255313      10.58299027                           
I        2.21129178      27.65265703      10.58299027                           
I       -1.22717949      25.94812457      10.58299027                           
Cr      -0.00000000      31.76341938       9.03176873                           
Cr      -3.43849101      33.74863308       9.03176919                           
I        0.98411239      29.77819249       7.48054615                           
I       -2.21131311      31.90376649       7.48054615                           
I       -5.64978130      33.60829915       7.48054615                           
I       -0.98411228      29.77819426      10.58299027                           
I       -1.22719923      33.60829816      10.58299027                           
I       -4.66567050      31.90376570      10.58299027                           
Cr      24.06943708       1.98521371       9.03176873                           
Cr      20.63094607       3.97042742       9.03176919                           
I       25.05354947      -0.00001318       7.48054615                           
I       21.85812397       2.12556082       7.48054615                           
I       18.41965578       3.83009349       7.48054615                           
I       23.08532480      -0.00001140      10.58299027                           
I       22.84223784       3.83009250      10.58299027                           
I       19.40376658       2.12556004      10.58299027                           
Cr      20.63094607       7.94085485       9.03176873                           
Cr      17.19245506       9.92606855       9.03176919                           
I       21.61505846       5.95562795       7.48054615                           
I       18.41963296       8.08120195       7.48054615                           
I       14.98116477       9.78573462       7.48054615                           
I       19.64683379       5.95562973      10.58299027                           
I       19.40374683       9.78573363      10.58299027                           
I       15.96527557       8.08120117      10.58299027                           
Cr      17.19245506      13.89649598       9.03176873                           
Cr      13.75396405      15.88170968       9.03176919                           
I       18.17656745      11.91126909       7.48054615                           
I       14.98114195      14.03684309       7.48054615                           
I       11.54267376      15.74137575       7.48054615                           
I       16.20834278      11.91127086      10.58299027                           
I       15.96525582      15.74137476      10.58299027                           
I       12.52678456      14.03684230      10.58299027                           
Cr      30.94641910       1.98521371       9.03176873                           
Cr      27.50792809       3.97042742       9.03176919                           
I       31.93053149      -0.00001318       7.48054615                           
I       28.73510599       2.12556082       7.48054615                           
I       25.29663780       3.83009349       7.48054615                           
I       29.96230682      -0.00001140      10.58299027                           
I       29.71921987       3.83009250      10.58299027                           
I       26.28074860       2.12556004      10.58299027                           
Cr      27.50792809       7.94085485       9.03176873                           
Cr      24.06943708       9.92606855       9.03176919                           
I       28.49204048       5.95562795       7.48054615                           
I       25.29661498       8.08120195       7.48054615                           
I       21.85814679       9.78573462       7.48054615                           
I       26.52381581       5.95562973      10.58299027                           
I       26.28072885       9.78573363      10.58299027                           
I       22.84225759       8.08120117      10.58299027                           
Cr      24.06943708      13.89649598       9.03176873                           
Cr      20.63094607      15.88170968       9.03176919                           
I       25.05354947      11.91126909       7.48054615                           
I       21.85812397      14.03684309       7.48054615                           
I       18.41965578      15.74137575       7.48054615                           
I       23.08532480      11.91127086      10.58299027                           
I       22.84223784      15.74137476      10.58299027                           
I       19.40376658      14.03684230      10.58299027                           
Cr      37.82340112       1.98521371       9.03176873                           
Cr      34.38491011       3.97042742       9.03176919                           
I       38.80751351      -0.00001318       7.48054615                           
I       35.61208802       2.12556082       7.48054615                           
I       32.17361982       3.83009349       7.48054615                           
I       36.83928884      -0.00001140      10.58299027                           
I       36.59620189       3.83009250      10.58299027                           
I       33.15773062       2.12556004      10.58299027                           
Cr      34.38491011       7.94085485       9.03176873                           
Cr      30.94641910       9.92606855       9.03176919                           
I       35.36902250       5.95562795       7.48054615                           
I       32.17359701       8.08120195       7.48054615                           
I       28.73512881       9.78573462       7.48054615                           
I       33.40079783       5.95562973      10.58299027                           
I       33.15771088       9.78573363      10.58299027                           
I       29.71923961       8.08120117      10.58299027                           
Cr      30.94641910      13.89649598       9.03176873                           
Cr      27.50792809      15.88170968       9.03176919                           
I       31.93053149      11.91126909       7.48054615                           
I       28.73510599      14.03684309       7.48054615                           
I       25.29663780      15.74137575       7.48054615                           
I       29.96230682      11.91127086      10.58299027                           
I       29.71921987      15.74137476      10.58299027                           
I       26.28074860      14.03684230      10.58299027                           
Cr      13.75396404      19.85213711       9.03176873                           
Cr      10.31547303      21.83735082       9.03176919                           
I       14.73807643      17.86691022       7.48054615                           
I       11.54265093      19.99248422       7.48054615                           
I        8.10418274      21.69701689       7.48054615                           
I       12.76985176      17.86691200      10.58299027                           
I       12.52676480      21.69701590      10.58299027                           
I        9.08829354      19.99248344      10.58299027                           
Cr      10.31547303      25.80777825       9.03176873                           
Cr       6.87698202      27.79299195       9.03176919                           
I       11.29958542      23.82255135       7.48054615                           
I        8.10415992      25.94812535       7.48054615                           
I        4.66569173      27.65265802       7.48054615                           
I        9.33136075      23.82255313      10.58299027                           
I        9.08827379      27.65265703      10.58299027                           
I        5.64980253      25.94812457      10.58299027                           
Cr       6.87698202      31.76341938       9.03176873                           
Cr       3.43849101      33.74863308       9.03176919                           
I        7.86109441      29.77819249       7.48054615                           
I        4.66566891      31.90376649       7.48054615                           
I        1.22720072      33.60829915       7.48054615                           
I        5.89286974      29.77819426      10.58299027                           
I        5.64978278      33.60829816      10.58299027                           
I        2.21131152      31.90376570      10.58299027                           
Cr      20.63094606      19.85213711       9.03176873                           
Cr      17.19245505      21.83735082       9.03176919                           
I       21.61505845      17.86691022       7.48054615                           
I       18.41963295      19.99248422       7.48054615                           
I       14.98116476      21.69701689       7.48054615                           
I       19.64683378      17.86691200      10.58299027                           
I       19.40374683      21.69701590      10.58299027                           
I       15.96527556      19.99248344      10.58299027                           
Cr      17.19245505      25.80777825       9.03176873                           
Cr      13.75396404      27.79299195       9.03176919                           
I       18.17656744      23.82255135       7.48054615                           
I       14.98114194      25.94812535       7.48054615                           
I       11.54267375      27.65265802       7.48054615                           
I       16.20834277      23.82255313      10.58299027                           
I       15.96525581      27.65265703      10.58299027                           
I       12.52678455      25.94812457      10.58299027                           
Cr      13.75396404      31.76341938       9.03176873                           
Cr      10.31547303      33.74863308       9.03176919                           
I       14.73807643      29.77819249       7.48054615                           
I       11.54265093      31.90376649       7.48054615                           
I        8.10418274      33.60829915       7.48054615                           
I       12.76985176      29.77819426      10.58299027                           
I       12.52676480      33.60829816      10.58299027                           
I        9.08829354      31.90376570      10.58299027                           
Cr      27.50792808      19.85213711       9.03176873                           
Cr      24.06943707      21.83735082       9.03176919                           
I       28.49204047      17.86691022       7.48054615                           
I       25.29661498      19.99248422       7.48054615                           
I       21.85814678      21.69701689       7.48054615                           
I       26.52381580      17.86691200      10.58299027                           
I       26.28072885      21.69701590      10.58299027                           
I       22.84225758      19.99248344      10.58299027                           
Cr      24.06943707      25.80777825       9.03176873                           
Cr      20.63094606      27.79299195       9.03176919                           
I       25.05354946      23.82255135       7.48054615                           
I       21.85812397      25.94812535       7.48054615                           
I       18.41965577      27.65265802       7.48054615                           
I       23.08532479      23.82255313      10.58299027                           
I       22.84223784      27.65265703      10.58299027                           
I       19.40376657      25.94812457      10.58299027                           
Cr      20.63094606      31.76341938       9.03176873                           
Cr      17.19245505      33.74863308       9.03176919                           
I       21.61505845      29.77819249       7.48054615                           
I       18.41963295      31.90376649       7.48054615                           
I       14.98116476      33.60829915       7.48054615                           
I       19.64683378      29.77819426      10.58299027                           
I       19.40374683      33.60829816      10.58299027                           
I       15.96527556      31.90376570      10.58299027                           
%ENDBLOCK POSITIONS_ABS                                                         
%BLOCK SPECIES                                                                  
Cr Cr 24 -1 15                                                                  
I   I  53 -1 15                                                                 
CrU Cr 24 -1 15                                                                 
%ENDBLOCK SPECIES                                                               
%BLOCK SPECIES_ATOMIC_SET                                                       
Cr  "SOLVE INIT SPIN=3"                                                         
I   "SOLVE"                                                                     
CrU "SOLVE INIT SPIN=3"                                                         
%ENDBLOCK SPECIES_ATOMIC_SET                                                    
%BLOCK HUBBARD                                                                  
CrU 2 0.0 0.0 -10.0 0.10 0.0                                                    
%ENDBLOCK HUBBARD                                                               
%BLOCK SPECIES_LDOS_GROUPS                                                      
Cr                                                                              
I                                                                               
CrU                                                                             
%ENDBLOCK SPECIES_LDOS_GROUPS                                                   
%BLOCK SPECIES_POT                                                              
Cr  "/work/e89/e89/phsmea/U_det/Cr.PBE-paw.abinit"                              
I   "/work/e89/e89/phsmea/U_det/I.PBE-paw.abinit"                               
CrU "/work/e89/e89/phsmea/U_det/Cr.PBE-paw.abinit"                              
%ENDBLOCK SPECIES_POT                                                           

--------------------------------------------------------------------------------
-------------------------------- END INPUT FILE --------------------------------
--------------------------------------------------------------------------------


 
 ESDF WARNING(1): "charge" (esdf_physical) has no units. Assume "e".
<<<<<<<<<<<<<<<<<<<<<<<<<<<<<<<<< Full system >>>>>>>>>>>>>>>>>>>>>>>>>>>>>>>>>>
<<<<<<<<<<<<<<<<<<<<<<<<<<< PAW Dataset information >>>>>>>>>>>>>>>>>>>>>>>>>>>
File: /work/e89/e89/phsmea/U_det/Cr.PBE-paw.abinit; rc = 2.11 bohr; shape type =  2; rshape = 1.80 bohr;
  Atomic number: 24;  ionic charge: 14.000000
    Partial Wave 1: l = 0
    Partial Wave 2: l = 0
    Partial Wave 3: l = 1
    Partial Wave 4: l = 1
    Partial Wave 5: l = 2
    Partial Wave 6: l = 2
  Core charge supplied for Nonlinear Core Corrections
File: /work/e89/e89/phsmea/U_det/I.PBE-paw.abinit; rc = 2.30 bohr; shape type =  2; rshape = 2.11 bohr;
  Atomic number: 53;  ionic charge:  7.000000
    Partial Wave 1: l = 0
    Partial Wave 2: l = 0
    Partial Wave 3: l = 1
    Partial Wave 4: l = 1
  Core charge supplied for Nonlinear Core Corrections
<<<<<<<<<<<<<<<<<<<<<<<<<<<<<<<<<<<<<<< >>>>>>>>>>>>>>>>>>>>>>>>>>>>>>>>>>>>>>>

-------------------------- Atom counting information ---------------------------
Symbol    Natoms    Nngwfs    Nprojs
  Cr        72       936      1296
  I        216       864      1728
.......   ......    ......    ......
Totals:    288      1800      3024
--------------------------------------------------------------------------------

=============================== PSINC grid sizes ===============================
                      Simulation cell:  175 x 175 x  75
                              FFT-box:  175 x 175 x  75
                                  PPD:    5 x   5 x   1
================================================================================

Atom SCF Calculation for Cr : Z (AE atom) =  24 : Z (PS atom) =  14
Config String: 3s2.0 3p6.0 3d5.0 4s1.0 4p0.0 INIT SPIN=3
Orbitals (num,occ):  5     2.00 6.00 5.00 1.00 0.00
Orbitals   (num,l):  5        0    1    2    0    1
Atom SCF converged after  64 iterations to a total energy of    -87.07044631
Adjusting orbital occupancies:
Orbitals (num,spin,occ):  5  1     1.00 3.00 3.50 1.00 0.00
Orbitals   (num,spin,l):  5  1        0    1    2    0    1
Orbitals (num,spin,occ):  5  2     1.00 3.00 1.00 0.50 0.00
Orbitals   (num,spin,l):  5  2        0    1    2    0    1

Atom SCF Calculation for I  : Z (AE atom) =  53 : Z (PS atom) =   7
Config String: 5s2.0 5p5.0
Orbitals (num,occ):  2     2.00 5.00
Orbitals   (num,l):  2        0    1
Atom SCF converged after  28 iterations to a total energy of    -11.61352964

Atom SCF Calculation for Cr : Z (AE atom) =  24 : Z (PS atom) =  14
Config String: 3s2.0 3p6.0 3d5.0 4s1.0 4p0.0 INIT SPIN=3
Orbitals (num,occ):  5     2.00 6.00 5.00 1.00 0.00
Orbitals   (num,l):  5        0    1    2    0    1
Atom SCF converged after  64 iterations to a total energy of    -87.07044631
Adjusting orbital occupancies:
Orbitals (num,spin,occ):  5  1     1.00 3.00 3.50 1.00 0.00
Orbitals   (num,spin,l):  5  1        0    1    2    0    1
Orbitals (num,spin,occ):  5  2     1.00 3.00 1.00 0.50 0.00
Orbitals   (num,spin,l):  5  2        0    1    2    0    1

Atom SCF Calculation for Cr : Z (AE atom) =  24 : Z (PS atom) =  14
Config String: 3s2.0 3p6.0 3d5.0 4s1.0 4p0.0 INIT SPIN=3
Orbitals (num,occ):  5     2.00 6.00 5.00 1.00 0.00
Orbitals   (num,l):  5        0    1    2    0    1
Atom SCF converged after  64 iterations to a total energy of    -87.07044631

Atom SCF Calculation for I  : Z (AE atom) =  53 : Z (PS atom) =   7
Config String: 5s2.0 5p5.0
Orbitals (num,occ):  2     2.00 5.00
Orbitals   (num,l):  2        0    1
Atom SCF converged after  28 iterations to a total energy of    -11.61352964

Atom SCF Calculation for Cr : Z (AE atom) =  24 : Z (PS atom) =  14
Config String: 3s2.0 3p6.0 3d5.0 4s1.0 4p0.0 INIT SPIN=3
Orbitals (num,occ):  5     2.00 6.00 5.00 1.00 0.00
Orbitals   (num,l):  5        0    1    2    0    1
Atom SCF converged after  64 iterations to a total energy of    -87.07044631
Calculating Ewald energy ...             6126.916246 Hartree

============================= Charge Augmentation ==============================
                           Aug box size:   49 x  49 x  45
================================================================================

================================= Core Density =================================
               Core den box size:  125 x 125 x 117
================================================================================
Density kernel initialisation

################################################################################
###################### NGWF self-consistent optimisation #######################
################################################################################
|ITER|    RMS GRADIENT   |     TOTAL ENERGY    |   step   |     Epredicted      
   0     0.00009869848300  -8812.30106962118225   2.349065  -8816.21033161612468        
   1     0.00006752829461  -8816.43032584033062   1.629042  -8817.76939332672191        
   2     0.00004161152058  -8817.80534142086981   1.809005  -8818.35463701475965        
   3     0.00002884617892  -8818.37878623465804   1.957526  -8818.66925665785857        
   4     0.00002027159534  -8818.67054132955491   1.137794  -8818.75041773187331        
   5     0.00001354101536  -8818.75053463437143   1.989063  -8818.81262488910397        
   6     0.00001150453525  -8818.81148803694305   1.752523  -8818.85020805441491        
   7     0.00000898524949  -8818.84876520647231   1.591691  -8818.86986820549646        
   8     0.00000730965228  -8818.86884014694260   0.927457  -8818.87730590940737        
   9     0.00000479846381  -8818.87726802870930   2.172233  -8818.88583436824047        
  10     0.00000437635343  -8818.88556838165641   1.631947  -8818.89082618389148        
  11     0.00000316292038  -8818.89051307918271   2.394386  -8818.89445026182875        
  12     0.00000410954685  -8818.89331997414411   0.935799  -8818.89601988327377        
  13     0.00000214653506  -8818.89599640119741   2.472976  -8818.89792230532476        
  14     0.00000234171742  -8818.89764571059277   2.445726  -8818.89959274022112        
  15     0.00000237837124  -8818.89847489896601   1.714369  -8818.89934763480960        
  16     0.00000269234956  -8818.89836277596260   1.022692  -8818.89962922126506        
  17     0.00000199045177  -8818.89961970290096   1.859872  -8818.90087867800685        
  18     0.00000141679648  -8818.90081492620811   1.544742  -8818.90134302039223        
  19     0.00000088335615  -8818.90123770092760   3.263818  -8818.90163220917020        
  20     0.00000162611686  -8818.90127560849942   0.749948  -8818.90161438525502        
  21     0.00000050678844  -8818.90160555023249   1.923573  -8818.90168681169780        
  22     0.00000057113308  -8818.90165170655928  -0.000519  -8818.90165168621388        

================================================================================
           ---------------- ENERGY COMPONENTS (Eh) ----------------
           | Kinetic                    :     1819.39272082305479 |
           | Core Hartree               :   -28372.59392754711730 |
           | CoreHart (non-coul chg cor):        0.00000000000000
           | Hartree                    :    13504.03772687113810 |
           | Exchange-correlation       :    -1248.32746787163637 |
           | Hubbard DFT+U correction   :        0.02094559805072 |
           | Ewald                      :     6126.91624599049464 |
           | Dij0                       :     -555.70990405350278 |
           | Dijhartree                 :      248.91825475519289 |
           | Exc [AE core]              :   -42415.12285345677810 |
           | Exc DC [AE core]           :    -1638.59640402579976 |
           | Exc [PS core]              :    -1032.32666517044481 |
           | Exc DC [PS core]           :     -982.41288142058829 |
           | Exc [Core]                 :   -41041.23993575423080 |
           | Total [Sphere]             :     -648.34790183041332 |
           | Total                      :    -8818.90165796642759 |
           --------------------------------------------------------
           Integrated compensation chrg.:      189.11015970516010
           Integrated density           :     2519.99993596222112
           Integrated spin density      :      215.99995947802037
           Integrated |spin density|    :      164.25023833028143
================================================================================

  23     0.00000053091060  -8818.90165796642032  <-- CG                                 

################################################################################
DFT+U information on atom      1 of Hubbard species CrU 
################################################################################
Occupancy matrix of Hubbard site      1 and spin      1 is 
  m_l =   -2          -1           0           1           2
  0.88904147  0.15095237  0.00000152  0.00000078  0.00000280
  0.15098996  0.77082295 -0.00000241  0.00000286 -0.00000251
  0.00000011 -0.00000032  0.99111507 -0.00000000  0.00000017
  0.00000199  0.00000280 -0.00000116  0.77082078 -0.15098729
  0.00000274 -0.00000125 -0.00000061 -0.15095111  0.88904449
################################################################################
Occupancy matrix of Hubbard site      1 and spin      2 is 
  m_l =   -2          -1           0           1           2
  0.25593689 -0.13287524 -0.00000226  0.00000222  0.00000216
 -0.13290706  0.36087060  0.00000204  0.00000154 -0.00000093
 -0.00000087  0.00000020  0.15512706  0.00000032  0.00000002
  0.00000117  0.00000159  0.00000134  0.36086842  0.13290877
  0.00000221 -0.00000202  0.00000079  0.13287817  0.25593952
################################################################################
Total occupancy of Hubbard site      1 is         5.69958724 e
Local magnetic moment of Hubbard site      1 is   2.92210227 mu_B
DFT+U energy of Hubbard site      1 is            0.02094560 Ha
################################################################################

##### For calculating the Hubbard U and Hund J #################################
DFT+U information on Hubbard site      1 of species CrU  and spin      1
The average Hxc+local potential is            -19.05188831 eV.
The average Hubbard potential is                0.10000000 eV.
The average non-local PAW contribution is     -10.99251404 eV.
################################################################################
DFT+U information on Hubbard site      1 of species CrU  and spin      2
The average Hxc+local potential is            -17.97432357 eV.
The average Hubbard potential is                0.10000000 eV.
The average non-local PAW contribution is      -9.53567144 eV.
################################################################################

======================== Writing density and potential =========================
Writing "U_0.1_0_ps_density.cube" ... done
Writing "U_0.1_0_ps_spindensity.cube" ... done
Writing "U_0.1_0_ae_density.cube" ... done
Writing "U_0.1_0_ae_spindensity.cube" ... done
Writing "U_0.1_0_potential.cube" ... done
Writing "U_0.1_0_electrostatic_potential.cube" ... done
================================================================================

    Mulliken Atomic Populations
    ---------------------------
Species  Ion    Total   Charge (e)    Spin (hbar)
=================================================
  Cr     1      13.843      0.157      1.68
  Cr     2      13.843      0.157      1.68
  I      3       7.052     -0.052     -0.06
  I      4       7.052     -0.052     -0.06
  I      5       7.052     -0.052     -0.06
  I      6       7.052     -0.052     -0.06
  I      7       7.052     -0.052     -0.06
  I      8       7.052     -0.052     -0.06
  Cr     9      13.843      0.157      1.68
  Cr    10      13.843      0.157      1.68
  I     11       7.052     -0.052     -0.06
  I     12       7.052     -0.052     -0.06
  I     13       7.052     -0.052     -0.06
  I     14       7.052     -0.052     -0.06
  I     15       7.052     -0.052     -0.06
  I     16       7.052     -0.052     -0.06
  Cr    17      13.843      0.157      1.68
  Cr    18      13.843      0.157      1.68
  I     19       7.052     -0.052     -0.06
  I     20       7.052     -0.052     -0.06
  I     21       7.052     -0.052     -0.06
  I     22       7.052     -0.052     -0.06
  I     23       7.052     -0.052     -0.06
  I     24       7.052     -0.052     -0.06
  Cr    25      13.843      0.157      1.68
  Cr    26      13.843      0.157      1.68
  I     27       7.052     -0.052     -0.06
  I     28       7.052     -0.052     -0.06
  I     29       7.052     -0.052     -0.06
  I     30       7.052     -0.052     -0.06
  I     31       7.052     -0.052     -0.06
  I     32       7.052     -0.052     -0.06
  Cr    33      13.843      0.157      1.68
  Cr    34      13.843      0.157      1.68
  I     35       7.052     -0.052     -0.06
  I     36       7.052     -0.052     -0.06
  I     37       7.052     -0.052     -0.06
  I     38       7.052     -0.052     -0.06
  I     39       7.052     -0.052     -0.06
  I     40       7.052     -0.052     -0.06
  Cr    41      13.842      0.158      1.68
  Cr    42      13.843      0.157      1.68
  I     43       7.052     -0.052     -0.06
  I     44       7.052     -0.052     -0.06
  I     45       7.052     -0.052     -0.06
  I     46       7.052     -0.052     -0.06
  I     47       7.052     -0.052     -0.06
  I     48       7.052     -0.052     -0.06
  Cr    49      13.843      0.157      1.68
  Cr    50      13.843      0.157      1.68
  I     51       7.052     -0.052     -0.06
  I     52       7.052     -0.052     -0.06
  I     53       7.052     -0.052     -0.06
  I     54       7.052     -0.052     -0.06
  I     55       7.052     -0.052     -0.06
  I     56       7.052     -0.052     -0.06
  Cr    57      13.843      0.157      1.68
  Cr    58      13.843      0.157      1.68
  I     59       7.052     -0.052     -0.06
  I     60       7.052     -0.052     -0.06
  I     61       7.052     -0.052     -0.06
  I     62       7.052     -0.052     -0.06
  I     63       7.052     -0.052     -0.06
  I     64       7.052     -0.052     -0.06
  Cr    65      13.842      0.158      1.68
  Cr    66      13.840      0.160      1.68
  I     67       7.053     -0.053     -0.06
  I     68       7.053     -0.053     -0.06
  I     69       7.053     -0.053     -0.06
  I     70       7.052     -0.052     -0.06
  I     71       7.053     -0.053     -0.06
  I     72       7.053     -0.053     -0.06
  Cr    73      13.844      0.156      1.68
  Cr    74      13.843      0.157      1.68
  I     75       7.052     -0.052     -0.06
  I     76       7.052     -0.052     -0.06
  I     77       7.052     -0.052     -0.06
  I     78       7.052     -0.052     -0.06
  I     79       7.052     -0.052     -0.06
  I     80       7.052     -0.052     -0.06
  Cr    81      13.843      0.157      1.68
  Cr    82      13.843      0.157      1.68
  I     83       7.052     -0.052     -0.06
  I     84       7.052     -0.052     -0.06
  I     85       7.052     -0.052     -0.06
  I     86       7.052     -0.052     -0.06
  I     87       7.052     -0.052     -0.06
  I     88       7.052     -0.052     -0.06
  Cr    89      13.843      0.157      1.68
  Cr    90      13.843      0.157      1.68
  I     91       7.052     -0.052     -0.06
  I     92       7.052     -0.052     -0.06
  I     93       7.052     -0.052     -0.06
  I     94       7.052     -0.052     -0.06
  I     95       7.052     -0.052     -0.06
  I     96       7.052     -0.052     -0.06
  Cr    97      13.842      0.158      1.68
  Cr    98      13.843      0.157      1.68
  I     99       7.053     -0.053     -0.06
  I    100       7.053     -0.053     -0.06
  I    101       7.052     -0.052     -0.06
  I    102       7.053     -0.053     -0.06
  I    103       7.052     -0.052     -0.06
  I    104       7.052     -0.052     -0.06
  Cr   105      13.843      0.157      1.68
  Cr   106      13.843      0.157      1.68
  I    107       7.052     -0.052     -0.06
  I    108       7.052     -0.052     -0.06
  I    109       7.052     -0.052     -0.06
  I    110       7.052     -0.052     -0.06
  I    111       7.052     -0.052     -0.06
  I    112       7.052     -0.052     -0.06
  Cr   113      13.843      0.157      1.68
  Cr   114      13.843      0.157      1.68
  I    115       7.052     -0.052     -0.06
  I    116       7.052     -0.052     -0.06
  I    117       7.052     -0.052     -0.06
  I    118       7.052     -0.052     -0.06
  I    119       7.052     -0.052     -0.06
  I    120       7.052     -0.052     -0.06
  Cr   121      13.833      0.167      1.69
  Cr   122      13.840      0.160      1.68
  I    123       7.055     -0.055     -0.06
  I    124       7.055     -0.055     -0.06
  I    125       7.053     -0.053     -0.06
  I    126       7.055     -0.055     -0.06
  I    127       7.055     -0.055     -0.06
  I    128       7.053     -0.053     -0.06
  Cr   129      13.842      0.158      1.68
  Cr   130      13.843      0.157      1.68
  I    131       7.053     -0.053     -0.06
  I    132       7.052     -0.052     -0.06
  I    133       7.052     -0.052     -0.06
  I    134       7.053     -0.053     -0.06
  I    135       7.053     -0.053     -0.06
  I    136       7.052     -0.052     -0.06
  Cr   137      13.844      0.156      1.68
  Cr   138      13.843      0.157      1.68
  I    139       7.052     -0.052     -0.06
  I    140       7.052     -0.052     -0.06
  I    141       7.052     -0.052     -0.06
  I    142       7.052     -0.052     -0.06
  I    143       7.052     -0.052     -0.06
  I    144       7.052     -0.052     -0.06
  Cr   145      13.843      0.157      1.68
  Cr   146      13.843      0.157      1.68
  I    147       7.052     -0.052     -0.06
  I    148       7.052     -0.052     -0.06
  I    149       7.052     -0.052     -0.06
  I    150       7.052     -0.052     -0.06
  I    151       7.052     -0.052     -0.06
  I    152       7.052     -0.052     -0.06
  Cr   153      13.843      0.157      1.68
  Cr   154      13.843      0.157      1.68
  I    155       7.052     -0.052     -0.06
  I    156       7.052     -0.052     -0.06
  I    157       7.052     -0.052     -0.06
  I    158       7.052     -0.052     -0.06
  I    159       7.052     -0.052     -0.06
  I    160       7.052     -0.052     -0.06
  Cr   161      13.843      0.157      1.68
  Cr   162      13.843      0.157      1.68
  I    163       7.052     -0.052     -0.06
  I    164       7.052     -0.052     -0.06
  I    165       7.053     -0.053     -0.06
  I    166       7.052     -0.052     -0.06
  I    167       7.052     -0.052     -0.06
  I    168       7.053     -0.053     -0.06
  Cr   169      13.843      0.157      1.68
  Cr   170      13.843      0.157      1.68
  I    171       7.052     -0.052     -0.06
  I    172       7.052     -0.052     -0.06
  I    173       7.052     -0.052     -0.06
  I    174       7.052     -0.052     -0.06
  I    175       7.052     -0.052     -0.06
  I    176       7.052     -0.052     -0.06
  Cr   177      13.843      0.157      1.68
  Cr   178      13.843      0.157      1.68
  I    179       7.052     -0.052     -0.06
  I    180       7.052     -0.052     -0.06
  I    181       7.052     -0.052     -0.06
  I    182       7.052     -0.052     -0.06
  I    183       7.052     -0.052     -0.06
  I    184       7.052     -0.052     -0.06
  Cr   185      13.843      0.157      1.68
  Cr   186      13.843      0.157      1.68
  I    187       7.052     -0.052     -0.06
  I    188       7.052     -0.052     -0.06
  I    189       7.052     -0.052     -0.06
  I    190       7.052     -0.052     -0.06
  I    191       7.052     -0.052     -0.06
  I    192       7.052     -0.052     -0.06
  Cr   193      13.843      0.157      1.68
  Cr   194      13.843      0.157      1.68
  I    195       7.052     -0.052     -0.06
  I    196       7.052     -0.052     -0.06
  I    197       7.052     -0.052     -0.06
  I    198       7.052     -0.052     -0.06
  I    199       7.052     -0.052     -0.06
  I    200       7.052     -0.052     -0.06
  Cr   201      13.843      0.157      1.68
  Cr   202      13.843      0.157      1.68
  I    203       7.052     -0.052     -0.06
  I    204       7.052     -0.052     -0.06
  I    205       7.052     -0.052     -0.06
  I    206       7.052     -0.052     -0.06
  I    207       7.052     -0.052     -0.06
  I    208       7.052     -0.052     -0.06
  Cr   209      13.843      0.157      1.68
  Cr   210      13.843      0.157      1.68
  I    211       7.052     -0.052     -0.06
  I    212       7.052     -0.052     -0.06
  I    213       7.052     -0.052     -0.06
  I    214       7.052     -0.052     -0.06
  I    215       7.052     -0.052     -0.06
  I    216       7.052     -0.052     -0.06
  Cr   217      13.842      0.158      1.68
  Cr   218      13.840      0.160      1.68
  I    219       7.053     -0.053     -0.06
  I    220       7.053     -0.053     -0.06
  I    221       7.055     -0.055     -0.06
  I    222       7.053     -0.053     -0.06
  I    223       7.053     -0.053     -0.06
  I    224       7.055     -0.055     -0.06
  Cr   225      13.842      0.158      1.68
  Cr   226      13.843      0.157      1.68
  I    227       7.053     -0.053     -0.06
  I    228       7.052     -0.052     -0.06
  I    229       7.053     -0.053     -0.06
  I    230       7.053     -0.053     -0.06
  I    231       7.052     -0.052     -0.06
  I    232       7.053     -0.053     -0.06
  Cr   233      13.843      0.157      1.68
  Cr   234      13.843      0.157      1.68
  I    235       7.052     -0.052     -0.06
  I    236       7.052     -0.052     -0.06
  I    237       7.052     -0.052     -0.06
  I    238       7.052     -0.052     -0.06
  I    239       7.052     -0.052     -0.06
  I    240       7.052     -0.052     -0.06
  Cr   241      13.843      0.157      1.68
  Cr   242      13.843      0.157      1.68
  I    243       7.052     -0.052     -0.06
  I    244       7.052     -0.052     -0.06
  I    245       7.052     -0.052     -0.06
  I    246       7.052     -0.052     -0.06
  I    247       7.052     -0.052     -0.06
  I    248       7.053     -0.053     -0.06
  Cr   249      13.843      0.157      1.68
  Cr   250      13.843      0.157      1.68
  I    251       7.052     -0.052     -0.06
  I    252       7.052     -0.052     -0.06
  I    253       7.052     -0.052     -0.06
  I    254       7.052     -0.052     -0.06
  I    255       7.052     -0.052     -0.06
  I    256       7.052     -0.052     -0.06
  Cr   257      13.843      0.157      1.68
  Cr   258      13.843      0.157      1.68
  I    259       7.052     -0.052     -0.06
  I    260       7.052     -0.052     -0.06
  I    261       7.052     -0.052     -0.06
  I    262       7.052     -0.052     -0.06
  I    263       7.052     -0.052     -0.06
  I    264       7.052     -0.052     -0.06
  Cr   265      13.843      0.157      1.68
  Cr   266      13.843      0.157      1.68
  I    267       7.052     -0.052     -0.06
  I    268       7.052     -0.052     -0.06
  I    269       7.052     -0.052     -0.06
  I    270       7.052     -0.052     -0.06
  I    271       7.052     -0.052     -0.06
  I    272       7.052     -0.052     -0.06
  Cr   273      13.843      0.157      1.68
  Cr   274      13.843      0.157      1.68
  I    275       7.052     -0.052     -0.06
  I    276       7.052     -0.052     -0.06
  I    277       7.052     -0.052     -0.06
  I    278       7.052     -0.052     -0.06
  I    279       7.052     -0.052     -0.06
  I    280       7.052     -0.052     -0.06
  Cr   281      13.843      0.157      1.68
  Cr   282      13.843      0.157      1.68
  I    283       7.052     -0.052     -0.06
  I    284       7.052     -0.052     -0.06
  I    285       7.052     -0.052     -0.06
  I    286       7.052     -0.052     -0.06
  I    287       7.052     -0.052     -0.06
  I    288       7.052     -0.052     -0.06
=================================================

        Bond         Population      Spin       Length (bohr)
=============================================================
 Cr  186 -- I   191        0.31     -0.03      4.86412
 Cr  178 -- I   183        0.31     -0.03      4.86412
 Cr  154 -- I   159        0.31     -0.03      4.86412
 Cr  162 -- I   167        0.31     -0.03      4.86412
 Cr  146 -- I   151        0.31     -0.03      4.86412
 Cr   82 -- I    87        0.31     -0.03      4.86412
 Cr  250 -- I   255        0.31     -0.03      4.86412
 Cr  226 -- I   231        0.31     -0.03      4.86412
 Cr   74 -- I    79        0.31     -0.03      4.86412
 Cr   10 -- I    15        0.31     -0.03      4.86412
 Cr  106 -- I   111        0.31     -0.03      4.86412
 Cr   34 -- I    39        0.31     -0.03      4.86412
 Cr   42 -- I    47        0.31     -0.03      4.86412
 Cr   18 -- I    23        0.31     -0.03      4.86412
 Cr  114 -- I   119        0.31     -0.03      4.86412
 Cr    2 -- I     7        0.31     -0.03      4.86412
 Cr   90 -- I    95        0.31     -0.03      4.86412
 Cr  218 -- I   223        0.31     -0.03      4.86412
 Cr  258 -- I   263        0.31     -0.03      4.86412
 Cr  234 -- I   239        0.31     -0.03      4.86412
 Cr  274 -- I   279        0.31     -0.03      4.86412
 Cr  130 -- I   135        0.31     -0.03      4.86412
 Cr   98 -- I   103        0.31     -0.03      4.86412
 Cr   66 -- I    71        0.31     -0.03      4.86412
 Cr  242 -- I   247        0.31     -0.03      4.86412
 Cr   50 -- I    55        0.31     -0.03      4.86412
 Cr   26 -- I    31        0.31     -0.03      4.86412
 Cr   58 -- I    63        0.31     -0.03      4.86412
 Cr  210 -- I   215        0.31     -0.03      4.86412
 Cr  170 -- I   175        0.31     -0.03      4.86412
 Cr  122 -- I   127        0.31     -0.03      4.86412
 Cr  266 -- I   271        0.31     -0.03      4.86412
 Cr  282 -- I   287        0.31     -0.03      4.86412
 Cr  138 -- I   143        0.31     -0.03      4.86412
 Cr  202 -- I   207        0.31     -0.03      4.86412
 Cr  194 -- I   199        0.31     -0.03      4.86412
 Cr  210 -- I   212        0.31     -0.03      4.86413
 Cr  138 -- I   140        0.31     -0.03      4.86413
 Cr   90 -- I    92        0.31     -0.03      4.86413
 Cr  258 -- I   260        0.31     -0.03      4.86413
 Cr  234 -- I   236        0.31     -0.03      4.86413
 Cr   42 -- I    44        0.31     -0.03      4.86413
 Cr   66 -- I    68        0.31     -0.03      4.86413
 Cr  114 -- I   116        0.31     -0.03      4.86413
 Cr   18 -- I    20        0.31     -0.03      4.86413
 Cr  162 -- I   164        0.31     -0.03      4.86413
 Cr  282 -- I   284        0.31     -0.03      4.86413
 Cr  186 -- I   188        0.31     -0.03      4.86413
 Cr  194 -- I   196        0.31     -0.03      4.86413
 Cr  202 -- I   204        0.31     -0.03      4.86413
 Cr   50 -- I    52        0.31     -0.03      4.86413
 Cr   58 -- I    60        0.31     -0.03      4.86413
 Cr  122 -- I   124        0.31     -0.03      4.86413
 Cr  266 -- I   268        0.31     -0.03      4.86413
 Cr  274 -- I   276        0.31     -0.03      4.86413
 Cr  130 -- I   132        0.31     -0.03      4.86413
 Cr  154 -- I   156        0.31     -0.03      4.86413
 Cr  170 -- I   172        0.31     -0.03      4.86413
 Cr   34 -- I    36        0.31     -0.03      4.86413
 Cr   10 -- I    12        0.31     -0.03      4.86413
 Cr  146 -- I   148        0.31     -0.03      4.86413
 Cr    2 -- I     4        0.31     -0.03      4.86413
 Cr   26 -- I    28        0.31     -0.03      4.86413
 Cr  242 -- I   244        0.31     -0.03      4.86413
 Cr  218 -- I   220        0.31     -0.03      4.86413
 Cr  178 -- I   180        0.31     -0.03      4.86413
 Cr   74 -- I    76        0.31     -0.03      4.86413
 Cr   98 -- I   100        0.31     -0.03      4.86413
 Cr  250 -- I   252        0.31     -0.03      4.86413
 Cr  226 -- I   228        0.31     -0.03      4.86413
 Cr  106 -- I   108        0.31     -0.03      4.86413
 Cr   82 -- I    84        0.31     -0.03      4.86413
 Cr  153 -- I   159        0.31     -0.03      4.86414
 Cr  177 -- I   183        0.31     -0.03      4.86414
 Cr   41 -- I    47        0.31     -0.03      4.86414
 Cr  161 -- I   167        0.31     -0.03      4.86414
 Cr    9 -- I    15        0.31     -0.03      4.86414
 Cr  185 -- I   191        0.31     -0.03      4.86414
 Cr   33 -- I    39        0.31     -0.03      4.86414
 Cr   17 -- I    23        0.31     -0.03      4.86414
 Cr  113 -- I   119        0.31     -0.03      4.86414
 Cr   89 -- I    95        0.31     -0.03      4.86414
 Cr  233 -- I   239        0.31     -0.03      4.86414
 Cr  257 -- I   263        0.31     -0.03      4.86414
 Cr  249 -- I   255        0.31     -0.03      4.86414
 Cr  225 -- I   231        0.31     -0.03      4.86414
 Cr   81 -- I    87        0.31     -0.03      4.86414
 Cr  105 -- I   111        0.31     -0.03      4.86414
 Cr  209 -- I   215        0.31     -0.03      4.86414
 Cr   65 -- I    71        0.31     -0.03      4.86414
 Cr   57 -- I    63        0.31     -0.03      4.86414
 Cr  137 -- I   143        0.31     -0.03      4.86414
 Cr  201 -- I   207        0.31     -0.03      4.86414
 Cr  281 -- I   287        0.31     -0.03      4.86414
 Cr  129 -- I   135        0.31     -0.03      4.86414
 Cr  273 -- I   279        0.31     -0.03      4.86414
 Cr   73 -- I    79        0.31     -0.03      4.86414
 Cr  217 -- I   223        0.31     -0.03      4.86414
 Cr  145 -- I   151        0.31     -0.03      4.86414
 Cr    1 -- I     7        0.31     -0.03      4.86414
 Cr  121 -- I   127        0.31     -0.03      4.86414
 Cr  241 -- I   247        0.31     -0.03      4.86414
 Cr   97 -- I   103        0.31     -0.03      4.86414
 Cr  265 -- I   271        0.31     -0.03      4.86414
 Cr   49 -- I    55        0.31     -0.03      4.86414
 Cr   25 -- I    31        0.31     -0.03      4.86414
 Cr  169 -- I   175        0.31     -0.03      4.86414
 Cr  193 -- I   199        0.31     -0.03      4.86414
 Cr  193 -- I   196        0.31     -0.03      4.86414
 Cr   49 -- I    52        0.31     -0.03      4.86414
 Cr  265 -- I   268        0.31     -0.03      4.86414
 Cr  121 -- I   124        0.31     -0.03      4.86414
 Cr  257 -- I   260        0.31     -0.03      4.86414
 Cr  169 -- I   172        0.31     -0.03      4.86414
 Cr  145 -- I   148        0.31     -0.03      4.86414
 Cr   65 -- I    68        0.31     -0.03      4.86414
 Cr  137 -- I   140        0.31     -0.03      4.86414
 Cr  185 -- I   188        0.31     -0.03      4.86414
 Cr  281 -- I   284        0.31     -0.03      4.86414
 Cr  209 -- I   212        0.31     -0.03      4.86414
 Cr  161 -- I   164        0.31     -0.03      4.86414
 Cr    1 -- I     4        0.31     -0.03      4.86414
 Cr   41 -- I    44        0.31     -0.03      4.86414
 Cr  113 -- I   116        0.31     -0.03      4.86414
 Cr  241 -- I   244        0.31     -0.03      4.86414
 Cr   25 -- I    28        0.31     -0.03      4.86414
 Cr   17 -- I    20        0.31     -0.03      4.86414
 Cr   89 -- I    92        0.31     -0.03      4.86414
 Cr  217 -- I   220        0.31     -0.03      4.86414
 Cr  233 -- I   236        0.31     -0.03      4.86414
 Cr   97 -- I   100        0.31     -0.03      4.86414
 Cr   73 -- I    76        0.31     -0.03      4.86414
 Cr  273 -- I   276        0.31     -0.03      4.86414
 Cr  201 -- I   204        0.31     -0.03      4.86414
 Cr  129 -- I   132        0.31     -0.03      4.86414
 Cr   57 -- I    60        0.31     -0.03      4.86414
 Cr   81 -- I    84        0.31     -0.03      4.86414
 Cr  105 -- I   108        0.31     -0.03      4.86414
 Cr  249 -- I   252        0.31     -0.03      4.86414
 Cr  225 -- I   228        0.31     -0.03      4.86414
 Cr  153 -- I   156        0.31     -0.03      4.86414
 Cr   33 -- I    36        0.31     -0.03      4.86414
 Cr  177 -- I   180        0.31     -0.03      4.86414
 Cr    9 -- I    12        0.31     -0.03      4.86414
 I    27 -- Cr  114        0.31     -0.03      5.11128
 I     3 -- Cr   90        0.31     -0.03      5.11128
 I    51 -- Cr  138        0.31     -0.03      5.11128
 Cr  266 -- I   275        0.31     -0.03      5.11128
 Cr  122 -- I   131        0.31     -0.03      5.11128
 Cr   74 -- I    83        0.31     -0.03      5.11128
 Cr   98 -- I   107        0.31     -0.03      5.11128
 Cr  242 -- I   251        0.31     -0.03      5.11128
 Cr  218 -- I   227        0.31     -0.03      5.11128
 Cr  146 -- I   155        0.31     -0.03      5.11128
 Cr  170 -- I   179        0.31     -0.03      5.11128
 Cr   50 -- I    59        0.31     -0.03      5.11128
 Cr    2 -- I    11        0.31     -0.03      5.11128
 Cr   26 -- I    35        0.31     -0.03      5.11128
 Cr  194 -- I   203        0.31     -0.03      5.11128
 I   171 -- Cr  258        0.31     -0.03      5.11128
 I   195 -- Cr  282        0.31     -0.03      5.11128
 I   147 -- Cr  234        0.31     -0.03      5.11128
 Cr  194 -- I   197        0.31     -0.03      5.11128
 Cr  210 -- I   213        0.31     -0.03      5.11128
 Cr  250 -- I   253        0.31     -0.03      5.11128
 Cr  242 -- I   245        0.31     -0.03      5.11128
 Cr   50 -- I    53        0.31     -0.03      5.11128
 Cr  234 -- I   237        0.31     -0.03      5.11128
 Cr  226 -- I   229        0.31     -0.03      5.11128
 Cr  218 -- I   221        0.31     -0.03      5.11128
 Cr   26 -- I    29        0.31     -0.03      5.11128
 Cr  154 -- I   157        0.31     -0.03      5.11128
 Cr  146 -- I   149        0.31     -0.03      5.11128
 Cr  106 -- I   109        0.31     -0.03      5.11128
 Cr  282 -- I   285        0.31     -0.03      5.11128
 Cr    2 -- I     5        0.31     -0.03      5.11128
 Cr  122 -- I   125        0.31     -0.03      5.11128
 Cr  130 -- I   133        0.31     -0.03      5.11128
 Cr   10 -- I    13        0.31     -0.03      5.11128
 Cr   58 -- I    61        0.31     -0.03      5.11128
 Cr   42 -- I    45        0.31     -0.03      5.11128
 Cr   82 -- I    85        0.31     -0.03      5.11128
 Cr   34 -- I    37        0.31     -0.03      5.11128
 Cr   18 -- I    21        0.31     -0.03      5.11128
 Cr  138 -- I   141        0.31     -0.03      5.11128
 Cr   98 -- I   101        0.31     -0.03      5.11128
 Cr   90 -- I    93        0.31     -0.03      5.11128
 Cr  114 -- I   117        0.31     -0.03      5.11128
 Cr   66 -- I    69        0.31     -0.03      5.11128
 Cr  202 -- I   205        0.31     -0.03      5.11128
 Cr  170 -- I   173        0.31     -0.03      5.11128
 Cr   74 -- I    77        0.31     -0.03      5.11128
 Cr  274 -- I   277        0.31     -0.03      5.11128
 Cr  162 -- I   165        0.31     -0.03      5.11128
 Cr  266 -- I   269        0.31     -0.03      5.11128
 Cr  178 -- I   181        0.31     -0.03      5.11128
 Cr  258 -- I   261        0.31     -0.03      5.11128
 Cr  186 -- I   189        0.31     -0.03      5.11128
 Cr  186 -- I   243        0.31     -0.03      5.11128
 Cr  210 -- I   267        0.31     -0.03      5.11128
 Cr  162 -- I   219        0.31     -0.03      5.11128
 Cr  274 -- I   283        0.31     -0.03      5.11128
 Cr  130 -- I   139        0.31     -0.03      5.11128
 Cr   82 -- I    91        0.31     -0.03      5.11128
 Cr  106 -- I   115        0.31     -0.03      5.11128
 Cr   34 -- I    43        0.31     -0.03      5.11128
 Cr   58 -- I    67        0.31     -0.03      5.11128
 Cr  226 -- I   235        0.31     -0.03      5.11128
 Cr  202 -- I   211        0.31     -0.03      5.11128
 Cr  178 -- I   187        0.31     -0.03      5.11128
 Cr   10 -- I    19        0.31     -0.03      5.11128
 Cr  154 -- I   163        0.31     -0.03      5.11128
 Cr  250 -- I   259        0.31     -0.03      5.11128
 Cr   18 -- I    75        0.31     -0.03      5.11128
 Cr   66 -- I   123        0.31     -0.03      5.11128
 Cr   42 -- I    99        0.31     -0.03      5.11128
 Cr  234 -- I   240        0.31     -0.03      5.11128
 Cr  138 -- I   144        0.31     -0.03      5.11128
 Cr  282 -- I   288        0.31     -0.03      5.11128
 Cr  258 -- I   264        0.31     -0.03      5.11128
 Cr  114 -- I   120        0.31     -0.03      5.11128
 Cr   90 -- I    96        0.31     -0.03      5.11128
 Cr  242 -- I   248        0.31     -0.03      5.11128
 Cr  122 -- I   128        0.31     -0.03      5.11128
 Cr  218 -- I   224        0.31     -0.03      5.11128
 Cr  194 -- I   200        0.31     -0.03      5.11128
 Cr   98 -- I   104        0.31     -0.03      5.11128
 Cr   74 -- I    80        0.31     -0.03      5.11128
 Cr  210 -- I   216        0.31     -0.03      5.11128
 Cr   42 -- I    48        0.31     -0.03      5.11128
 Cr   66 -- I    72        0.31     -0.03      5.11128
 Cr   50 -- I    56        0.31     -0.03      5.11128
 Cr   18 -- I    24        0.31     -0.03      5.11128
 Cr   26 -- I    32        0.31     -0.03      5.11128
 Cr   10 -- I    16        0.31     -0.03      5.11128
 Cr  250 -- I   256        0.31     -0.03      5.11128
 Cr    2 -- I     8        0.31     -0.03      5.11128
 Cr   34 -- I    40        0.31     -0.03      5.11128
 Cr  146 -- I   152        0.31     -0.03      5.11128
 Cr  266 -- I   272        0.31     -0.03      5.11128
 Cr  154 -- I   160        0.31     -0.03      5.11128
 Cr   58 -- I    64        0.31     -0.03      5.11128
 Cr  202 -- I   208        0.31     -0.03      5.11128
 Cr  162 -- I   168        0.31     -0.03      5.11128
 Cr  170 -- I   176        0.31     -0.03      5.11128
 Cr  178 -- I   184        0.31     -0.03      5.11128
 Cr  130 -- I   136        0.31     -0.03      5.11128
 Cr  226 -- I   232        0.31     -0.03      5.11128
 Cr  106 -- I   112        0.31     -0.03      5.11128
 Cr   82 -- I    88        0.31     -0.03      5.11128
 Cr  186 -- I   192        0.31     -0.03      5.11128
 Cr  274 -- I   280        0.31     -0.03      5.11128
 Cr  130 -- I   142        0.31     -0.03      5.11128
 Cr  274 -- I   286        0.31     -0.03      5.11128
 Cr  250 -- I   262        0.31     -0.03      5.11128
 Cr  226 -- I   238        0.31     -0.03      5.11128
 Cr  106 -- I   118        0.31     -0.03      5.11128
 Cr   82 -- I    94        0.31     -0.03      5.11128
 Cr  266 -- I   278        0.31     -0.03      5.11128
 Cr  242 -- I   254        0.31     -0.03      5.11128
 Cr  218 -- I   230        0.31     -0.03      5.11128
 Cr  194 -- I   206        0.31     -0.03      5.11128
 Cr  122 -- I   134        0.31     -0.03      5.11128
 Cr   34 -- I    46        0.31     -0.03      5.11128
 Cr  154 -- I   166        0.31     -0.03      5.11128
 Cr   26 -- I    38        0.31     -0.03      5.11128
 Cr   10 -- I    22        0.31     -0.03      5.11128
 Cr   58 -- I    70        0.31     -0.03      5.11128
 Cr   50 -- I    62        0.31     -0.03      5.11128
 Cr    2 -- I    14        0.31     -0.03      5.11128
 Cr  170 -- I   182        0.31     -0.03      5.11128
 Cr   74 -- I    86        0.31     -0.03      5.11128
 Cr   98 -- I   110        0.31     -0.03      5.11128
 Cr  146 -- I   158        0.31     -0.03      5.11128
 Cr  202 -- I   214        0.31     -0.03      5.11128
 Cr  178 -- I   190        0.31     -0.03      5.11128
 I   198 -- Cr  282        0.31     -0.03      5.11128
 I   150 -- Cr  234        0.31     -0.03      5.11128
 I   174 -- Cr  258        0.31     -0.03      5.11128
 I    54 -- Cr  138        0.31     -0.03      5.11128
 I     6 -- Cr   90        0.31     -0.03      5.11128
 I    30 -- Cr  114        0.31     -0.03      5.11128
 Cr   18 -- I    78        0.31     -0.03      5.11128
 Cr   42 -- I   102        0.31     -0.03      5.11128
 Cr   66 -- I   126        0.31     -0.03      5.11128
 Cr  210 -- I   270        0.31     -0.03      5.11128
 Cr  162 -- I   222        0.31     -0.03      5.11128
 Cr  186 -- I   246        0.31     -0.03      5.11128
 Cr  265 -- I   270        0.31     -0.03      5.11131
 Cr  241 -- I   246        0.31     -0.03      5.11131
 Cr  217 -- I   222        0.31     -0.03      5.11131
 Cr   97 -- I   102        0.31     -0.03      5.11131
 Cr   73 -- I    78        0.31     -0.03      5.11131
 Cr  121 -- I   126        0.31     -0.03      5.11131
 Cr  249 -- I   280        0.31     -0.03      5.11131
 Cr  185 -- I   216        0.31     -0.03      5.11131
 Cr  161 -- I   192        0.31     -0.03      5.11131
 Cr  153 -- I   184        0.31     -0.03      5.11131
 Cr  177 -- I   208        0.31     -0.03      5.11131
 Cr   89 -- I   120        0.31     -0.03      5.11131
 Cr   33 -- I    64        0.31     -0.03      5.11131
 Cr  129 -- I   232        0.31     -0.03      5.11131
 Cr  113 -- I   144        0.31     -0.03      5.11131
 Cr  233 -- I   264        0.31     -0.03      5.11131
 Cr   41 -- I    72        0.31     -0.03      5.11131
 Cr   17 -- I    48        0.31     -0.03      5.11131
 Cr  105 -- I   136        0.31     -0.03      5.11131
 Cr   81 -- I   112        0.31     -0.03      5.11131
 Cr  137 -- I   240        0.31     -0.03      5.11131
 Cr    9 -- I    40        0.31     -0.03      5.11131
 Cr  225 -- I   256        0.31     -0.03      5.11131
 Cr  257 -- I   288        0.31     -0.03      5.11131
 Cr  145 -- I   176        0.31     -0.03      5.11131
 Cr  121 -- I   224        0.31     -0.03      5.11131
 Cr  241 -- I   272        0.31     -0.03      5.11131
 Cr   73 -- I   104        0.31     -0.03      5.11131
 Cr    1 -- I    32        0.31     -0.03      5.11131
 Cr   97 -- I   128        0.31     -0.03      5.11131
 Cr   25 -- I    56        0.31     -0.03      5.11131
 Cr  169 -- I   200        0.31     -0.03      5.11131
 Cr  217 -- I   248        0.31     -0.03      5.11131
 Cr  273 -- I   278        0.31     -0.03      5.11131
 Cr   81 -- I    86        0.31     -0.03      5.11131
 Cr  105 -- I   110        0.31     -0.03      5.11131
 Cr  281 -- I   286        0.31     -0.03      5.11131
 Cr  129 -- I   134        0.31     -0.03      5.11131
 Cr  249 -- I   254        0.31     -0.03      5.11131
 Cr  225 -- I   230        0.31     -0.03      5.11131
 Cr  137 -- I   142        0.31     -0.03      5.11131
 Cr  257 -- I   262        0.31     -0.03      5.11131
 Cr   65 -- I    70        0.31     -0.03      5.11131
 Cr   57 -- I    62        0.31     -0.03      5.11131
 Cr  113 -- I   118        0.31     -0.03      5.11131
 Cr   41 -- I    46        0.31     -0.03      5.11131
 Cr   17 -- I    22        0.31     -0.03      5.11131
 Cr  233 -- I   238        0.31     -0.03      5.11131
 Cr    9 -- I    14        0.31     -0.03      5.11131
 Cr  201 -- I   206        0.31     -0.03      5.11131
 Cr   89 -- I    94        0.31     -0.03      5.11131
 Cr  177 -- I   182        0.31     -0.03      5.11131
 Cr  161 -- I   166        0.31     -0.03      5.11131
 Cr   33 -- I    38        0.31     -0.03      5.11131
 Cr  153 -- I   158        0.31     -0.03      5.11131
 Cr  185 -- I   190        0.31     -0.03      5.11131
 Cr  209 -- I   214        0.31     -0.03      5.11131
 Cr   65 -- I   168        0.31     -0.03      5.11131
 Cr   57 -- I   160        0.31     -0.03      5.11131
 Cr   49 -- I   152        0.31     -0.03      5.11131
 Cr  153 -- I   181        0.31     -0.03      5.11131
[...]
*    I     148     -0.00132677  -0.00230187  -0.00479896 *
*    I     149     -0.00133634   0.00233273  -0.00479429 *
*    I     150     -0.00268812  -0.00000703   0.00479463 *
*    I     151      0.00133114   0.00230019   0.00479865 *
*    I     152      0.00133421  -0.00233431   0.00479459 *
*    Cr    153      0.00001013  -0.00000169   0.00000020 *
*    Cr    154     -0.00002207  -0.00000646  -0.00000069 *
*    I     155      0.00268899   0.00001563  -0.00479485 *
*    I     156     -0.00132653  -0.00230132  -0.00479724 *
*    I     157     -0.00133496   0.00233246  -0.00479565 *
*    I     158     -0.00268755  -0.00000583   0.00479380 *
*    I     159      0.00133002   0.00229917   0.00479764 *
*    I     160      0.00133323  -0.00233176   0.00479427 *
*    Cr    161      0.00001032  -0.00000705  -0.00000012 *
*    Cr    162     -0.00002719   0.00001480   0.00000036 *
*    I     163      0.00268681   0.00001450  -0.00479417 *
*    I     164     -0.00132546  -0.00230365  -0.00479800 *
*    I     165     -0.00134171   0.00232118  -0.00478648 *
*    I     166     -0.00268881  -0.00001004   0.00479478 *
*    I     167      0.00133218   0.00230031   0.00479782 *
*    I     168      0.00131971  -0.00233583   0.00478744 *
*    Cr    169     -0.00000626  -0.00000219  -0.00000132 *
*    Cr    170     -0.00001844   0.00000492  -0.00000154 *
*    I     171      0.00268578   0.00000762  -0.00478958 *
*    I     172     -0.00132861  -0.00229582  -0.00479331 *
*    I     173     -0.00133003   0.00233386  -0.00479137 *
*    I     174     -0.00267993  -0.00001537   0.00478610 *
*    I     175      0.00132421   0.00229812   0.00479381 *
*    I     176      0.00133694  -0.00232734   0.00479013 *
*    Cr    177     -0.00002211   0.00001353  -0.00000171 *
*    Cr    178      0.00001083  -0.00000638  -0.00000187 *
*    I     179      0.00268551   0.00000745  -0.00479073 *
*    I     180     -0.00132587  -0.00230077  -0.00479837 *
*    I     181     -0.00133651   0.00233067  -0.00479439 *
*    I     182     -0.00268483  -0.00001467   0.00479101 *
*    I     183      0.00132923   0.00229927   0.00479857 *
*    I     184      0.00133197  -0.00233673   0.00479473 *
*    Cr    185      0.00000618  -0.00000860   0.00000004 *
*    Cr    186     -0.00000530   0.00002093  -0.00000064 *
*    I     187      0.00268659   0.00001090  -0.00479273 *
*    I     188     -0.00132434  -0.00230094  -0.00479748 *
*    I     189     -0.00133602   0.00233204  -0.00479368 *
*    I     190     -0.00268976  -0.00001030   0.00479531 *
*    I     191      0.00133060   0.00230032   0.00479794 *
*    I     192      0.00133223  -0.00233624   0.00479519 *
*    Cr    193      0.00000412  -0.00000399   0.00000016 *
*    Cr    194     -0.00001686   0.00000780  -0.00000045 *
*    I     195      0.00268739   0.00001085  -0.00479504 *
*    I     196     -0.00133015  -0.00229471  -0.00479182 *
*    I     197     -0.00132687   0.00233018  -0.00478790 *
*    I     198     -0.00268744  -0.00001035   0.00479696 *
*    I     199      0.00132195   0.00229941   0.00479125 *
*    I     200      0.00133712  -0.00232756   0.00478898 *
*    Cr    201     -0.00000143   0.00000806  -0.00000219 *
*    Cr    202     -0.00001369   0.00001439  -0.00000154 *
*    I     203      0.00268260   0.00000355  -0.00478689 *
*    I     204     -0.00132993  -0.00229276  -0.00479098 *
*    I     205     -0.00132940   0.00233025  -0.00478685 *
*    I     206     -0.00268295  -0.00002021   0.00478949 *
*    I     207      0.00132164   0.00229962   0.00479055 *
*    I     208      0.00133742  -0.00232760   0.00478842 *
*    Cr    209     -0.00001522   0.00001328   0.00000075 *
*    Cr    210      0.00001177   0.00001332   0.00000040 *
*    I     211      0.00268206   0.00000342  -0.00478602 *
*    I     212     -0.00132686  -0.00230224  -0.00479747 *
*    I     213     -0.00133831   0.00233159  -0.00479372 *
*    I     214     -0.00268354  -0.00001649   0.00478720 *
*    I     215      0.00133044   0.00230165   0.00479840 *
*    I     216      0.00133261  -0.00233456   0.00479440 *
*    Cr    217      0.00000338  -0.00002937   0.00000021 *
*    Cr    218     -0.00003108  -0.00001145   0.00000082 *
*    I     219      0.00268139   0.00002156  -0.00478573 *
*    I     220     -0.00131215  -0.00229575  -0.00478375 *
*    I     221     -0.00102971   0.00276585  -0.00514620 *
*    I     222     -0.00268293   0.00000003   0.00478677 *
*    I     223      0.00132725   0.00229387   0.00478066 *
*    I     224      0.00186348  -0.00228664   0.00514780 *
*    Cr    225      0.00000378  -0.00001479  -0.00000129 *
*    Cr    226     -0.00003303  -0.00001182  -0.00000102 *
*    I     227      0.00267628   0.00001270  -0.00477491 *
*    I     228     -0.00131685  -0.00230085  -0.00478876 *
*    I     229     -0.00134234   0.00232066  -0.00478556 *
*    I     230     -0.00267136   0.00000051   0.00477985 *
*    I     231      0.00133630   0.00229144   0.00478940 *
*    I     232      0.00132078  -0.00233349   0.00478648 *
*    Cr    233     -0.00000216  -0.00000348  -0.00000078 *
*    Cr    234     -0.00003180  -0.00000451  -0.00000038 *
*    I     235      0.00268832   0.00001219  -0.00479391 *
*    I     236     -0.00132618  -0.00230111  -0.00479885 *
*    I     237     -0.00134411   0.00232153  -0.00478622 *
*    I     238     -0.00268627  -0.00000800   0.00479444 *
*    I     239      0.00133068   0.00229969   0.00479820 *
*    I     240      0.00132317  -0.00233232   0.00478595 *
*    Cr    241      0.00000796  -0.00003377  -0.00000120 *
*    Cr    242     -0.00001473  -0.00000236  -0.00000150 *
*    I     243      0.00268657   0.00001185  -0.00479377 *
*    I     244     -0.00132863  -0.00229762  -0.00479365 *
*    I     245     -0.00133547   0.00232082  -0.00478018 *
*    I     246     -0.00268702  -0.00001013   0.00479551 *
*    I     247      0.00132484   0.00230096   0.00479363 *
*    I     248      0.00132406  -0.00232803   0.00478151 *
*    Cr    249      0.00000579  -0.00001502  -0.00000149 *
*    Cr    250     -0.00001679  -0.00000362  -0.00000114 *
*    I     251      0.00268225   0.00000852  -0.00478942 *
*    I     252     -0.00132581  -0.00230037  -0.00479655 *
*    I     253     -0.00134007   0.00232057  -0.00478516 *
*    I     254     -0.00268152  -0.00001123   0.00478853 *
*    I     255      0.00133080   0.00230162   0.00479967 *
*    I     256      0.00132320  -0.00232984   0.00478420 *
*    Cr    257     -0.00000057  -0.00001118   0.00000053 *
*    Cr    258     -0.00002140   0.00000184  -0.00000024 *
*    I     259      0.00268714   0.00001278  -0.00479422 *
*    I     260     -0.00133113  -0.00229274  -0.00479115 *
*    I     261     -0.00132551   0.00233334  -0.00478777 *
*    I     262     -0.00268513  -0.00000671   0.00479395 *
*    I     263      0.00132134   0.00230152   0.00479178 *
*    I     264      0.00133885  -0.00232300   0.00478690 *
*    Cr    265      0.00001201  -0.00002990  -0.00000053 *
*    Cr    266     -0.00000157  -0.00000428  -0.00000053 *
*    I     267      0.00268748   0.00001182  -0.00479459 *
*    I     268     -0.00132896  -0.00229632  -0.00479444 *
*    I     269     -0.00133132   0.00233252  -0.00478973 *
*    I     270     -0.00268645  -0.00000543   0.00479436 *
*    I     271      0.00132367   0.00230043   0.00479378 *
*    I     272      0.00133635  -0.00232760   0.00479027 *
*    Cr    273      0.00001239  -0.00001677  -0.00000043 *
*    Cr    274     -0.00001001  -0.00000562   0.00000067 *
*    I     275      0.00268469   0.00000970  -0.00479050 *
*    I     276     -0.00133003  -0.00229330  -0.00479115 *
*    I     277     -0.00132737   0.00233210  -0.00478730 *
*    I     278     -0.00268241  -0.00001142   0.00478961 *
*    I     279      0.00132209   0.00230129   0.00479188 *
*    I     280      0.00133832  -0.00232311   0.00478712 *
*    Cr    281      0.00000899  -0.00000876  -0.00000011 *
*    Cr    282     -0.00001156   0.00000373   0.00000003 *
*    I     283      0.00268296   0.00000801  -0.00478884 *
*    I     284     -0.00132641  -0.00230143  -0.00479786 *
*    I     285     -0.00133331   0.00233292  -0.00479563 *
*    I     286     -0.00268222  -0.00001492   0.00478735 *
*    I     287      0.00132925   0.00229857   0.00479924 *
*    I     288      0.00133373  -0.00233162   0.00479415 *
*                                                        *
**********************************************************
* TOTAL:            0.00000000   0.00000000   0.00000000 *
**********************************************************
 
 
***********************************************************
********** Summary of Forces (values in Eh/a) *************
*                                                         *
* ---------------------- Minimum ------------------------ *
* Atom:        17, |F|min =    0.00000370                 *
* Components:     Fx|min       Fy|min       Fz|min        *
*               0.00000005   0.00000351  -0.00000118      *
*                                                         *
* ---------------------- Maximum ------------------------ *
* Atom:       126, |F|max =    0.00593365                 *
* Components:     Fx|max       Fy|max       Fz|max        *
*              -0.00291057  -0.00049692   0.00514683      *
*                                                         *
* ---------------- Root Mean Square Force --------------- *
*                  |F|rms =    0.00476254                 *
* Components:     Fx|rms       Fy|rms       Fz|rms        *
*               0.00164342   0.00164100   0.00415790      *
***********************************************************
 

------------------------------ TIMING INFORMATION ------------------------------
AVERAGE TIME:   23959.128s on     56 proc(s)                                    
TOTAL TIME:     23959.128s on     56 proc(s)                                    
==================== AVERAGE TIMINGS FROM ALL PROCS (CUMULATIVE) =====================
|| TAG                                         #calls     cpu time   %total  Gflops ||
|| hubbard_species_proj                       :     1        0.00s   0.000%  ------ ||
|| hubbard_ngwf_on_grid                       :     1        0.00s   0.000%  ------ ||
|| linalg_invert_sym_matrix                   :     4        0.01s   0.000%  ------ || (1 procs only)
|| sw_bessel_init_cpu                         :     1        0.01s   0.000%  ------ || (1 procs only)
|| hubbard_tensorial_correction               :     2        0.00s   0.000%  ------ ||
|| hubbard_projector_character                :     1        0.00s   0.000%  ------ ||
|| hubbard_ngwf_select                        :     1        0.00s   0.000%  ------ ||
|| hash_table_free                            :    49        0.00s   0.000%  ------ ||
|| density_fftbox_interp_mult_imbal           : 17688        0.00s   0.000%  ------ ||
|| ewald_calculate_forces_realspace           :     1        0.00s   0.000%  ------ ||
|| onetep.F90 final imbalance                 :     1        0.01s   0.000%  ------ ||
|| linalg_dgemv                               :    44        0.02s   0.000%  ------ ||
|| sparse_blacstospam3_real_fast_imbal        :    96        0.04s   0.000%  ------ ||
|| ewald_calculate_energy                     :     1        0.04s   0.000%  ------ ||
|| sparse_set_to_garbage                      :  1070        0.05s   0.000%  ------ ||
|| ewald_calculate_forces_recipspace          :     1        0.09s   0.000%  ------ ||
|| paw_tcore_hartree_on_grid                  :     1        0.09s   0.000%  ------ ||
|| paw_dij_hartree                            :   297        0.13s   0.001%  ------ ||
|| sw_init                                    :   535        0.13s   0.001%  ------ ||
|| pseudo_make_structure_factor               :     1        0.15s   0.001%  ------ ||
|| onetep.F90 main loop imbalance             :     1        0.16s   0.001%  ------ ||
|| restart_hamiltonian_write                  :     2        0.17s   0.001%  ------ ||
|| sparse_spam3toblacs_real_fast_B2           :  4592        0.18s   0.001%  ------ ||
|| ewald_calculate_forces                     :     1        0.25s   0.001%  ------ ||
|| sparse_spam3toblacs_real_fast_imbal        :    82        0.33s   0.001%  ------ ||
|| augmentation_density_forces                :     1        0.37s   0.002%  ------ ||
|| sparse_init                                :     1        0.37s   0.002%  ------ ||
|| hubbard_projection_mtx                     :    51        0.40s   0.002%  ------ ||
|| basis_extract_function_from_box            :  3085        0.61s   0.003%  ------ ||
|| paw_tcore_hartree_calc_forces              :     1        0.72s   0.003%  ------ ||
|| hubbard_projector_ham                      :   127        1.05s   0.004%  ------ ||
|| hubbard_ham_matrix                         :   128        1.40s   0.006%  ------ ||
|| paw_tcore_density                          :     1        1.76s   0.007%  ------ ||
|| sparse_spam3toblacs_real_fast_B1           :  4592        2.04s   0.008%  ------ ||
|| paw_dataset_init                           :     2        2.15s   0.009%  ------ ||
|| paw_nlcc_calculate_forces                  :     1        2.51s   0.010%  ------ ||
|| paw_sphere_density_on_grid                 :     1        2.79s   0.012%  ------ ||
|| restart_kernel_write                       :    26        2.86s   0.012%  ------ ||
|| sparse_spam3toblacs_real_fast              :    82        2.93s   0.012%  ------ ||
|| nonsc_forces_ngwfs_calc                    :     1        3.00s   0.013%  ------ ||
|| hubbard_energy_total                       :   270        3.24s   0.014%  ------ ||
|| sparse_blacstospam3_real_fast              :    96        5.40s   0.023%  ------ ||
|| ngwfs_initialise_from_radial               :     4        5.80s   0.024%  ------ ||
|| paw_species_calc_proj_prec_mat             :     1        5.80s   0.024%  ------ ||
|| sparse_embed_array_hotelling_invert        :    49        6.91s   0.029%  ------ ||
|| dense_eigensolve                           :    38       10.38s   0.043%  ------ ||
|| hubbard_calculate_forces                   :     1       10.86s   0.045%  ------ ||
|| edft_diag_ngwf_ham                         :    36       12.27s   0.051%  ------ ||
|| integrals_grad_spam3                       :     4       13.79s   0.058%  ------ ||
|| sparse_trace                               :  9226       15.18s   0.063%  ------ ||
|| kernel_purify                              :   388       17.77s   0.074%  ------ ||
|| edft_apply_smearing_operator               :    18       18.68s   0.078%  ------ ||
|| energy_and_force_init_cell                 :     1       20.67s   0.086%  ------ ||
|| ngwf_gradient_coeffs                       :    24       21.36s   0.089%  ------ ||
|| lnv_gradient_norm                          :   120       22.47s   0.094%  ------ ||
|| kernel_fix                                 :   120       23.13s   0.097%  ------ ||
|| fourier_filter_cell                        :   306       24.58s   0.103% 138.209 ||
|| hubbard_projector_update                   :     1       30.32s   0.127%  ------ ||
|| basis_copy_function_to_box                 : 30921       30.81s   0.129%  ------ ||
|| eigenstates_calculate                      :     1       32.24s   0.135%  ------ ||
|| hartree_on_grid_single                     :   267       35.21s   0.147%  ------ ||
|| fourier_apply_box_pair                     :  4728       36.07s   0.151%  1.782k ||
|| hamiltonian_energy_components              :     1       37.33s   0.156%  ------ ||
|| projectors_func_grad_ovlp_box_spam3        :     6       40.69s   0.170%  ------ ||
|| aug_nl_calculate_forces                    :     1       41.78s   0.174%  ------ ||
|| fourier_interpolate_cell                   :   536       43.17s   0.180% 137.843 ||
|| density_init_guess_real                    :     2       58.25s   0.243%  ------ ||
|| augmentation_screen_dij_spam3              :   266       87.54s   0.365%  ------ ||
|| cell_grid_deposit_box_real                 : 21738      111.21s   0.464%  ------ ||
|| forces_calculate                           :     1      127.84s   0.534%  ------ ||
|| sparse_product                             : 17672      128.54s   0.537%  ------ ||
|| aug_nonlocal_mat_spam3_embed_array         :   272      138.94s   0.580%  ------ ||
|| paw_dij_xc                                 :   297      144.90s   0.605%  ------ ||
|| fourier_apply_cell_backward                :  2404      158.12s   0.660% 151.876 ||
|| fourier_filter                             :  5748      176.76s   0.738%  ------ ||
|| restart_ngwfs_tightbox_output              :    23      177.91s   0.743%  ------ ||
|| fourier_apply_cell_forward                 :  2404      180.42s   0.753% 133.106 ||
|| aug_density_on_grid_spam3                  :   268      194.05s   0.810%  ------ ||
|| projectors_init_fftbox_recip               :   641      228.57s   0.954%  ------ ||
|| fourier_interpolate                        :  5748      273.46s   1.141%  ------ ||
|| cell_grid_extract_box_real                 : 13546      285.30s   1.191%  ------ ||
|| function_ops_brappd_ketppd_spam3           :   200      311.72s   1.301%  ------ ||
|| xc_energy_potential                        :   267      373.09s   1.557%  ------ ||
|| properties_calculate                       :     1      459.63s   1.918%  ------ ||
|| density_fftbox_deposit_to_cell             : 17688      728.06s   3.039%  ------ ||
|| projectors_func_ovlp_box_spam3             :   202      774.21s   3.231%  ------ ||
|| integrals_kinetic_spam3                    :    98      836.86s   3.493%  ------ ||
|| edft_calculate                             :     1      900.92s   3.760%  ------ ||
|| basis_dot_function_with_box                : 10.75M    1180.87s   4.929%  ------ ||
|| potential_apply_to_ngwf_batch              :   770     1355.62s   5.658%  ------ ||
|| projectors_gradient_batch                  :   288     1561.84s   6.519%  ------ ||
|| fourier_apply_box                          : 94903     2286.66s   9.544%  1.874k ||
|| integrals_locpot_mat_els_batch             :   770     2329.85s   9.724%  ------ ||
|| fourier_interpolate_product                : 17228     2480.30s  10.352%  ------ ||
|| density_fftbox_interpolate_multiply        : 17688     2612.69s  10.905%  ------ ||
|| basis_add_function_to_box                  : 21.45M    2631.67s  10.984%  ------ ||
|| projectors_grad_precond_batch              :   144     3084.64s  12.875%  ------ ||
|| integrals_locpot_dbl_grid                  :   258     3688.66s  15.396%  ------ ||
|| density_batch_interp_deposit               :  1608     4178.10s  17.438%  ------ ||
|| density_batch_row_sums                     :  1608     4748.41s  19.819%  ------ ||
|| ngwf_gradient_build_batch                  :   144     5144.58s  21.472%  ------ ||
|| ngwf_gradient_batch                        :   144     7372.06s  30.769%  ------ ||
|| ngwf_gradient_lnv                          :    24     7487.64s  31.252%  ------ ||
|| density_on_dbl_grid                        :   536     8999.43s  37.562%  ------ ||
|| hamiltonian_lhxc_calculate                 :   264     9657.52s  40.308%  ------ ||
|| lnv_denskernel_optimise_cg                 :    24    11674.99s  48.729%  ------ ||
|| ngwf_cg_optimise                           :     1    22264.43s  92.927%  ------ ||
|| energy_and_forces                          :     1    23936.95s  99.907%  ------ ||
|| total_time                                 :     1    23959.13s 100.000%  ------ ||
======================================================================================
Overhead of generating timer report: 
- 0 ms averaging over threads,
- 14 ms ensuring consistency across MPI ranks,
- 27 ms printing in order.

Job completed: 21-10-2024 22:52 (+0100)

onetep_launcher: ONETEP seems to have finished correctly (zero exit code).
                 Brought to you by PID 130558 on nid004992.
