==================================================================================
It's Mon 21 Oct 2024 04:13:37 PM BST.
*** Starting onetep_launcher (node nid001054, PIDs 227761 227762 227763 227764 227765 227766 227767 227768)...
    - ONETEP arguments: U_0.2_0.dat
    - Current directory: /mnt/lustre/a2fs-work3/work/e89/e89/phsmea/U_det_2/U_0.2_0
    - Launcher executable directory: /mnt/lustre/a2fs-work3/work/e89/e89/phsmea/U_det_2/U_0.2_0
    - (-e) ONETEP executable specified through command-line: /work/e89/e89/phsmea/onetep.archer2_2024_cray
      ... trying /work/e89/e89/phsmea/onetep.archer2_2024_cray
          -> looks OK
*** Setting up environment...
    - (-s) Process stack size: unlimited
    - (-t) OMP_NUM_THREADS: 16
    - (-o) OMP_STACKSIZE: 64M
    - (-c) Maximum core file size: 2048000
    - (-d) decfort_dump_flag: n
    - (-m) I_MPI_OFA_TRANSLATION_CACHE: 0
    - (-m) I_MPI_DAPL_TRANSLATION_CACHE: 0
    - (-m) I_MPI_DAPL_UD_TRANSLATION_CACHE: 0
*** Starting ONETEP...
    - /work/e89/e89/phsmea/onetep.archer2_2024_cray U_0.2_0.dat
=================================================================================
_________________________________________________________________________________
 +---------------------------------------------------------------+
 |                                                               |
 |        ####### #     # ####### ####### ####### ######         |
 |        #     # ##    # #          #    #       #     #        |
 |        #     # # #   # #          #    #       #     #        |
 |        #     # #  #  # #####      #    #####   ######         |
 |        #     # #   # # #          #    #       #              |
 |        #     # #    ## #          #    #       #              |
 |        ####### #     # #######    #    ####### #              |
 |                                                               |
 |        Linear-Scaling Ab Initio Total Energy Program          |
 |                                                               |
 |          Release for academic collaborators of ODG            |
 |                                             Version 7.3.0     |
 | Remote: git@github.com:Miesaz/onetep_mea.git                  |
 | Local branch: master                                          |
 | Commit ID: 4af45e89288c8df5499704252eec3e032ee3d0c8           |
 | Date: Tue Aug 6 11:28:44 2024 +0100                           |
 | Working tree clean                                            |
 |                                                               |
 +---------------------------------------------------------------+
 |                                                               |
 |  Authors:                                                     |
 |  Jacek Dziedzic, Peter D. Haynes, Nicholas D. M. Hine,        |
 |  Arash A. Mostofi, Mike C. Payne and Chris-Kriton Skylaris    |
 |                                                               |
 |  Contributors:                                                |
 |  J. Aarons, L. Andrinopoulos, P. W. Avraam, R. A. Bell,       |
 |  A. Bhandari, G. A. Bramley, R. J. Charlton, S. J. Clark,     |
 |  R. J. Clements, G. C. Constantinescu, F. Corsetti,           |
 |  N. Corsini, O. Dieguez, S. M. M. Dubois, K. K. B. Duff,      |
 |  J. M. Escartin, M. Escobar Azor, A. Greco,                   |
 |  H. Helal, Q. O. Hill, L. P. Lee, J.-H. Li,                   |
 |  T. Li, E. B. Linscott, G. Moynihan, D. D. O`Regan,           |
 |  O. K. Okan, E. Parkinson, M. J. S. Phipps,                   |
 |  C. J. Pickard, J. C. A. Prentice, M. I. J. Probert,          |
 |  L. E. Ratcliff, M. Robinson, A. Ruiz Serrano,                |
 |  M. dos Santos Dias, J. S. Spencer, E. W. Tait,               |
 |  G. Teobaldi, D. Turban, V. Vitale, K. A. Wilkinson,          |
 |  C. Weber, J. C. Womack, Chengcheng Xiao, N. Yeung,           |
 |  and T. J. Zuehlsdorff.                                       |
 |                                                               |
 |                                   Copyright (c) 2004-2024     |
 |                                                               |
 |  Please cite:                                                 |
 |  "The ONETEP linear-scaling density functional theory program"|
 |   J. Chem. Phys. 152(17) 174111 (2020)                        |
 |                                                               |
 |          in all publications arising from your use of ONETEP. |
 |                                                               |
 +---------------------------------------------------------------+
 |                                                               |
 |   ONETEP is based on developments described in the following  |
 |   publications:                                               |
 |                                                               |
 |  "Nonorthogonal generalized Wannier function pseudopotential  |
 |   plane-wave method".                                         |
 |   C.-K. Skylaris, A. A. Mostofi, P. D. Haynes, O. Dieguez,    |
 |   M. C. Payne.                                                |
 |   Phys. Rev. B 66 035119 (2002).                              |
 |                                                               |
 |  "Preconditioned iterative minimization for linear-scaling    |
 |   electronic structure calculations".                         |
 |   A. A. Mostofi, P. D. Haynes, C.-K. Skylaris, M. C. Payne.   |
 |   J. Chem. Phys. 119(17), pp.8842-8848 (2003).                |
 |                                                               |
 |  "Total-energy calculations on a real space grid with         |
 |   localized functions and a plane-wave basis".                |
 |   A. A. Mostofi, C.-K. Skylaris, P. D. Haynes, M. C. Payne.   |
 |   Comput. Phys. Commun. 147, pp.788-802 (2002).               |
 |                                                               |
 |  "Accurate kinetic energy evaluation in electronic structure  |
 |   calculations with localized functions on real space grids"  |
 |   C.-K. Skylaris, A. A. Mostofi, P. D. Haynes, C. J. Pickard, |
 |   M. C. Payne.                                                |
 |   Comput. Phys. Commun. 140, pp.315-322 (2001).               |
 |                                                               |
 |  "Accurate ionic forces and geometry optimization in linear-  |
 |   scaling density-functional theory with local orbitals"      |
 |   N. D. M. Hine, M. Robinson, P. D. Haynes, C.-K. Skylaris,   |
 |   M. C. Payne, and A. A. Mostofi.                             |
 |   Phys. Rev. B 83 195102 (2011).                              |
 |                                                               |
 +---------------------------------------------------------------+

Job started: 21-10-2024 16:13 (+0100)
 
Reading parameters from file "U_0.2_0.dat" ...
WARNING in get_rundat: hubbard_calculating_u is TRUE, so do_properties will be
overridden to TRUE.
... done

If your calculation crashes here, before "Checking processes and threads..."
is displayed, then your stack size is insufficient.
If so, use "ulimit -s unlimited" at runtime.
You can disable this check with "check_stack_size F".

Checking processes and threads...
   Running with 56 MPI processes.
   There are 8 MPI processes running on the same node as the root process.
   Each MPI process is using: 
               1 threads for simulation cell FFTs.
               1 threads for threaded FFT box operations.
              16 threads for loops over batched FFT box operations.
              16 threads in other parallel regions.
   MPI Interface: S1 (use mpi_f08) (-DMPI -DUSE_MPI_F08).
   MPI_ASYNC_PROTECTS_NONBLOCKING: Yes. MPI_SUBARRAYS_SUPPORTED: Yes.
   FFTW Interface: OMP-capable and MODERN. (-DUSE_MODERN_FFTW specified).
   GPU Interface: None.
   GPU FFT Backend: None.
... done

Basic input checks...... done

Reading geometry and species blocks from file "U_0.2_0.dat" ...... done


--------------------------------------------------------------------------------
---------------------------------- INPUT FILE ----------------------------------
--------------------------------------------------------------------------------

charge : 0                                                                      
cutoff_energy : 1000 eV                                                         
do_properties : T                                                               
edft : F                                                                        
edft_init_maxit : 5                                                             
elec_energy_tol : 2e-07 Ha                                                      
fine_grid_scale : 4                                                             
forces_output_detail : VERBOSE                                                  
hubbard_calculating_u : T                                                       
maxit_ngwf_cg : 40                                                              
ngwf_threshold_orig : 1e-06                                                     
output_detail : BRIEF                                                           
paw : T                                                                         
spin_polarized : T                                                              
ngwfs_spin_polarized : T                                                        
read_denskern : F                                                               
read_hamiltonian : F                                                            
read_tightbox_ngwfs : F                                                         
spin : 216                                                                      
task : SinglePoint                                                              
write_denskern : T                                                              
write_forces : T                                                                
write_hamiltonian : T                                                           
write_tightbox_ngwfs : T                                                        
xc_functional : PBE                                                             
%BLOCK LATTICE_CART                                                             
ang                                                                             
41.261892132    0.000000000     0.000000000                                     
-20.630946066   35.733846792     0.000000000                                    
0.0000000000    0.000000000    17.192455055                                     
%ENDBLOCK LATTICE_CART                                                          
%BLOCK POSITIONS_ABS                                                            
ang                                                                             
Cr       3.43849101       1.98521371       9.03176873                           
Cr       0.00000000       3.97042742       9.03176919                           
I        4.42260340      -0.00001318       7.48054615                           
I        1.22717790       2.12556082       7.48054615                           
I       -2.21129029       3.83009349       7.48054615                           
I        2.45437873      -0.00001140      10.58299027                           
I        2.21129177       3.83009250      10.58299027                           
I       -1.22717949       2.12556004      10.58299027                           
Cr       0.00000000       7.94085485       9.03176873                           
Cr      -3.43849101       9.92606855       9.03176919                           
I        0.98411239       5.95562795       7.48054615                           
I       -2.21131311       8.08120195       7.48054615                           
I       -5.64978130       9.78573462       7.48054615                           
I       -0.98411228       5.95562973      10.58299027                           
I       -1.22719924       9.78573363      10.58299027                           
I       -4.66567050       8.08120117      10.58299027                           
Cr      -3.43849101      13.89649598       9.03176873                           
Cr      -6.87698202      15.88170968       9.03176919                           
I       -2.45437862      11.91126909       7.48054615                           
I       -5.64980412      14.03684309       7.48054615                           
I       -9.08827231      15.74137575       7.48054615                           
I       -4.42260329      11.91127086      10.58299027                           
I       -4.66569025      15.74137476      10.58299027                           
I       -8.10416151      14.03684230      10.58299027                           
Cr      10.31547303       1.98521371       9.03176873                           
Cr       6.87698202       3.97042742       9.03176919                           
I       11.29958542      -0.00001318       7.48054615                           
I        8.10415992       2.12556082       7.48054615                           
I        4.66569173       3.83009349       7.48054615                           
I        9.33136075      -0.00001140      10.58299027                           
I        9.08827380       3.83009250      10.58299027                           
I        5.64980253       2.12556004      10.58299027                           
Cr       6.87698202       7.94085485       9.03176873                           
Cr       3.43849101       9.92606855       9.03176919                           
I        7.86109441       5.95562795       7.48054615                           
I        4.66566891       8.08120195       7.48054615                           
I        1.22720072       9.78573462       7.48054615                           
I        5.89286974       5.95562973      10.58299027                           
I        5.64978278       9.78573363      10.58299027                           
I        2.21131152       8.08120117      10.58299027                           
Cr       3.43849101      13.89649598       9.03176873                           
Cr       0.00000000      15.88170968       9.03176919                           
I        4.42260340      11.91126909       7.48054615                           
I        1.22717790      14.03684309       7.48054615                           
I       -2.21129029      15.74137575       7.48054615                           
I        2.45437873      11.91127086      10.58299027                           
I        2.21129177      15.74137476      10.58299027                           
I       -1.22717949      14.03684230      10.58299027                           
Cr      17.19245505       1.98521371       9.03176873                           
Cr      13.75396404       3.97042742       9.03176919                           
I       18.17656744      -0.00001318       7.48054615                           
I       14.98114195       2.12556082       7.48054615                           
I       11.54267375       3.83009349       7.48054615                           
I       16.20834277      -0.00001140      10.58299027                           
I       15.96525582       3.83009250      10.58299027                           
I       12.52678455       2.12556004      10.58299027                           
Cr      13.75396404       7.94085485       9.03176873                           
Cr      10.31547303       9.92606855       9.03176919                           
I       14.73807643       5.95562795       7.48054615                           
I       11.54265094       8.08120195       7.48054615                           
I        8.10418274       9.78573462       7.48054615                           
I       12.76985176       5.95562973      10.58299027                           
I       12.52676481       9.78573363      10.58299027                           
I        9.08829354       8.08120117      10.58299027                           
Cr      10.31547303      13.89649598       9.03176873                           
Cr       6.87698202      15.88170968       9.03176919                           
I       11.29958542      11.91126909       7.48054615                           
I        8.10415992      14.03684309       7.48054615                           
I        4.66569173      15.74137575       7.48054615                           
I        9.33136075      11.91127086      10.58299027                           
I        9.08827380      15.74137476      10.58299027                           
I        5.64980253      14.03684230      10.58299027                           
Cr      -6.87698202      19.85213711       9.03176873                           
Cr     -10.31547303      21.83735082       9.03176919                           
I       -5.89286963      17.86691022       7.48054615                           
I       -9.08829513      19.99248422       7.48054615                           
I      -12.52676332      21.69701689       7.48054615                           
I       -7.86109430      17.86691200      10.58299027                           
I       -8.10418126      21.69701590      10.58299027                           
I      -11.54265252      19.99248344      10.58299027                           
Cr     -10.31547303      25.80777825       9.03176873                           
Cr     -13.75396404      27.79299195       9.03176919                           
I       -9.33136064      23.82255135       7.48054615                           
I      -12.52678614      25.94812535       7.48054615                           
I      -15.96525433      27.65265802       7.48054615                           
I      -11.29958531      23.82255313      10.58299027                           
I      -11.54267227      27.65265703      10.58299027                           
I      -14.98114353      25.94812457      10.58299027                           
Cr     -13.75396404      31.76341938       9.03176873                           
Cr     -17.19245505      33.74863308       9.03176919                           
I      -12.76985165      29.77819249       7.48054615                           
I      -15.96527715      31.90376649       7.48054615                           
I      -19.40374534      33.60829915       7.48054615                           
I      -14.73807632      29.77819426      10.58299027                           
I      -14.98116328      33.60829816      10.58299027                           
I      -18.41963454      31.90376570      10.58299027                           
Cr      -0.00000000      19.85213711       9.03176873                           
Cr      -3.43849101      21.83735082       9.03176919                           
I        0.98411239      17.86691022       7.48054615                           
I       -2.21131311      19.99248422       7.48054615                           
I       -5.64978130      21.69701689       7.48054615                           
I       -0.98411228      17.86691200      10.58299027                           
I       -1.22719923      21.69701590      10.58299027                           
I       -4.66567050      19.99248344      10.58299027                           
Cr      -3.43849101      25.80777825       9.03176873                           
Cr      -6.87698202      27.79299195       9.03176919                           
I       -2.45437862      23.82255135       7.48054615                           
I       -5.64980412      25.94812535       7.48054615                           
I       -9.08827231      27.65265802       7.48054615                           
I       -4.42260329      23.82255313      10.58299027                           
I       -4.66569025      27.65265703      10.58299027                           
I       -8.10416151      25.94812457      10.58299027                           
Cr      -6.87698202      31.76341938       9.03176873                           
Cr     -10.31547303      33.74863308       9.03176919                           
I       -5.89286963      29.77819249       7.48054615                           
I       -9.08829513      31.90376649       7.48054615                           
I      -12.52676332      33.60829915       7.48054615                           
I       -7.86109430      29.77819426      10.58299027                           
I       -8.10418126      33.60829816      10.58299027                           
I      -11.54265252      31.90376570      10.58299027                           
CrU       6.87698202      19.85213711       9.03176873                          
Cr       3.43849101      21.83735082       9.03176919                           
I        7.86109441      17.86691022       7.48054615                           
I        4.66566892      19.99248422       7.48054615                           
I        1.22720072      21.69701689       7.48054615                           
I        5.89286974      17.86691200      10.58299027                           
I        5.64978279      21.69701590      10.58299027                           
I        2.21131152      19.99248344      10.58299027                           
Cr       3.43849101      25.80777825       9.03176873                           
Cr      -0.00000000      27.79299195       9.03176919                           
I        4.42260340      23.82255135       7.48054615                           
I        1.22717791      25.94812535       7.48054615                           
I       -2.21129029      27.65265802       7.48054615                           
I        2.45437873      23.82255313      10.58299027                           
I        2.21129178      27.65265703      10.58299027                           
I       -1.22717949      25.94812457      10.58299027                           
Cr      -0.00000000      31.76341938       9.03176873                           
Cr      -3.43849101      33.74863308       9.03176919                           
I        0.98411239      29.77819249       7.48054615                           
I       -2.21131311      31.90376649       7.48054615                           
I       -5.64978130      33.60829915       7.48054615                           
I       -0.98411228      29.77819426      10.58299027                           
I       -1.22719923      33.60829816      10.58299027                           
I       -4.66567050      31.90376570      10.58299027                           
Cr      24.06943708       1.98521371       9.03176873                           
Cr      20.63094607       3.97042742       9.03176919                           
I       25.05354947      -0.00001318       7.48054615                           
I       21.85812397       2.12556082       7.48054615                           
I       18.41965578       3.83009349       7.48054615                           
I       23.08532480      -0.00001140      10.58299027                           
I       22.84223784       3.83009250      10.58299027                           
I       19.40376658       2.12556004      10.58299027                           
Cr      20.63094607       7.94085485       9.03176873                           
Cr      17.19245506       9.92606855       9.03176919                           
I       21.61505846       5.95562795       7.48054615                           
I       18.41963296       8.08120195       7.48054615                           
I       14.98116477       9.78573462       7.48054615                           
I       19.64683379       5.95562973      10.58299027                           
I       19.40374683       9.78573363      10.58299027                           
I       15.96527557       8.08120117      10.58299027                           
Cr      17.19245506      13.89649598       9.03176873                           
Cr      13.75396405      15.88170968       9.03176919                           
I       18.17656745      11.91126909       7.48054615                           
I       14.98114195      14.03684309       7.48054615                           
I       11.54267376      15.74137575       7.48054615                           
I       16.20834278      11.91127086      10.58299027                           
I       15.96525582      15.74137476      10.58299027                           
I       12.52678456      14.03684230      10.58299027                           
Cr      30.94641910       1.98521371       9.03176873                           
Cr      27.50792809       3.97042742       9.03176919                           
I       31.93053149      -0.00001318       7.48054615                           
I       28.73510599       2.12556082       7.48054615                           
I       25.29663780       3.83009349       7.48054615                           
I       29.96230682      -0.00001140      10.58299027                           
I       29.71921987       3.83009250      10.58299027                           
I       26.28074860       2.12556004      10.58299027                           
Cr      27.50792809       7.94085485       9.03176873                           
Cr      24.06943708       9.92606855       9.03176919                           
I       28.49204048       5.95562795       7.48054615                           
I       25.29661498       8.08120195       7.48054615                           
I       21.85814679       9.78573462       7.48054615                           
I       26.52381581       5.95562973      10.58299027                           
I       26.28072885       9.78573363      10.58299027                           
I       22.84225759       8.08120117      10.58299027                           
Cr      24.06943708      13.89649598       9.03176873                           
Cr      20.63094607      15.88170968       9.03176919                           
I       25.05354947      11.91126909       7.48054615                           
I       21.85812397      14.03684309       7.48054615                           
I       18.41965578      15.74137575       7.48054615                           
I       23.08532480      11.91127086      10.58299027                           
I       22.84223784      15.74137476      10.58299027                           
I       19.40376658      14.03684230      10.58299027                           
Cr      37.82340112       1.98521371       9.03176873                           
Cr      34.38491011       3.97042742       9.03176919                           
I       38.80751351      -0.00001318       7.48054615                           
I       35.61208802       2.12556082       7.48054615                           
I       32.17361982       3.83009349       7.48054615                           
I       36.83928884      -0.00001140      10.58299027                           
I       36.59620189       3.83009250      10.58299027                           
I       33.15773062       2.12556004      10.58299027                           
Cr      34.38491011       7.94085485       9.03176873                           
Cr      30.94641910       9.92606855       9.03176919                           
I       35.36902250       5.95562795       7.48054615                           
I       32.17359701       8.08120195       7.48054615                           
I       28.73512881       9.78573462       7.48054615                           
I       33.40079783       5.95562973      10.58299027                           
I       33.15771088       9.78573363      10.58299027                           
I       29.71923961       8.08120117      10.58299027                           
Cr      30.94641910      13.89649598       9.03176873                           
Cr      27.50792809      15.88170968       9.03176919                           
I       31.93053149      11.91126909       7.48054615                           
I       28.73510599      14.03684309       7.48054615                           
I       25.29663780      15.74137575       7.48054615                           
I       29.96230682      11.91127086      10.58299027                           
I       29.71921987      15.74137476      10.58299027                           
I       26.28074860      14.03684230      10.58299027                           
Cr      13.75396404      19.85213711       9.03176873                           
Cr      10.31547303      21.83735082       9.03176919                           
I       14.73807643      17.86691022       7.48054615                           
I       11.54265093      19.99248422       7.48054615                           
I        8.10418274      21.69701689       7.48054615                           
I       12.76985176      17.86691200      10.58299027                           
I       12.52676480      21.69701590      10.58299027                           
I        9.08829354      19.99248344      10.58299027                           
Cr      10.31547303      25.80777825       9.03176873                           
Cr       6.87698202      27.79299195       9.03176919                           
I       11.29958542      23.82255135       7.48054615                           
I        8.10415992      25.94812535       7.48054615                           
I        4.66569173      27.65265802       7.48054615                           
I        9.33136075      23.82255313      10.58299027                           
I        9.08827379      27.65265703      10.58299027                           
I        5.64980253      25.94812457      10.58299027                           
Cr       6.87698202      31.76341938       9.03176873                           
Cr       3.43849101      33.74863308       9.03176919                           
I        7.86109441      29.77819249       7.48054615                           
I        4.66566891      31.90376649       7.48054615                           
I        1.22720072      33.60829915       7.48054615                           
I        5.89286974      29.77819426      10.58299027                           
I        5.64978278      33.60829816      10.58299027                           
I        2.21131152      31.90376570      10.58299027                           
Cr      20.63094606      19.85213711       9.03176873                           
Cr      17.19245505      21.83735082       9.03176919                           
I       21.61505845      17.86691022       7.48054615                           
I       18.41963295      19.99248422       7.48054615                           
I       14.98116476      21.69701689       7.48054615                           
I       19.64683378      17.86691200      10.58299027                           
I       19.40374683      21.69701590      10.58299027                           
I       15.96527556      19.99248344      10.58299027                           
Cr      17.19245505      25.80777825       9.03176873                           
Cr      13.75396404      27.79299195       9.03176919                           
I       18.17656744      23.82255135       7.48054615                           
I       14.98114194      25.94812535       7.48054615                           
I       11.54267375      27.65265802       7.48054615                           
I       16.20834277      23.82255313      10.58299027                           
I       15.96525581      27.65265703      10.58299027                           
I       12.52678455      25.94812457      10.58299027                           
Cr      13.75396404      31.76341938       9.03176873                           
Cr      10.31547303      33.74863308       9.03176919                           
I       14.73807643      29.77819249       7.48054615                           
I       11.54265093      31.90376649       7.48054615                           
I        8.10418274      33.60829915       7.48054615                           
I       12.76985176      29.77819426      10.58299027                           
I       12.52676480      33.60829816      10.58299027                           
I        9.08829354      31.90376570      10.58299027                           
Cr      27.50792808      19.85213711       9.03176873                           
Cr      24.06943707      21.83735082       9.03176919                           
I       28.49204047      17.86691022       7.48054615                           
I       25.29661498      19.99248422       7.48054615                           
I       21.85814678      21.69701689       7.48054615                           
I       26.52381580      17.86691200      10.58299027                           
I       26.28072885      21.69701590      10.58299027                           
I       22.84225758      19.99248344      10.58299027                           
Cr      24.06943707      25.80777825       9.03176873                           
Cr      20.63094606      27.79299195       9.03176919                           
I       25.05354946      23.82255135       7.48054615                           
I       21.85812397      25.94812535       7.48054615                           
I       18.41965577      27.65265802       7.48054615                           
I       23.08532479      23.82255313      10.58299027                           
I       22.84223784      27.65265703      10.58299027                           
I       19.40376657      25.94812457      10.58299027                           
Cr      20.63094606      31.76341938       9.03176873                           
Cr      17.19245505      33.74863308       9.03176919                           
I       21.61505845      29.77819249       7.48054615                           
I       18.41963295      31.90376649       7.48054615                           
I       14.98116476      33.60829915       7.48054615                           
I       19.64683378      29.77819426      10.58299027                           
I       19.40374683      33.60829816      10.58299027                           
I       15.96527556      31.90376570      10.58299027                           
%ENDBLOCK POSITIONS_ABS                                                         
%BLOCK SPECIES                                                                  
Cr Cr 24 -1 15                                                                  
I   I  53 -1 15                                                                 
CrU Cr 24 -1 15                                                                 
%ENDBLOCK SPECIES                                                               
%BLOCK SPECIES_ATOMIC_SET                                                       
Cr  "SOLVE INIT SPIN=3"                                                         
I   "SOLVE"                                                                     
CrU "SOLVE INIT SPIN=3"                                                         
%ENDBLOCK SPECIES_ATOMIC_SET                                                    
%BLOCK HUBBARD                                                                  
CrU 2 0.0 0.0 -10.0 0.20 0.0                                                    
%ENDBLOCK HUBBARD                                                               
%BLOCK SPECIES_LDOS_GROUPS                                                      
Cr                                                                              
I                                                                               
CrU                                                                             
%ENDBLOCK SPECIES_LDOS_GROUPS                                                   
%BLOCK SPECIES_POT                                                              
Cr  "/work/e89/e89/phsmea/U_det/Cr.PBE-paw.abinit"                              
I   "/work/e89/e89/phsmea/U_det/I.PBE-paw.abinit"                               
CrU "/work/e89/e89/phsmea/U_det/Cr.PBE-paw.abinit"                              
%ENDBLOCK SPECIES_POT                                                           

--------------------------------------------------------------------------------
-------------------------------- END INPUT FILE --------------------------------
--------------------------------------------------------------------------------


 
 ESDF WARNING(1): "charge" (esdf_physical) has no units. Assume "e".
<<<<<<<<<<<<<<<<<<<<<<<<<<<<<<<<< Full system >>>>>>>>>>>>>>>>>>>>>>>>>>>>>>>>>>
<<<<<<<<<<<<<<<<<<<<<<<<<<< PAW Dataset information >>>>>>>>>>>>>>>>>>>>>>>>>>>
File: /work/e89/e89/phsmea/U_det/Cr.PBE-paw.abinit; rc = 2.11 bohr; shape type =  2; rshape = 1.80 bohr;
  Atomic number: 24;  ionic charge: 14.000000
    Partial Wave 1: l = 0
    Partial Wave 2: l = 0
    Partial Wave 3: l = 1
    Partial Wave 4: l = 1
    Partial Wave 5: l = 2
    Partial Wave 6: l = 2
  Core charge supplied for Nonlinear Core Corrections
File: /work/e89/e89/phsmea/U_det/I.PBE-paw.abinit; rc = 2.30 bohr; shape type =  2; rshape = 2.11 bohr;
  Atomic number: 53;  ionic charge:  7.000000
    Partial Wave 1: l = 0
    Partial Wave 2: l = 0
    Partial Wave 3: l = 1
    Partial Wave 4: l = 1
  Core charge supplied for Nonlinear Core Corrections
<<<<<<<<<<<<<<<<<<<<<<<<<<<<<<<<<<<<<<< >>>>>>>>>>>>>>>>>>>>>>>>>>>>>>>>>>>>>>>

-------------------------- Atom counting information ---------------------------
Symbol    Natoms    Nngwfs    Nprojs
  Cr        72       936      1296
  I        216       864      1728
.......   ......    ......    ......
Totals:    288      1800      3024
--------------------------------------------------------------------------------

=============================== PSINC grid sizes ===============================
                      Simulation cell:  175 x 175 x  75
                              FFT-box:  175 x 175 x  75
                                  PPD:    5 x   5 x   1
================================================================================

Atom SCF Calculation for Cr : Z (AE atom) =  24 : Z (PS atom) =  14
Config String: 3s2.0 3p6.0 3d5.0 4s1.0 4p0.0 INIT SPIN=3
Orbitals (num,occ):  5     2.00 6.00 5.00 1.00 0.00
Orbitals   (num,l):  5        0    1    2    0    1
Atom SCF converged after  64 iterations to a total energy of    -87.07044631
Adjusting orbital occupancies:
Orbitals (num,spin,occ):  5  1     1.00 3.00 3.50 1.00 0.00
Orbitals   (num,spin,l):  5  1        0    1    2    0    1
Orbitals (num,spin,occ):  5  2     1.00 3.00 1.00 0.50 0.00
Orbitals   (num,spin,l):  5  2        0    1    2    0    1

Atom SCF Calculation for I  : Z (AE atom) =  53 : Z (PS atom) =   7
Config String: 5s2.0 5p5.0
Orbitals (num,occ):  2     2.00 5.00
Orbitals   (num,l):  2        0    1
Atom SCF converged after  28 iterations to a total energy of    -11.61352964

Atom SCF Calculation for Cr : Z (AE atom) =  24 : Z (PS atom) =  14
Config String: 3s2.0 3p6.0 3d5.0 4s1.0 4p0.0 INIT SPIN=3
Orbitals (num,occ):  5     2.00 6.00 5.00 1.00 0.00
Orbitals   (num,l):  5        0    1    2    0    1
Atom SCF converged after  64 iterations to a total energy of    -87.07044631
Adjusting orbital occupancies:
Orbitals (num,spin,occ):  5  1     1.00 3.00 3.50 1.00 0.00
Orbitals   (num,spin,l):  5  1        0    1    2    0    1
Orbitals (num,spin,occ):  5  2     1.00 3.00 1.00 0.50 0.00
Orbitals   (num,spin,l):  5  2        0    1    2    0    1

Atom SCF Calculation for Cr : Z (AE atom) =  24 : Z (PS atom) =  14
Config String: 3s2.0 3p6.0 3d5.0 4s1.0 4p0.0 INIT SPIN=3
Orbitals (num,occ):  5     2.00 6.00 5.00 1.00 0.00
Orbitals   (num,l):  5        0    1    2    0    1
Atom SCF converged after  64 iterations to a total energy of    -87.07044631

Atom SCF Calculation for I  : Z (AE atom) =  53 : Z (PS atom) =   7
Config String: 5s2.0 5p5.0
Orbitals (num,occ):  2     2.00 5.00
Orbitals   (num,l):  2        0    1
Atom SCF converged after  28 iterations to a total energy of    -11.61352964

Atom SCF Calculation for Cr : Z (AE atom) =  24 : Z (PS atom) =  14
Config String: 3s2.0 3p6.0 3d5.0 4s1.0 4p0.0 INIT SPIN=3
Orbitals (num,occ):  5     2.00 6.00 5.00 1.00 0.00
Orbitals   (num,l):  5        0    1    2    0    1
Atom SCF converged after  64 iterations to a total energy of    -87.07044631
Calculating Ewald energy ...             6126.916246 Hartree

============================= Charge Augmentation ==============================
                           Aug box size:   49 x  49 x  45
================================================================================

================================= Core Density =================================
               Core den box size:  125 x 125 x 117
================================================================================
Density kernel initialisation

################################################################################
###################### NGWF self-consistent optimisation #######################
################################################################################
|ITER|    RMS GRADIENT   |     TOTAL ENERGY    |   step   |     Epredicted      
   0     0.00009868041190  -8812.27939728771344   2.349460  -8816.18788546832911        
   1     0.00006752881454  -8816.40888020526836   1.629902  -8817.74866013632891        
   2     0.00004160832884  -8817.78427903292868   1.810617  -8818.33388743415344        
   3     0.00002882789699  -8818.35811693175492   1.959668  -8818.64867659589072        
   4     0.00002023301043  -8818.64994340619887   1.141787  -8818.72979525192022        
   5     0.00001352407930  -8818.72992249311392   1.988808  -8818.79183673221451        
   6     0.00001154721366  -8818.79078768686304   1.741976  -8818.82957477615491        
   7     0.00000903272384  -8818.82815110477532   1.574719  -8818.84925939573441        
   8     0.00000726794458  -8818.84824377543373   0.934387  -8818.85667574090621        
   9     0.00000478410368  -8818.85666510812007   2.167794  -8818.86514411183089        
  10     0.00000437505967  -8818.86484756243226   1.657810  -8818.87016999466687        
  11     0.00000320325793  -8818.86975427263314   2.403188  -8818.87373571186981        
  12     0.00000419389189  -8818.87251160274900   0.917639  -8818.87526891028756        
  13     0.00000216375936  -8818.87524499846768   2.363931  -8818.87711520477387        
  14     0.00000232674306  -8818.87686492102694   2.273067  -8818.87872557840274        
  15     0.00000235396717  -8818.87775243823125   1.496924  -8818.87854390869143        
  16     0.00000233183582  -8818.87784270896373   1.262483  -8818.87901544557644        
  17     0.00000196623537  -8818.87899772311721   1.708095  -8818.88011290370559        
  18     0.00000143149789  -8818.88003199106060   1.552372  -8818.88057384199055        
  19     0.00000091849965  -8818.88042906293776   3.465889  -8818.88085055957890        
  20     0.00000183620969  -8818.88043940023454   0.685011  -8818.88083396717411        
  21     0.00000049166166  -8818.88082253038738   1.935606  -8818.88090038948212        
  22     0.00000061002757  -8818.88087237985201  10.049357  -8818.88130335690948        
  23     0.00000342004691  -8818.87554759554041   1.050758  -8818.87764723882356        
  24     0.00000230583547  -8818.87768622041767   1.697287  -8818.87923319645961        
  25     0.00000149316393  -8818.87923463146581   1.209932  -8818.87971401022514        
  26     0.00000075710407  -8818.87968144974366   1.002403  -8818.87977646944273        
  27     0.00000053236188  -8818.87976451069881   3.377403  -8818.87992803248562        
  28     0.00000090002837  -8818.87987505962519   0.744791  -8818.87997812803405        
  29     0.00000037172708  -8818.87996804609429   2.641816  -8818.88002787986079        
  30     0.00000098183812  -8818.87982170679970   1.794779  -8818.88011728312813        
  31     0.00000103061993  -8818.88012908263045   1.946234  -8818.88038127932850        
  32     0.00000093444480  -8818.88037939562128   2.160821  -8818.88070444451660        
  33     0.00000103275280  -8818.88060188621239   5.227313  -8818.88136891964496        
  34     0.00000302830481  -8818.87994584166336   0.646026  -8818.88095795312802        
  35     0.00000079814098  -8818.88098208105839   1.212466  -8818.88111430040954        
  36     0.00000055488857  -8818.88110998031698   4.814347  -8818.88135231653905        
  37     0.00000135336870  -8818.88121807060816   0.817902  -8818.88147399527588        
  38     0.00000056176446  -8818.88147500034029   1.978464  -8818.88158291436775        
  39     0.00000061999426  -8818.88155219583132  11.994121  -8818.88218148893611        

================================================================================
           ---------------- ENERGY COMPONENTS (Eh) ----------------
           | Kinetic                    :     1819.35554481786448 |
           | Core Hartree               :   -28372.27077565951190 |
           | CoreHart (non-coul chg cor):        0.00000000000000
           | Hartree                    :    13503.72683508368940 |
           | Exchange-correlation       :    -1248.22358919746989 |
           | Hubbard DFT+U correction   :        0.04171990984288 |
           | Ewald                      :     6126.91624599049464 |
           | Dij0                       :     -555.83462373463180 |
           | Dijhartree                 :      249.10926715260817 |
           | Exc [AE core]              :   -42415.25564608756390 |
           | Exc DC [AE core]           :    -1638.77115382834563 |
           | Exc [PS core]              :    -1032.31564636071948 |
           | Exc DC [PS core]           :     -982.39327780094595 |
           | Exc [Core]                 :   -41041.23993575423080 |
           | Total [Sphere]             :     -648.42542055463855 |
           | Total                      :    -8818.87943960973098 |
           --------------------------------------------------------
           Integrated compensation chrg.:      189.25394318321008
           Integrated density           :     2519.99993590552003
           Integrated spin density      :      215.99995953291267
           Integrated |spin density|    :      164.39768851973020
================================================================================

WARNING: maximum number of NGWF CG iterations (  40) exceeded!
  39     0.00000061999426  -8818.87943960970551  <-- CG                                 

################################################################################
DFT+U information on atom      1 of Hubbard species CrU 
################################################################################
Occupancy matrix of Hubbard site      1 and spin      1 is 
  m_l =   -2          -1           0           1           2
  0.88844968  0.15182135  0.00000296  0.00000017  0.00000211
  0.15185919  0.76957131 -0.00000392  0.00000379 -0.00000196
  0.00000154 -0.00000180  0.99109442 -0.00000107 -0.00000094
  0.00000139  0.00000373 -0.00000223  0.76956703 -0.15185737
  0.00000205 -0.00000070 -0.00000172 -0.15182096  0.88845196
################################################################################
Occupancy matrix of Hubbard site      1 and spin      2 is 
  m_l =   -2          -1           0           1           2
  0.25205296 -0.13276768 -0.00000162  0.00000324  0.00000022
 -0.13279968  0.35676707  0.00000510  0.00000284 -0.00000219
 -0.00000023  0.00000325  0.15151129  0.00000211  0.00000014
  0.00000219  0.00000289  0.00000313  0.35676350  0.13280226
  0.00000027 -0.00000328  0.00000092  0.13277148  0.25205335
################################################################################
Total occupancy of Hubbard site      1 is         5.67628256 e
Local magnetic moment of Hubbard site      1 is   2.93798622 mu_B
DFT+U energy of Hubbard site      1 is            0.04171991 Ha
################################################################################

##### For calculating the Hubbard U and Hund J #################################
DFT+U information on Hubbard site      1 of species CrU  and spin      1
The average Hxc+local potential is            -19.08654106 eV.
The average Hubbard potential is                0.20000000 eV.
The average non-local PAW contribution is     -11.02810993 eV.
################################################################################
DFT+U information on Hubbard site      1 of species CrU  and spin      2
The average Hxc+local potential is            -18.00278508 eV.
The average Hubbard potential is                0.20000000 eV.
The average non-local PAW contribution is      -9.56429344 eV.
################################################################################

======================== Writing density and potential =========================
Writing "U_0.2_0_ps_density.cube" ... done
Writing "U_0.2_0_ps_spindensity.cube" ... done
Writing "U_0.2_0_ae_density.cube" ... done
Writing "U_0.2_0_ae_spindensity.cube" ... done
Writing "U_0.2_0_potential.cube" ... done
Writing "U_0.2_0_electrostatic_potential.cube" ... done
================================================================================

    Mulliken Atomic Populations
    ---------------------------
Species  Ion    Total   Charge (e)    Spin (hbar)
=================================================
  Cr     1      13.786      0.214      1.67
  Cr     2      13.786      0.214      1.67
  I      3       7.071     -0.071     -0.06
  I      4       7.071     -0.071     -0.06
  I      5       7.071     -0.071     -0.06
  I      6       7.071     -0.071     -0.06
  I      7       7.071     -0.071     -0.06
  I      8       7.071     -0.071     -0.06
  Cr     9      13.786      0.214      1.67
  Cr    10      13.785      0.215      1.67
  I     11       7.071     -0.071     -0.06
  I     12       7.071     -0.071     -0.06
  I     13       7.071     -0.071     -0.06
  I     14       7.071     -0.071     -0.06
  I     15       7.071     -0.071     -0.06
  I     16       7.071     -0.071     -0.06
  Cr    17      13.786      0.214      1.67
  Cr    18      13.785      0.215      1.67
  I     19       7.071     -0.071     -0.06
  I     20       7.072     -0.072     -0.06
  I     21       7.071     -0.071     -0.06
  I     22       7.071     -0.071     -0.06
  I     23       7.071     -0.071     -0.06
  I     24       7.072     -0.072     -0.06
  Cr    25      13.786      0.214      1.67
  Cr    26      13.786      0.214      1.67
  I     27       7.071     -0.071     -0.06
  I     28       7.071     -0.071     -0.06
  I     29       7.071     -0.071     -0.06
  I     30       7.071     -0.071     -0.06
  I     31       7.071     -0.071     -0.06
  I     32       7.071     -0.071     -0.06
  Cr    33      13.785      0.215      1.67
  Cr    34      13.787      0.213      1.67
  I     35       7.071     -0.071     -0.06
  I     36       7.071     -0.071     -0.06
  I     37       7.071     -0.071     -0.06
  I     38       7.071     -0.071     -0.06
  I     39       7.071     -0.071     -0.06
  I     40       7.071     -0.071     -0.06
  Cr    41      13.785      0.215      1.67
  Cr    42      13.785      0.215      1.67
  I     43       7.071     -0.071     -0.06
  I     44       7.072     -0.072     -0.06
  I     45       7.071     -0.071     -0.06
  I     46       7.071     -0.071     -0.06
  I     47       7.071     -0.071     -0.06
  I     48       7.072     -0.072     -0.06
  Cr    49      13.786      0.214      1.67
  Cr    50      13.786      0.214      1.67
  I     51       7.071     -0.071     -0.06
  I     52       7.072     -0.072     -0.06
  I     53       7.071     -0.071     -0.06
  I     54       7.072     -0.072     -0.06
  I     55       7.071     -0.071     -0.06
  I     56       7.071     -0.071     -0.06
  Cr    57      13.786      0.214      1.67
  Cr    58      13.787      0.213      1.67
  I     59       7.071     -0.071     -0.06
  I     60       7.071     -0.071     -0.06
  I     61       7.071     -0.071     -0.06
  I     62       7.071     -0.071     -0.06
  I     63       7.071     -0.071     -0.06
  I     64       7.071     -0.071     -0.06
  Cr    65      13.785      0.215      1.67
  Cr    66      13.781      0.219      1.67
  I     67       7.071     -0.071     -0.06
  I     68       7.072     -0.072     -0.06
  I     69       7.072     -0.072     -0.06
  I     70       7.071     -0.071     -0.06
  I     71       7.072     -0.072     -0.06
  I     72       7.072     -0.072     -0.06
  Cr    73      13.786      0.214      1.67
  Cr    74      13.785      0.215      1.67
  I     75       7.072     -0.072     -0.06
  I     76       7.071     -0.071     -0.06
  I     77       7.072     -0.072     -0.06
  I     78       7.071     -0.071     -0.06
  I     79       7.071     -0.071     -0.06
  I     80       7.071     -0.071     -0.06
  Cr    81      13.786      0.214      1.67
  Cr    82      13.785      0.215      1.67
  I     83       7.071     -0.071     -0.06
  I     84       7.071     -0.071     -0.06
  I     85       7.071     -0.071     -0.06
  I     86       7.072     -0.072     -0.06
  I     87       7.071     -0.071     -0.06
  I     88       7.071     -0.071     -0.06
  Cr    89      13.786      0.214      1.67
  Cr    90      13.786      0.214      1.67
  I     91       7.071     -0.071     -0.06
  I     92       7.071     -0.071     -0.06
  I     93       7.071     -0.071     -0.06
  I     94       7.071     -0.071     -0.06
  I     95       7.071     -0.071     -0.06
  I     96       7.071     -0.071     -0.06
  Cr    97      13.788      0.212      1.67
  Cr    98      13.788      0.212      1.67
  I     99       7.071     -0.071     -0.06
  I    100       7.071     -0.071     -0.06
  I    101       7.071     -0.071     -0.06
  I    102       7.071     -0.071     -0.06
  I    103       7.071     -0.071     -0.06
  I    104       7.071     -0.071     -0.06
  Cr   105      13.785      0.215      1.67
  Cr   106      13.785      0.215      1.67
  I    107       7.071     -0.071     -0.06
  I    108       7.071     -0.071     -0.06
  I    109       7.072     -0.072     -0.06
  I    110       7.071     -0.071     -0.06
  I    111       7.071     -0.071     -0.06
  I    112       7.071     -0.071     -0.06
  Cr   113      13.786      0.214      1.67
  Cr   114      13.785      0.215      1.67
  I    115       7.071     -0.071     -0.06
  I    116       7.071     -0.071     -0.06
  I    117       7.071     -0.071     -0.06
  I    118       7.071     -0.071     -0.06
  I    119       7.071     -0.071     -0.06
  I    120       7.071     -0.071     -0.06
  Cr   121      13.775      0.225      1.69
  Cr   122      13.781      0.219      1.67
  I    123       7.074     -0.074     -0.06
  I    124       7.074     -0.074     -0.06
  I    125       7.072     -0.072     -0.06
  I    126       7.074     -0.074     -0.06
  I    127       7.074     -0.074     -0.06
  I    128       7.072     -0.072     -0.06
  Cr   129      13.788      0.212      1.67
  Cr   130      13.788      0.212      1.67
  I    131       7.072     -0.072     -0.06
  I    132       7.071     -0.071     -0.06
  I    133       7.071     -0.071     -0.06
  I    134       7.072     -0.072     -0.06
  I    135       7.071     -0.071     -0.06
  I    136       7.071     -0.071     -0.06
  Cr   137      13.786      0.214      1.67
  Cr   138      13.785      0.215      1.67
  I    139       7.071     -0.071     -0.06
  I    140       7.072     -0.072     -0.06
  I    141       7.072     -0.072     -0.06
  I    142       7.071     -0.071     -0.06
  I    143       7.071     -0.071     -0.06
  I    144       7.071     -0.071     -0.06
  Cr   145      13.785      0.215      1.67
  Cr   146      13.785      0.215      1.67
  I    147       7.072     -0.072     -0.06
  I    148       7.072     -0.072     -0.06
  I    149       7.072     -0.072     -0.06
  I    150       7.071     -0.071     -0.06
  I    151       7.072     -0.072     -0.06
  I    152       7.071     -0.071     -0.06
  Cr   153      13.786      0.214      1.67
  Cr   154      13.785      0.215      1.67
  I    155       7.072     -0.072     -0.06
  I    156       7.072     -0.072     -0.06
  I    157       7.071     -0.071     -0.06
  I    158       7.072     -0.072     -0.06
  I    159       7.072     -0.072     -0.06
  I    160       7.071     -0.071     -0.06
  Cr   161      13.786      0.214      1.67
  Cr   162      13.785      0.215      1.67
  I    163       7.072     -0.072     -0.06
  I    164       7.072     -0.072     -0.06
  I    165       7.071     -0.071     -0.06
  I    166       7.071     -0.071     -0.06
  I    167       7.072     -0.072     -0.06
  I    168       7.072     -0.072     -0.06
  Cr   169      13.786      0.214      1.67
  Cr   170      13.786      0.214      1.67
  I    171       7.071     -0.071     -0.06
  I    172       7.071     -0.071     -0.06
  I    173       7.071     -0.071     -0.06
  I    174       7.071     -0.071     -0.06
  I    175       7.071     -0.071     -0.06
  I    176       7.072     -0.072     -0.06
  Cr   177      13.786      0.214      1.67
  Cr   178      13.785      0.215      1.67
  I    179       7.072     -0.072     -0.06
  I    180       7.071     -0.071     -0.06
  I    181       7.072     -0.072     -0.06
  I    182       7.071     -0.071     -0.06
  I    183       7.071     -0.071     -0.06
  I    184       7.071     -0.071     -0.06
  Cr   185      13.786      0.214      1.67
  Cr   186      13.785      0.215      1.67
  I    187       7.072     -0.072     -0.06
  I    188       7.072     -0.072     -0.06
  I    189       7.071     -0.071     -0.06
  I    190       7.072     -0.072     -0.06
  I    191       7.071     -0.071     -0.06
  I    192       7.072     -0.072     -0.06
  Cr   193      13.786      0.214      1.67
  Cr   194      13.786      0.214      1.67
  I    195       7.071     -0.071     -0.06
  I    196       7.071     -0.071     -0.06
  I    197       7.071     -0.071     -0.06
  I    198       7.071     -0.071     -0.06
  I    199       7.071     -0.071     -0.06
  I    200       7.071     -0.071     -0.06
  Cr   201      13.786      0.214      1.67
  Cr   202      13.786      0.214      1.67
  I    203       7.071     -0.071     -0.06
  I    204       7.071     -0.071     -0.06
  I    205       7.071     -0.071     -0.06
  I    206       7.071     -0.071     -0.06
  I    207       7.071     -0.071     -0.06
  I    208       7.071     -0.071     -0.06
  Cr   209      13.786      0.214      1.67
  Cr   210      13.785      0.215      1.67
  I    211       7.072     -0.072     -0.06
  I    212       7.072     -0.072     -0.06
  I    213       7.072     -0.072     -0.06
  I    214       7.071     -0.071     -0.06
  I    215       7.071     -0.071     -0.06
  I    216       7.072     -0.072     -0.06
  Cr   217      13.785      0.215      1.67
  Cr   218      13.781      0.219      1.67
  I    219       7.072     -0.072     -0.06
  I    220       7.072     -0.072     -0.06
  I    221       7.074     -0.074     -0.06
  I    222       7.071     -0.071     -0.06
  I    223       7.072     -0.072     -0.06
  I    224       7.074     -0.074     -0.06
  Cr   225      13.785      0.215      1.67
  Cr   226      13.785      0.215      1.67
  I    227       7.072     -0.072     -0.06
  I    228       7.071     -0.071     -0.06
  I    229       7.071     -0.071     -0.06
  I    230       7.072     -0.072     -0.06
  I    231       7.072     -0.072     -0.06
  I    232       7.071     -0.071     -0.06
  Cr   233      13.786      0.214      1.67
  Cr   234      13.785      0.215      1.67
  I    235       7.072     -0.072     -0.06
  I    236       7.071     -0.071     -0.06
  I    237       7.071     -0.071     -0.06
  I    238       7.071     -0.071     -0.06
  I    239       7.072     -0.072     -0.06
  I    240       7.071     -0.071     -0.06
  Cr   241      13.786      0.214      1.67
  Cr   242      13.787      0.213      1.67
  I    243       7.071     -0.071     -0.06
  I    244       7.071     -0.071     -0.06
  I    245       7.071     -0.071     -0.06
  I    246       7.071     -0.071     -0.06
  I    247       7.071     -0.071     -0.06
  I    248       7.071     -0.071     -0.06
  Cr   249      13.786      0.214      1.67
  Cr   250      13.787      0.213      1.67
  I    251       7.071     -0.071     -0.06
  I    252       7.071     -0.071     -0.06
  I    253       7.071     -0.071     -0.06
  I    254       7.071     -0.071     -0.06
  I    255       7.071     -0.071     -0.06
  I    256       7.071     -0.071     -0.06
  Cr   257      13.786      0.214      1.67
  Cr   258      13.785      0.215      1.67
  I    259       7.071     -0.071     -0.06
  I    260       7.071     -0.071     -0.06
  I    261       7.071     -0.071     -0.06
  I    262       7.071     -0.071     -0.06
  I    263       7.071     -0.071     -0.06
  I    264       7.071     -0.071     -0.06
  Cr   265      13.785      0.215      1.67
  Cr   266      13.786      0.214      1.67
  I    267       7.072     -0.072     -0.06
  I    268       7.071     -0.071     -0.06
  I    269       7.071     -0.071     -0.06
  I    270       7.072     -0.072     -0.06
  I    271       7.072     -0.072     -0.06
  I    272       7.071     -0.071     -0.06
  Cr   273      13.786      0.214      1.67
  Cr   274      13.786      0.214      1.67
  I    275       7.071     -0.071     -0.06
  I    276       7.071     -0.071     -0.06
  I    277       7.071     -0.071     -0.06
  I    278       7.071     -0.071     -0.06
  I    279       7.071     -0.071     -0.06
  I    280       7.071     -0.071     -0.06
  Cr   281      13.786      0.214      1.67
  Cr   282      13.786      0.214      1.67
  I    283       7.071     -0.071     -0.06
  I    284       7.071     -0.071     -0.06
  I    285       7.071     -0.071     -0.06
  I    286       7.071     -0.071     -0.06
  I    287       7.071     -0.071     -0.06
  I    288       7.071     -0.071     -0.06
=================================================

        Bond         Population      Spin       Length (bohr)
=============================================================
 Cr  186 -- I   191        0.29     -0.03      4.86412
 Cr  178 -- I   183        0.29     -0.03      4.86412
 Cr  154 -- I   159        0.29     -0.03      4.86412
 Cr  162 -- I   167        0.29     -0.03      4.86412
 Cr  146 -- I   151        0.29     -0.03      4.86412
 Cr   82 -- I    87        0.29     -0.03      4.86412
 Cr  250 -- I   255        0.29     -0.03      4.86412
 Cr  226 -- I   231        0.29     -0.03      4.86412
 Cr   74 -- I    79        0.29     -0.03      4.86412
 Cr   10 -- I    15        0.29     -0.03      4.86412
 Cr  106 -- I   111        0.29     -0.03      4.86412
 Cr   34 -- I    39        0.29     -0.03      4.86412
 Cr   42 -- I    47        0.29     -0.03      4.86412
 Cr   18 -- I    23        0.29     -0.03      4.86412
 Cr  114 -- I   119        0.29     -0.03      4.86412
 Cr    2 -- I     7        0.29     -0.03      4.86412
 Cr   90 -- I    95        0.29     -0.03      4.86412
 Cr  218 -- I   223        0.29     -0.03      4.86412
 Cr  258 -- I   263        0.29     -0.03      4.86412
 Cr  234 -- I   239        0.29     -0.03      4.86412
 Cr  274 -- I   279        0.29     -0.03      4.86412
 Cr  130 -- I   135        0.29     -0.03      4.86412
 Cr   98 -- I   103        0.29     -0.03      4.86412
 Cr   66 -- I    71        0.29     -0.03      4.86412
 Cr  242 -- I   247        0.29     -0.03      4.86412
 Cr   50 -- I    55        0.29     -0.03      4.86412
 Cr   26 -- I    31        0.29     -0.03      4.86412
 Cr   58 -- I    63        0.29     -0.03      4.86412
 Cr  210 -- I   215        0.29     -0.03      4.86412
 Cr  170 -- I   175        0.29     -0.03      4.86412
 Cr  122 -- I   127        0.30     -0.03      4.86412
 Cr  266 -- I   271        0.29     -0.03      4.86412
 Cr  282 -- I   287        0.29     -0.03      4.86412
 Cr  138 -- I   143        0.29     -0.03      4.86412
 Cr  202 -- I   207        0.29     -0.03      4.86412
 Cr  194 -- I   199        0.29     -0.03      4.86412
 Cr  210 -- I   212        0.29     -0.03      4.86413
 Cr  138 -- I   140        0.29     -0.03      4.86413
 Cr   90 -- I    92        0.29     -0.03      4.86413
 Cr  258 -- I   260        0.29     -0.03      4.86413
 Cr  234 -- I   236        0.29     -0.03      4.86413
 Cr   42 -- I    44        0.29     -0.03      4.86413
 Cr   66 -- I    68        0.29     -0.03      4.86413
 Cr  114 -- I   116        0.29     -0.03      4.86413
 Cr   18 -- I    20        0.29     -0.03      4.86413
 Cr  162 -- I   164        0.29     -0.03      4.86413
 Cr  282 -- I   284        0.29     -0.03      4.86413
 Cr  186 -- I   188        0.29     -0.03      4.86413
 Cr  194 -- I   196        0.29     -0.03      4.86413
 Cr  202 -- I   204        0.29     -0.03      4.86413
 Cr   50 -- I    52        0.29     -0.03      4.86413
 Cr   58 -- I    60        0.29     -0.03      4.86413
 Cr  122 -- I   124        0.30     -0.03      4.86413
 Cr  266 -- I   268        0.29     -0.03      4.86413
 Cr  274 -- I   276        0.29     -0.03      4.86413
 Cr  130 -- I   132        0.29     -0.03      4.86413
 Cr  154 -- I   156        0.29     -0.03      4.86413
 Cr  170 -- I   172        0.29     -0.03      4.86413
 Cr   34 -- I    36        0.29     -0.03      4.86413
 Cr   10 -- I    12        0.29     -0.03      4.86413
 Cr  146 -- I   148        0.29     -0.03      4.86413
 Cr    2 -- I     4        0.29     -0.03      4.86413
 Cr   26 -- I    28        0.29     -0.03      4.86413
 Cr  242 -- I   244        0.29     -0.03      4.86413
 Cr  218 -- I   220        0.29     -0.03      4.86413
 Cr  178 -- I   180        0.29     -0.03      4.86413
 Cr   74 -- I    76        0.29     -0.03      4.86413
 Cr   98 -- I   100        0.29     -0.03      4.86413
 Cr  250 -- I   252        0.29     -0.03      4.86413
 Cr  226 -- I   228        0.29     -0.03      4.86413
 Cr  106 -- I   108        0.29     -0.03      4.86413
 Cr   82 -- I    84        0.29     -0.03      4.86413
 Cr  153 -- I   159        0.29     -0.03      4.86414
 Cr  177 -- I   183        0.29     -0.03      4.86414
 Cr   41 -- I    47        0.29     -0.03      4.86414
 Cr  161 -- I   167        0.29     -0.03      4.86414
 Cr    9 -- I    15        0.29     -0.03      4.86414
 Cr  185 -- I   191        0.29     -0.03      4.86414
 Cr   33 -- I    39        0.29     -0.03      4.86414
 Cr   17 -- I    23        0.29     -0.03      4.86414
 Cr  113 -- I   119        0.29     -0.03      4.86414
 Cr   89 -- I    95        0.29     -0.03      4.86414
 Cr  233 -- I   239        0.29     -0.03      4.86414
 Cr  257 -- I   263        0.29     -0.03      4.86414
 Cr  249 -- I   255        0.29     -0.03      4.86414
 Cr  225 -- I   231        0.29     -0.03      4.86414
 Cr   81 -- I    87        0.29     -0.03      4.86414
 Cr  105 -- I   111        0.29     -0.03      4.86414
 Cr  209 -- I   215        0.29     -0.03      4.86414
 Cr   65 -- I    71        0.29     -0.03      4.86414
 Cr   57 -- I    63        0.29     -0.03      4.86414
 Cr  137 -- I   143        0.29     -0.03      4.86414
 Cr  201 -- I   207        0.29     -0.03      4.86414
 Cr  281 -- I   287        0.29     -0.03      4.86414
 Cr  129 -- I   135        0.29     -0.03      4.86414
 Cr  273 -- I   279        0.29     -0.03      4.86414
 Cr   73 -- I    79        0.29     -0.03      4.86414
 Cr  217 -- I   223        0.29     -0.03      4.86414
 Cr  145 -- I   151        0.29     -0.03      4.86414
 Cr    1 -- I     7        0.29     -0.03      4.86414
 Cr  121 -- I   127        0.29     -0.03      4.86414
 Cr  241 -- I   247        0.29     -0.03      4.86414
 Cr   97 -- I   103        0.29     -0.03      4.86414
 Cr  265 -- I   271        0.29     -0.03      4.86414
 Cr   49 -- I    55        0.29     -0.03      4.86414
 Cr   25 -- I    31        0.29     -0.03      4.86414
 Cr  169 -- I   175        0.29     -0.03      4.86414
 Cr  193 -- I   199        0.29     -0.03      4.86414
 Cr  193 -- I   196        0.29     -0.03      4.86414
 Cr   49 -- I    52        0.29     -0.03      4.86414
 Cr  265 -- I   268        0.29     -0.03      4.86414
 Cr  121 -- I   124        0.29     -0.03      4.86414
 Cr  257 -- I   260        0.29     -0.03      4.86414
 Cr  169 -- I   172        0.29     -0.03      4.86414
 Cr  145 -- I   148        0.29     -0.03      4.86414
 Cr   65 -- I    68        0.29     -0.03      4.86414
 Cr  137 -- I   140        0.29     -0.03      4.86414
 Cr  185 -- I   188        0.29     -0.03      4.86414
 Cr  281 -- I   284        0.29     -0.03      4.86414
 Cr  209 -- I   212        0.29     -0.03      4.86414
 Cr  161 -- I   164        0.29     -0.03      4.86414
 Cr    1 -- I     4        0.29     -0.03      4.86414
 Cr   41 -- I    44        0.29     -0.03      4.86414
 Cr  113 -- I   116        0.29     -0.03      4.86414
 Cr  241 -- I   244        0.29     -0.03      4.86414
 Cr   25 -- I    28        0.29     -0.03      4.86414
 Cr   17 -- I    20        0.29     -0.03      4.86414
 Cr   89 -- I    92        0.29     -0.03      4.86414
 Cr  217 -- I   220        0.29     -0.03      4.86414
 Cr  233 -- I   236        0.29     -0.03      4.86414
 Cr   97 -- I   100        0.29     -0.03      4.86414
 Cr   73 -- I    76        0.29     -0.03      4.86414
 Cr  273 -- I   276        0.29     -0.03      4.86414
 Cr  201 -- I   204        0.29     -0.03      4.86414
 Cr  129 -- I   132        0.29     -0.03      4.86414
 Cr   57 -- I    60        0.29     -0.03      4.86414
 Cr   81 -- I    84        0.29     -0.03      4.86414
 Cr  105 -- I   108        0.29     -0.03      4.86414
 Cr  249 -- I   252        0.29     -0.03      4.86414
 Cr  225 -- I   228        0.29     -0.03      4.86414
 Cr  153 -- I   156        0.29     -0.03      4.86414
 Cr   33 -- I    36        0.29     -0.03      4.86414
 Cr  177 -- I   180        0.29     -0.03      4.86414
 Cr    9 -- I    12        0.29     -0.03      4.86414
 I    27 -- Cr  114        0.29     -0.03      5.11128
 I     3 -- Cr   90        0.29     -0.03      5.11128
 I    51 -- Cr  138        0.29     -0.03      5.11128
 Cr  266 -- I   275        0.29     -0.03      5.11128
 Cr  122 -- I   131        0.29     -0.03      5.11128
 Cr   74 -- I    83        0.29     -0.03      5.11128
 Cr   98 -- I   107        0.29     -0.03      5.11128
 Cr  242 -- I   251        0.29     -0.03      5.11128
 Cr  218 -- I   227        0.29     -0.03      5.11128
 Cr  146 -- I   155        0.29     -0.03      5.11128
 Cr  170 -- I   179        0.29     -0.03      5.11128
 Cr   50 -- I    59        0.29     -0.03      5.11128
 Cr    2 -- I    11        0.29     -0.03      5.11128
 Cr   26 -- I    35        0.29     -0.03      5.11128
 Cr  194 -- I   203        0.29     -0.03      5.11128
 I   171 -- Cr  258        0.29     -0.03      5.11128
 I   195 -- Cr  282        0.29     -0.03      5.11128
 I   147 -- Cr  234        0.29     -0.03      5.11128
 Cr  194 -- I   197        0.29     -0.03      5.11128
 Cr  210 -- I   213        0.29     -0.03      5.11128
 Cr  250 -- I   253        0.29     -0.03      5.11128
 Cr  242 -- I   245        0.29     -0.03      5.11128
 Cr   50 -- I    53        0.29     -0.03      5.11128
 Cr  234 -- I   237        0.29     -0.03      5.11128
 Cr  226 -- I   229        0.29     -0.03      5.11128
 Cr  218 -- I   221        0.29     -0.03      5.11128
 Cr   26 -- I    29        0.29     -0.03      5.11128
 Cr  154 -- I   157        0.29     -0.03      5.11128
 Cr  146 -- I   149        0.29     -0.03      5.11128
 Cr  106 -- I   109        0.29     -0.03      5.11128
 Cr  282 -- I   285        0.29     -0.03      5.11128
 Cr    2 -- I     5        0.29     -0.03      5.11128
 Cr  122 -- I   125        0.29     -0.03      5.11128
 Cr  130 -- I   133        0.29     -0.03      5.11128
 Cr   10 -- I    13        0.29     -0.03      5.11128
 Cr   58 -- I    61        0.29     -0.03      5.11128
 Cr   42 -- I    45        0.29     -0.03      5.11128
 Cr   82 -- I    85        0.29     -0.03      5.11128
 Cr   34 -- I    37        0.29     -0.03      5.11128
 Cr   18 -- I    21        0.29     -0.03      5.11128
 Cr  138 -- I   141        0.29     -0.03      5.11128
 Cr   98 -- I   101        0.29     -0.03      5.11128
 Cr   90 -- I    93        0.29     -0.03      5.11128
 Cr  114 -- I   117        0.29     -0.03      5.11128
 Cr   66 -- I    69        0.29     -0.03      5.11128
 Cr  202 -- I   205        0.29     -0.03      5.11128
 Cr  170 -- I   173        0.29     -0.03      5.11128
 Cr   74 -- I    77        0.29     -0.03      5.11128
 Cr  274 -- I   277        0.29     -0.03      5.11128
 Cr  162 -- I   165        0.29     -0.03      5.11128
 Cr  266 -- I   269        0.29     -0.03      5.11128
 Cr  178 -- I   181        0.29     -0.03      5.11128
 Cr  258 -- I   261        0.29     -0.03      5.11128
 Cr  186 -- I   189        0.29     -0.03      5.11128
 Cr  186 -- I   243        0.29     -0.03      5.11128
 Cr  210 -- I   267        0.29     -0.03      5.11128
 Cr  162 -- I   219        0.29     -0.03      5.11128
 Cr  274 -- I   283        0.29     -0.03      5.11128
 Cr  130 -- I   139        0.29     -0.03      5.11128
 Cr   82 -- I    91        0.29     -0.03      5.11128
 Cr  106 -- I   115        0.29     -0.03      5.11128
 Cr   34 -- I    43        0.29     -0.03      5.11128
 Cr   58 -- I    67        0.29     -0.03      5.11128
 Cr  226 -- I   235        0.29     -0.03      5.11128
 Cr  202 -- I   211        0.29     -0.03      5.11128
 Cr  178 -- I   187        0.29     -0.03      5.11128
 Cr   10 -- I    19        0.29     -0.03      5.11128
 Cr  154 -- I   163        0.29     -0.03      5.11128
 Cr  250 -- I   259        0.29     -0.03      5.11128
 Cr   18 -- I    75        0.29     -0.03      5.11128
 Cr   66 -- I   123        0.29     -0.03      5.11128
 Cr   42 -- I    99        0.29     -0.03      5.11128
 Cr  234 -- I   240        0.29     -0.03      5.11128
 Cr  138 -- I   144        0.29     -0.03      5.11128
 Cr  282 -- I   288        0.29     -0.03      5.11128
 Cr  258 -- I   264        0.29     -0.03      5.11128
 Cr  114 -- I   120        0.29     -0.03      5.11128
 Cr   90 -- I    96        0.29     -0.03      5.11128
 Cr  242 -- I   248        0.29     -0.03      5.11128
 Cr  122 -- I   128        0.29     -0.03      5.11128
 Cr  218 -- I   224        0.29     -0.03      5.11128
 Cr  194 -- I   200        0.29     -0.03      5.11128
 Cr   98 -- I   104        0.29     -0.03      5.11128
 Cr   74 -- I    80        0.29     -0.03      5.11128
 Cr  210 -- I   216        0.29     -0.03      5.11128
 Cr   42 -- I    48        0.29     -0.03      5.11128
 Cr   66 -- I    72        0.29     -0.03      5.11128
 Cr   50 -- I    56        0.29     -0.03      5.11128
 Cr   18 -- I    24        0.29     -0.03      5.11128
 Cr   26 -- I    32        0.29     -0.03      5.11128
 Cr   10 -- I    16        0.29     -0.03      5.11128
 Cr  250 -- I   256        0.29     -0.03      5.11128
 Cr    2 -- I     8        0.29     -0.03      5.11128
 Cr   34 -- I    40        0.29     -0.03      5.11128
 Cr  146 -- I   152        0.29     -0.03      5.11128
 Cr  266 -- I   272        0.29     -0.03      5.11128
 Cr  154 -- I   160        0.29     -0.03      5.11128
 Cr   58 -- I    64        0.29     -0.03      5.11128
 Cr  202 -- I   208        0.29     -0.03      5.11128
 Cr  162 -- I   168        0.29     -0.03      5.11128
 Cr  170 -- I   176        0.29     -0.03      5.11128
 Cr  178 -- I   184        0.29     -0.03      5.11128
 Cr  130 -- I   136        0.29     -0.03      5.11128
 Cr  226 -- I   232        0.29     -0.03      5.11128
 Cr  106 -- I   112        0.29     -0.03      5.11128
 Cr   82 -- I    88        0.29     -0.03      5.11128
 Cr  186 -- I   192        0.29     -0.03      5.11128
 Cr  274 -- I   280        0.29     -0.03      5.11128
 Cr  130 -- I   142        0.29     -0.03      5.11128
 Cr  274 -- I   286        0.29     -0.03      5.11128
 Cr  250 -- I   262        0.29     -0.03      5.11128
 Cr  226 -- I   238        0.29     -0.03      5.11128
 Cr  106 -- I   118        0.29     -0.03      5.11128
 Cr   82 -- I    94        0.29     -0.03      5.11128
 Cr  266 -- I   278        0.29     -0.03      5.11128
 Cr  242 -- I   254        0.29     -0.03      5.11128
 Cr  218 -- I   230        0.29     -0.03      5.11128
 Cr  194 -- I   206        0.29     -0.03      5.11128
 Cr  122 -- I   134        0.29     -0.03      5.11128
 Cr   34 -- I    46        0.29     -0.03      5.11128
 Cr  154 -- I   166        0.29     -0.03      5.11128
 Cr   26 -- I    38        0.29     -0.03      5.11128
 Cr   10 -- I    22        0.29     -0.03      5.11128
 Cr   58 -- I    70        0.29     -0.03      5.11128
 Cr   50 -- I    62        0.29     -0.03      5.11128
 Cr    2 -- I    14        0.29     -0.03      5.11128
 Cr  170 -- I   182        0.29     -0.03      5.11128
 Cr   74 -- I    86        0.29     -0.03      5.11128
 Cr   98 -- I   110        0.29     -0.03      5.11128
 Cr  146 -- I   158        0.29     -0.03      5.11128
 Cr  202 -- I   214        0.29     -0.03      5.11128
 Cr  178 -- I   190        0.29     -0.03      5.11128
 I   198 -- Cr  282        0.29     -0.03      5.11128
 I   150 -- Cr  234        0.29     -0.03      5.11128
 I   174 -- Cr  258        0.29     -0.03      5.11128
 I    54 -- Cr  138        0.29     -0.03      5.11128
 I     6 -- Cr   90        0.29     -0.03      5.11128
 I    30 -- Cr  114        0.29     -0.03      5.11128
 Cr   18 -- I    78        0.29     -0.03      5.11128
 Cr   42 -- I   102        0.29     -0.03      5.11128
 Cr   66 -- I   126        0.29     -0.03      5.11128
 Cr  210 -- I   270        0.29     -0.03      5.11128
 Cr  162 -- I   222        0.29     -0.03      5.11128
 Cr  186 -- I   246        0.29     -0.03      5.11128
 Cr  265 -- I   270        0.29     -0.03      5.11131
 Cr  241 -- I   246        0.29     -0.03      5.11131
 Cr  217 -- I   222        0.29     -0.03      5.11131
 Cr   97 -- I   102        0.29     -0.03      5.11131
 Cr   73 -- I    78        0.29     -0.03      5.11131
 Cr  121 -- I   126        0.29     -0.03      5.11131
 Cr  249 -- I   280        0.29     -0.03      5.11131
 Cr  185 -- I   216        0.29     -0.03      5.11131
 Cr  161 -- I   192        0.29     -0.03      5.11131
 Cr  153 -- I   184        0.29     -0.03      5.11131
 Cr  177 -- I   208        0.29     -0.03      5.11131
 Cr   89 -- I   120        0.29     -0.03      5.11131
 Cr   33 -- I    64        0.29     -0.03      5.11131
 Cr  129 -- I   232        0.29     -0.03      5.11131
 Cr  113 -- I   144        0.29     -0.03      5.11131
 Cr  233 -- I   264        0.29     -0.03      5.11131
 Cr   41 -- I    72        0.29     -0.03      5.11131
 Cr   17 -- I    48        0.29     -0.03      5.11131
 Cr  105 -- I   136        0.29     -0.03      5.11131
 Cr   81 -- I   112        0.29     -0.03      5.11131
 Cr  137 -- I   240        0.29     -0.03      5.11131
 Cr    9 -- I    40        0.29     -0.03      5.11131
 Cr  225 -- I   256        0.29     -0.03      5.11131
 Cr  257 -- I   288        0.29     -0.03      5.11131
 Cr  145 -- I   176        0.29     -0.03      5.11131
 Cr  121 -- I   224        0.29     -0.03      5.11131
 Cr  241 -- I   272        0.29     -0.03      5.11131
 Cr   73 -- I   104        0.29     -0.03      5.11131
 Cr    1 -- I    32        0.29     -0.03      5.11131
 Cr   97 -- I   128        0.29     -0.03      5.11131
 Cr   25 -- I    56        0.29     -0.03      5.11131
 Cr  169 -- I   200        0.29     -0.03      5.11131
[...]
*    I     148     -0.00136169  -0.00236276  -0.00492160 *
*    I     149     -0.00133947   0.00244452  -0.00495576 *
*    I     150     -0.00277620   0.00000930   0.00493516 *
*    I     151      0.00136681   0.00236264   0.00492144 *
*    I     152      0.00141959  -0.00239830   0.00495608 *
*    Cr    153      0.00000952   0.00000311  -0.00000045 *
*    Cr    154     -0.00002604  -0.00001051  -0.00000174 *
*    I     155      0.00276985   0.00002590  -0.00492029 *
*    I     156     -0.00136268  -0.00236261  -0.00491933 *
*    I     157     -0.00133637   0.00244502  -0.00495919 *
*    I     158     -0.00276606  -0.00001227   0.00491843 *
*    I     159      0.00136567   0.00235981   0.00492231 *
*    I     160      0.00141834  -0.00239468   0.00495823 *
*    Cr    161      0.00001286  -0.00000697  -0.00000060 *
*    Cr    162     -0.00003495   0.00001742  -0.00000070 *
*    I     163      0.00276317   0.00002229  -0.00492051 *
*    I     164     -0.00135997  -0.00236703  -0.00492034 *
*    I     165     -0.00134284   0.00243433  -0.00494778 *
*    I     166     -0.00276604  -0.00001739   0.00492061 *
*    I     167      0.00136989   0.00236376   0.00492109 *
*    I     168      0.00140297  -0.00240279   0.00494885 *
*    Cr    169     -0.00000913  -0.00000011  -0.00000309 *
*    Cr    170     -0.00000809   0.00000293  -0.00000194 *
*    I     171      0.00280005  -0.00000109  -0.00497351 *
*    I     172     -0.00139639  -0.00237950  -0.00497496 *
*    I     173     -0.00139408   0.00240281  -0.00493694 *
*    I     174     -0.00279110  -0.00003741   0.00497579 *
*    I     175      0.00136068   0.00240238   0.00497501 *
*    I     176      0.00135359  -0.00242411   0.00493658 *
*    Cr    177     -0.00001568   0.00000930  -0.00000293 *
*    Cr    178      0.00001681  -0.00000911  -0.00000277 *
*    I     179      0.00280029  -0.00000537  -0.00497326 *
*    I     180     -0.00141422  -0.00235754  -0.00495933 *
*    I     181     -0.00136824   0.00240048  -0.00492054 *
*    I     182     -0.00279670  -0.00004041   0.00497514 *
*    I     183      0.00133469   0.00240289   0.00496016 *
*    I     184      0.00136375  -0.00240808   0.00492053 *
*    Cr    185      0.00000276  -0.00001076   0.00000010 *
*    Cr    186     -0.00000442   0.00002755  -0.00000134 *
*    I     187      0.00276401   0.00001711  -0.00491677 *
*    I     188     -0.00135950  -0.00236157  -0.00492156 *
*    I     189     -0.00136948   0.00240116  -0.00491752 *
*    I     190     -0.00276684  -0.00001775   0.00492249 *
*    I     191      0.00136579   0.00236127   0.00492162 *
*    I     192      0.00136323  -0.00240769   0.00492304 *
*    Cr    193      0.00000562  -0.00000421   0.00000098 *
*    Cr    194     -0.00001311   0.00000541  -0.00000242 *
*    I     195      0.00279704  -0.00000676  -0.00497303 *
*    I     196     -0.00139863  -0.00238165  -0.00497609 *
*    I     197     -0.00136223   0.00243907  -0.00497639 *
*    I     198     -0.00279697  -0.00004095   0.00497751 *
*    I     199      0.00136219   0.00240339   0.00497664 *
*    I     200      0.00140202  -0.00242307   0.00497454 *
*    Cr    201     -0.00000452   0.00000712  -0.00000266 *
*    Cr    202     -0.00000663   0.00001096  -0.00000248 *
*    I     203      0.00279709  -0.00000620  -0.00497165 *
*    I     204     -0.00139873  -0.00238012  -0.00497475 *
*    I     205     -0.00136687   0.00243905  -0.00497146 *
*    I     206     -0.00279618  -0.00004307   0.00497840 *
*    I     207      0.00136171   0.00240055   0.00497524 *
*    I     208      0.00140309  -0.00242462   0.00497528 *
*    Cr    209     -0.00001077   0.00000400  -0.00000090 *
*    Cr    210      0.00001654   0.00001268  -0.00000057 *
*    I     211      0.00279717  -0.00000942  -0.00497074 *
*    I     212     -0.00141535  -0.00235968  -0.00495693 *
*    I     213     -0.00137461   0.00240254  -0.00491800 *
*    I     214     -0.00279650  -0.00003889   0.00497153 *
*    I     215      0.00133623   0.00240608   0.00495813 *
*    I     216      0.00136644  -0.00240570   0.00491949 *
*    Cr    217      0.00001082  -0.00002533  -0.00000015 *
*    Cr    218     -0.00003062  -0.00000721   0.00000107 *
*    I     219      0.00278061  -0.00001756  -0.00494678 *
*    I     220     -0.00139010  -0.00235955  -0.00494811 *
*    I     221     -0.00074962   0.00330429  -0.00566449 *
*    I     222     -0.00278119  -0.00005529   0.00494934 *
*    I     223      0.00134102   0.00240286   0.00494225 *
*    I     224      0.00246382  -0.00231723   0.00566894 *
*    Cr    225      0.00000659  -0.00000746  -0.00000312 *
*    Cr    226     -0.00002852  -0.00001838  -0.00000335 *
*    I     227      0.00278092  -0.00002411  -0.00493893 *
*    I     228     -0.00138910  -0.00237674  -0.00496488 *
*    I     229     -0.00139189   0.00240099  -0.00494152 *
*    I     230     -0.00276823  -0.00003956   0.00494767 *
*    I     231      0.00136828   0.00239373   0.00496581 *
*    I     232      0.00135578  -0.00242221   0.00494145 *
*    Cr    233     -0.00000081   0.00000027  -0.00000162 *
*    Cr    234     -0.00003180  -0.00001196  -0.00000075 *
*    I     235      0.00277669   0.00004099  -0.00493396 *
*    I     236     -0.00134690  -0.00238276  -0.00493776 *
*    I     237     -0.00136473   0.00244186  -0.00497163 *
*    I     238     -0.00277034   0.00001292   0.00493709 *
*    I     239      0.00139333   0.00235920   0.00493849 *
*    I     240      0.00140686  -0.00241453   0.00497152 *
*    Cr    241      0.00000476  -0.00002597  -0.00000285 *
*    Cr    242     -0.00001705   0.00000141  -0.00000302 *
*    I     243      0.00278318  -0.00003207  -0.00495680 *
*    I     244     -0.00138940  -0.00239365  -0.00498651 *
*    I     245     -0.00138683   0.00243095  -0.00497540 *
*    I     246     -0.00278388  -0.00006228   0.00495849 *
*    I     247      0.00137835   0.00240230   0.00498788 *
*    I     248      0.00138234  -0.00243190   0.00497590 *
*    Cr    249      0.00000286  -0.00001557  -0.00000263 *
*    Cr    250     -0.00001815  -0.00000620  -0.00000214 *
*    I     251      0.00280180   0.00000757  -0.00498541 *
*    I     252     -0.00138735  -0.00238835  -0.00498856 *
*    I     253     -0.00138738   0.00242772  -0.00497664 *
*    I     254     -0.00279811  -0.00001850   0.00498468 *
*    I     255      0.00137778   0.00240403   0.00498785 *
*    I     256      0.00138580  -0.00242470   0.00497692 *
*    Cr    257      0.00000221  -0.00001086  -0.00000128 *
*    Cr    258     -0.00001549   0.00000238  -0.00000247 *
*    I     259      0.00280444   0.00000825  -0.00498528 *
*    I     260     -0.00139717  -0.00237791  -0.00497735 *
*    I     261     -0.00139172   0.00239819  -0.00493765 *
*    I     262     -0.00280008  -0.00002420   0.00498766 *
*    I     263      0.00135997   0.00240568   0.00497546 *
*    I     264      0.00135180  -0.00242262   0.00493574 *
*    Cr    265      0.00000673  -0.00001974  -0.00000103 *
*    Cr    266     -0.00000283   0.00000234  -0.00000136 *
*    I     267      0.00276345   0.00001788  -0.00491856 *
*    I     268     -0.00134776  -0.00238469  -0.00493733 *
*    I     269     -0.00136610   0.00244329  -0.00497129 *
*    I     270     -0.00276294  -0.00001048   0.00491882 *
*    I     271      0.00139032   0.00236067   0.00493855 *
*    I     272      0.00140606  -0.00241606   0.00497374 *
*    Cr    273      0.00001048  -0.00001624  -0.00000255 *
*    Cr    274     -0.00000985  -0.00000345  -0.00000156 *
*    I     275      0.00279489  -0.00000232  -0.00497459 *
*    I     276     -0.00139787  -0.00237688  -0.00497761 *
*    I     277     -0.00136622   0.00244293  -0.00497268 *
*    I     278     -0.00279507  -0.00003817   0.00497255 *
*    I     279      0.00136410   0.00240402   0.00497522 *
*    I     280      0.00140219  -0.00241638   0.00497521 *
*    Cr    281      0.00000680  -0.00000638   0.00000016 *
*    Cr    282     -0.00000940   0.00000168   0.00000052 *
*    I     283      0.00279799  -0.00000117  -0.00497524 *
*    I     284     -0.00139880  -0.00237903  -0.00497548 *
*    I     285     -0.00136175   0.00244547  -0.00497569 *
*    I     286     -0.00279620  -0.00003715   0.00497445 *
*    I     287      0.00136042   0.00240020   0.00497585 *
*    I     288      0.00140424  -0.00241850   0.00497414 *
*                                                        *
**********************************************************
* TOTAL:            0.00000000  -0.00000000   0.00000000 *
**********************************************************
 
 
***********************************************************
********** Summary of Forces (values in Eh/a) *************
*                                                         *
* ---------------------- Minimum ------------------------ *
* Atom:       233, |F|min =    0.00000183                 *
* Components:     Fx|min       Fy|min       Fz|min        *
*              -0.00000081   0.00000027  -0.00000162      *
*                                                         *
* ---------------------- Maximum ------------------------ *
* Atom:       127, |F|max =    0.00662160                 *
* Components:     Fx|max       Fy|max       Fz|max        *
*               0.00079591   0.00326589   0.00570492      *
*                                                         *
* ---------------- Root Mean Square Force --------------- *
*                  |F|rms =    0.00494644                 *
* Components:     Fx|rms       Fy|rms       Fz|rms        *
*               0.00171197   0.00171075   0.00431391      *
***********************************************************
 

------------------------------ TIMING INFORMATION ------------------------------
AVERAGE TIME:   39614.077s on     56 proc(s)                                    
TOTAL TIME:     39614.078s on     56 proc(s)                                    
==================== AVERAGE TIMINGS FROM ALL PROCS (CUMULATIVE) =====================
|| TAG                                         #calls     cpu time   %total  Gflops ||
|| hubbard_species_proj                       :     1        0.00s   0.000%  ------ ||
|| hubbard_ngwf_on_grid                       :     1        0.00s   0.000%  ------ ||
|| hash_table_free                            :    82        0.00s   0.000%  ------ ||
|| sw_bessel_init_cpu                         :     1        0.01s   0.000%  ------ || (1 procs only)
|| hubbard_projector_character                :     1        0.00s   0.000%  ------ ||
|| hubbard_ngwf_select                        :     1        0.00s   0.000%  ------ ||
|| linalg_invert_sym_matrix                   :     4        0.05s   0.000%  ------ || (1 procs only)
|| hubbard_tensorial_correction               :     2        0.00s   0.000%  ------ ||
|| density_fftbox_interp_mult_imbal           : 29040        0.00s   0.000%  ------ ||
|| ewald_calculate_forces_realspace           :     1        0.01s   0.000%  ------ ||
|| onetep.F90 final imbalance                 :     1        0.02s   0.000%  ------ ||
|| linalg_dgemv                               :    44        0.02s   0.000%  ------ ||
|| sparse_blacstospam3_real_fast_imbal        :   100        0.04s   0.000%  ------ ||
|| ewald_calculate_energy                     :     1        0.04s   0.000%  ------ ||
|| sparse_set_to_garbage                      :  1796        0.07s   0.000%  ------ ||
|| ewald_calculate_forces_recipspace          :     1        0.08s   0.000%  ------ ||
|| paw_tcore_hartree_on_grid                  :     1        0.10s   0.000%  ------ ||
|| sw_init                                    :   879        0.13s   0.000%  ------ ||
|| pseudo_make_structure_factor               :     1        0.15s   0.000%  ------ ||
|| onetep.F90 main loop imbalance             :     1        0.16s   0.000%  ------ ||
|| sparse_spam3toblacs_real_fast_B2           :  4816        0.19s   0.000%  ------ ||
|| paw_dij_hartree                            :   486        0.20s   0.001%  ------ ||
|| hubbard_projection_mtx                     :    84        0.21s   0.001%  ------ ||
|| restart_hamiltonian_write                  :     2        0.21s   0.001%  ------ ||
|| ewald_calculate_forces                     :     1        0.22s   0.001%  ------ ||
|| sparse_spam3toblacs_real_fast_imbal        :    86        0.34s   0.001%  ------ ||
|| augmentation_density_forces                :     1        0.37s   0.001%  ------ ||
|| sparse_init                                :     1        0.39s   0.001%  ------ ||
|| paw_tcore_hartree_calc_forces              :     1        0.72s   0.002%  ------ ||
|| basis_extract_function_from_box            :  5271        1.05s   0.003%  ------ ||
|| hubbard_projector_ham                      :   212        1.57s   0.004%  ------ ||
|| paw_tcore_density                          :     1        1.76s   0.004%  ------ ||
|| sparse_spam3toblacs_real_fast_B1           :  4816        2.09s   0.005%  ------ ||
|| paw_dataset_init                           :     2        2.15s   0.005%  ------ ||
|| hubbard_ham_matrix                         :   213        2.23s   0.006%  ------ ||
|| paw_nlcc_calculate_forces                  :     1        2.38s   0.006%  ------ ||
|| paw_sphere_density_on_grid                 :     1        2.80s   0.007%  ------ ||
|| sparse_spam3toblacs_real_fast              :    86        3.01s   0.008%  ------ ||
|| hubbard_energy_total                       :   442        5.09s   0.013%  ------ ||
|| restart_kernel_write                       :    43        5.49s   0.014%  ------ ||
|| nonsc_forces_ngwfs_calc                    :     1        5.51s   0.014%  ------ ||
|| sparse_blacstospam3_real_fast              :   100        5.65s   0.014%  ------ ||
|| paw_species_calc_proj_prec_mat             :     1        5.81s   0.015%  ------ ||
|| ngwfs_initialise_from_radial               :     4        5.82s   0.015%  ------ ||
|| sparse_embed_array_hotelling_invert        :    82       10.90s   0.028%  ------ ||
|| hubbard_calculate_forces                   :     1       11.26s   0.028%  ------ ||
|| dense_eigensolve                           :    40       11.47s   0.029%  ------ ||
|| edft_diag_ngwf_ham                         :    38       13.49s   0.034%  ------ ||
|| integrals_grad_spam3                       :     4       16.48s   0.042%  ------ ||
|| edft_apply_smearing_operator               :    19       20.30s   0.051%  ------ ||
|| energy_and_force_init_cell                 :     1       20.56s   0.052%  ------ ||
|| sparse_trace                               : 15184       24.65s   0.062%  ------ ||
|| kernel_purify                              :   661       29.73s   0.075%  ------ ||
|| hubbard_projector_update                   :     1       30.70s   0.078%  ------ ||
|| eigenstates_calculate                      :     1       32.72s   0.083%  ------ ||
|| ngwf_gradient_coeffs                       :    41       36.46s   0.092%  ------ ||
|| hamiltonian_energy_components              :     1       37.10s   0.094%  ------ ||
|| kernel_fix                                 :   205       37.60s   0.095%  ------ ||
|| lnv_gradient_norm                          :   205       38.19s   0.096%  ------ ||
|| fourier_filter_cell                        :   510       40.48s   0.102% 139.864 ||
|| projectors_func_grad_ovlp_box_spam3        :     6       40.87s   0.103%  ------ ||
|| aug_nl_calculate_forces                    :     1       41.96s   0.106%  ------ ||
|| basis_copy_function_to_box                 : 50657       49.82s   0.126%  ------ ||
|| hartree_on_grid_single                     :   439       57.71s   0.146%  ------ ||
|| density_init_guess_real                    :     2       58.36s   0.147%  ------ ||
|| fourier_apply_box_pair                     :  7998       61.18s   0.154%  1.777k ||
|| fourier_interpolate_cell                   :   880       70.04s   0.177% 139.488 ||
|| forces_calculate                           :     1      128.61s   0.325%  ------ ||
|| augmentation_screen_dij_spam3              :   438      143.75s   0.363%  ------ ||
|| cell_grid_deposit_box_real                 : 35154      174.94s   0.442%  ------ ||
|| sparse_product                             : 29364      211.17s   0.533%  ------ ||
|| aug_nonlocal_mat_spam3_embed_array         :   444      226.94s   0.573%  ------ ||
|| paw_dij_xc                                 :   486      237.57s   0.600%  ------ ||
|| fourier_apply_cell_backward                :  3952      263.14s   0.664% 150.026 ||
|| fourier_apply_cell_forward                 :  3952      294.57s   0.744% 134.018 ||
|| fourier_filter                             :  9634      296.31s   0.748%  ------ ||
|| restart_ngwfs_tightbox_output              :    40      317.65s   0.802%  ------ ||
|| aug_density_on_grid_spam3                  :   440      318.20s   0.803%  ------ ||
|| cell_grid_extract_box_real                 : 22512      321.90s   0.813%  ------ ||
|| projectors_init_fftbox_recip               :  1079      385.51s   0.973%  ------ ||
|| fourier_interpolate                        :  9634      458.22s   1.157%  ------ ||
|| properties_calculate                       :     1      463.34s   1.170%  ------ ||
|| function_ops_brappd_ketppd_spam3           :   332      515.30s   1.301%  ------ ||
|| xc_energy_potential                        :   439      615.84s   1.555%  ------ ||
|| edft_calculate                             :     1      938.99s   2.370%  ------ ||
|| density_fftbox_deposit_to_cell             : 29040     1196.30s   3.020%  ------ ||
|| projectors_func_ovlp_box_spam3             :   334     1288.01s   3.251%  ------ ||
|| integrals_kinetic_spam3                    :   164     1402.29s   3.540%  ------ ||
|| basis_dot_function_with_box                : 17.83M    1955.52s   4.936%  ------ ||
|| potential_apply_to_ngwf_batch              :  1280     2257.78s   5.699%  ------ ||
|| projectors_gradient_batch                  :   492     2668.40s   6.736%  ------ ||
|| fourier_apply_box                          : 157.3k    3769.33s   9.515%  1.883k ||
|| integrals_locpot_mat_els_batch             :  1280     3847.30s   9.712%  ------ ||
|| fourier_interpolate_product                : 28285     4073.86s  10.284%  ------ ||
|| density_fftbox_interpolate_multiply        : 29040     4291.20s  10.833%  ------ ||
|| basis_add_function_to_box                  : 35.59M    4374.40s  11.043%  ------ ||
|| projectors_grad_precond_batch              :   246     5270.15s  13.304%  ------ ||
|| integrals_locpot_dbl_grid                  :   428     6110.58s  15.425%  ------ ||
|| density_batch_interp_deposit               :  2640     6863.39s  17.326%  ------ ||
|| density_batch_row_sums                     :  2640     7752.82s  19.571%  ------ ||
|| ngwf_gradient_build_batch                  :   246     8786.44s  22.180%  ------ ||
|| ngwf_gradient_batch                        :   246    12591.80s  31.786%  ------ ||
|| ngwf_gradient_lnv                          :    41    12792.50s  32.293%  ------ ||
|| density_on_dbl_grid                        :   880    14735.03s  37.196%  ------ ||
|| hamiltonian_lhxc_calculate                 :   436    15911.67s  40.167%  ------ ||
|| lnv_denskernel_optimise_cg                 :    41    19902.33s  50.241%  ------ ||
|| ngwf_cg_optimise                           :     1    37876.36s  95.613%  ------ ||
|| energy_and_forces                          :     1    39591.99s  99.944%  ------ ||
|| total_time                                 :     1    39614.08s 100.000%  ------ ||
======================================================================================
Overhead of generating timer report: 
- 0 ms averaging over threads,
- 5 ms ensuring consistency across MPI ranks,
- 44 ms printing in order.

Job completed: 22-10-2024 03:13 (+0100)

onetep_launcher: ONETEP seems to have finished correctly (zero exit code).
                 Brought to you by PID 227761 on nid001054.
