==================================================================================
It's Mon 30 Sep 2024 03:05:49 PM BST.
*** Starting onetep_launcher (node nid003671, PIDs 192416 192417 192418 192419 192420 192421 192422 192423)...
    - ONETEP arguments: U_0_0.dat
    - Current directory: /mnt/lustre/a2fs-work3/work/e89/e89/phsmea/U_det/alpha_0_beta_0
    - Launcher executable directory: /mnt/lustre/a2fs-work3/work/e89/e89/phsmea/U_det/alpha_0_beta_0
    - (-e) ONETEP executable specified through command-line: /work/e89/e89/phsmea/onetep.archer2_2024_cray
      ... trying /work/e89/e89/phsmea/onetep.archer2_2024_cray
          -> looks OK
*** Setting up environment...
    - (-s) Process stack size: unlimited
    - (-t) OMP_NUM_THREADS: 16
    - (-o) OMP_STACKSIZE: 64M
    - (-c) Maximum core file size: 2048000
    - (-d) decfort_dump_flag: n
    - (-m) I_MPI_OFA_TRANSLATION_CACHE: 0
    - (-m) I_MPI_DAPL_TRANSLATION_CACHE: 0
    - (-m) I_MPI_DAPL_UD_TRANSLATION_CACHE: 0
*** Starting ONETEP...
    - /work/e89/e89/phsmea/onetep.archer2_2024_cray U_0_0.dat
=================================================================================
_________________________________________________________________________________
 +---------------------------------------------------------------+
 |                                                               |
 |        ####### #     # ####### ####### ####### ######         |
 |        #     # ##    # #          #    #       #     #        |
 |        #     # # #   # #          #    #       #     #        |
 |        #     # #  #  # #####      #    #####   ######         |
 |        #     # #   # # #          #    #       #              |
 |        #     # #    ## #          #    #       #              |
 |        ####### #     # #######    #    ####### #              |
 |                                                               |
 |        Linear-Scaling Ab Initio Total Energy Program          |
 |                                                               |
 |          Release for academic collaborators of ODG            |
 |                                             Version 7.3.0     |
 | Remote: git@github.com:Miesaz/onetep_mea.git                  |
 | Local branch: master                                          |
 | Commit ID: 4af45e89288c8df5499704252eec3e032ee3d0c8           |
 | Date: Tue Aug 6 11:28:44 2024 +0100                           |
 | Working tree clean                                            |
 |                                                               |
 +---------------------------------------------------------------+
 |                                                               |
 |  Authors:                                                     |
 |  Jacek Dziedzic, Peter D. Haynes, Nicholas D. M. Hine,        |
 |  Arash A. Mostofi, Mike C. Payne and Chris-Kriton Skylaris    |
 |                                                               |
 |  Contributors:                                                |
 |  J. Aarons, L. Andrinopoulos, P. W. Avraam, R. A. Bell,       |
 |  A. Bhandari, G. A. Bramley, R. J. Charlton, S. J. Clark,     |
 |  R. J. Clements, G. C. Constantinescu, F. Corsetti,           |
 |  N. Corsini, O. Dieguez, S. M. M. Dubois, K. K. B. Duff,      |
 |  J. M. Escartin, M. Escobar Azor, A. Greco,                   |
 |  H. Helal, Q. O. Hill, L. P. Lee, J.-H. Li,                   |
 |  T. Li, E. B. Linscott, G. Moynihan, D. D. O`Regan,           |
 |  O. K. Okan, E. Parkinson, M. J. S. Phipps,                   |
 |  C. J. Pickard, J. C. A. Prentice, M. I. J. Probert,          |
 |  L. E. Ratcliff, M. Robinson, A. Ruiz Serrano,                |
 |  M. dos Santos Dias, J. S. Spencer, E. W. Tait,               |
 |  G. Teobaldi, D. Turban, V. Vitale, K. A. Wilkinson,          |
 |  C. Weber, J. C. Womack, Chengcheng Xiao, N. Yeung,           |
 |  and T. J. Zuehlsdorff.                                       |
 |                                                               |
 |                                   Copyright (c) 2004-2024     |
 |                                                               |
 |  Please cite:                                                 |
 |  "The ONETEP linear-scaling density functional theory program"|
 |   J. Chem. Phys. 152(17) 174111 (2020)                        |
 |                                                               |
 |          in all publications arising from your use of ONETEP. |
 |                                                               |
 +---------------------------------------------------------------+
 |                                                               |
 |   ONETEP is based on developments described in the following  |
 |   publications:                                               |
 |                                                               |
 |  "Nonorthogonal generalized Wannier function pseudopotential  |
 |   plane-wave method".                                         |
 |   C.-K. Skylaris, A. A. Mostofi, P. D. Haynes, O. Dieguez,    |
 |   M. C. Payne.                                                |
 |   Phys. Rev. B 66 035119 (2002).                              |
 |                                                               |
 |  "Preconditioned iterative minimization for linear-scaling    |
 |   electronic structure calculations".                         |
 |   A. A. Mostofi, P. D. Haynes, C.-K. Skylaris, M. C. Payne.   |
 |   J. Chem. Phys. 119(17), pp.8842-8848 (2003).                |
 |                                                               |
 |  "Total-energy calculations on a real space grid with         |
 |   localized functions and a plane-wave basis".                |
 |   A. A. Mostofi, C.-K. Skylaris, P. D. Haynes, M. C. Payne.   |
 |   Comput. Phys. Commun. 147, pp.788-802 (2002).               |
 |                                                               |
 |  "Accurate kinetic energy evaluation in electronic structure  |
 |   calculations with localized functions on real space grids"  |
 |   C.-K. Skylaris, A. A. Mostofi, P. D. Haynes, C. J. Pickard, |
 |   M. C. Payne.                                                |
 |   Comput. Phys. Commun. 140, pp.315-322 (2001).               |
 |                                                               |
 |  "Accurate ionic forces and geometry optimization in linear-  |
 |   scaling density-functional theory with local orbitals"      |
 |   N. D. M. Hine, M. Robinson, P. D. Haynes, C.-K. Skylaris,   |
 |   M. C. Payne, and A. A. Mostofi.                             |
 |   Phys. Rev. B 83 195102 (2011).                              |
 |                                                               |
 +---------------------------------------------------------------+

Job started: 30-09-2024 15:05 (+0100)
 
Reading parameters from file "U_0_0.dat" ...
WARNING in get_rundat: hubbard_calculating_u is TRUE, so do_properties will be
overridden to TRUE.
... done

If your calculation crashes here, before "Checking processes and threads..."
is displayed, then your stack size is insufficient.
If so, use "ulimit -s unlimited" at runtime.
You can disable this check with "check_stack_size F".

Checking processes and threads...
   Running with 56 MPI processes.
   There are 8 MPI processes running on the same node as the root process.
   Each MPI process is using: 
               1 threads for simulation cell FFTs.
               1 threads for threaded FFT box operations.
              16 threads for loops over batched FFT box operations.
              16 threads in other parallel regions.
   MPI Interface: S1 (use mpi_f08) (-DMPI -DUSE_MPI_F08).
   MPI_ASYNC_PROTECTS_NONBLOCKING: Yes. MPI_SUBARRAYS_SUPPORTED: Yes.
   FFTW Interface: OMP-capable and MODERN. (-DUSE_MODERN_FFTW specified).
   GPU Interface: None.
   GPU FFT Backend: None.
... done

Basic input checks...... done

Reading geometry and species blocks from file "U_0_0.dat" ...... done


--------------------------------------------------------------------------------
---------------------------------- INPUT FILE ----------------------------------
--------------------------------------------------------------------------------

charge : 0                                                                      
cutoff_energy : 1000 eV                                                         
do_properties : T                                                               
edft : F                                                                        
edft_init_maxit : 5                                                             
elec_energy_tol : 2e-07 Ha                                                      
fine_grid_scale : 4                                                             
forces_output_detail : VERBOSE                                                  
hubbard_calculating_u : T                                                       
maxit_ngwf_cg : 40                                                              
ngwf_threshold_orig : 1e-06                                                     
output_detail : BRIEF                                                           
paw : T                                                                         
spin_polarized : T                                                              
ngwfs_spin_polarized : T                                                        
read_denskern : F                                                               
read_hamiltonian : F                                                            
read_tightbox_ngwfs : F                                                         
spin : 216                                                                      
task : SinglePoint                                                              
write_denskern : T                                                              
write_forces : T                                                                
write_hamiltonian : T                                                           
write_tightbox_ngwfs : T                                                        
xc_functional : PBE                                                             
%BLOCK LATTICE_CART                                                             
ang                                                                             
41.261892132    0.000000000     0.000000000                                     
-20.630946066   35.733846792     0.000000000                                    
0.0000000000    0.000000000    17.192455055                                     
%ENDBLOCK LATTICE_CART                                                          
%BLOCK POSITIONS_ABS                                                            
ang                                                                             
Cr       3.43849101       1.98521371       9.03176873                           
Cr       0.00000000       3.97042742       9.03176919                           
I        4.42260340      -0.00001318       7.48054615                           
I        1.22717790       2.12556082       7.48054615                           
I       -2.21129029       3.83009349       7.48054615                           
I        2.45437873      -0.00001140      10.58299027                           
I        2.21129177       3.83009250      10.58299027                           
I       -1.22717949       2.12556004      10.58299027                           
Cr       0.00000000       7.94085485       9.03176873                           
Cr      -3.43849101       9.92606855       9.03176919                           
I        0.98411239       5.95562795       7.48054615                           
I       -2.21131311       8.08120195       7.48054615                           
I       -5.64978130       9.78573462       7.48054615                           
I       -0.98411228       5.95562973      10.58299027                           
I       -1.22719924       9.78573363      10.58299027                           
I       -4.66567050       8.08120117      10.58299027                           
Cr      -3.43849101      13.89649598       9.03176873                           
Cr      -6.87698202      15.88170968       9.03176919                           
I       -2.45437862      11.91126909       7.48054615                           
I       -5.64980412      14.03684309       7.48054615                           
I       -9.08827231      15.74137575       7.48054615                           
I       -4.42260329      11.91127086      10.58299027                           
I       -4.66569025      15.74137476      10.58299027                           
I       -8.10416151      14.03684230      10.58299027                           
Cr      10.31547303       1.98521371       9.03176873                           
Cr       6.87698202       3.97042742       9.03176919                           
I       11.29958542      -0.00001318       7.48054615                           
I        8.10415992       2.12556082       7.48054615                           
I        4.66569173       3.83009349       7.48054615                           
I        9.33136075      -0.00001140      10.58299027                           
I        9.08827380       3.83009250      10.58299027                           
I        5.64980253       2.12556004      10.58299027                           
Cr       6.87698202       7.94085485       9.03176873                           
Cr       3.43849101       9.92606855       9.03176919                           
I        7.86109441       5.95562795       7.48054615                           
I        4.66566891       8.08120195       7.48054615                           
I        1.22720072       9.78573462       7.48054615                           
I        5.89286974       5.95562973      10.58299027                           
I        5.64978278       9.78573363      10.58299027                           
I        2.21131152       8.08120117      10.58299027                           
Cr       3.43849101      13.89649598       9.03176873                           
Cr       0.00000000      15.88170968       9.03176919                           
I        4.42260340      11.91126909       7.48054615                           
I        1.22717790      14.03684309       7.48054615                           
I       -2.21129029      15.74137575       7.48054615                           
I        2.45437873      11.91127086      10.58299027                           
I        2.21129177      15.74137476      10.58299027                           
I       -1.22717949      14.03684230      10.58299027                           
Cr      17.19245505       1.98521371       9.03176873                           
Cr      13.75396404       3.97042742       9.03176919                           
I       18.17656744      -0.00001318       7.48054615                           
I       14.98114195       2.12556082       7.48054615                           
I       11.54267375       3.83009349       7.48054615                           
I       16.20834277      -0.00001140      10.58299027                           
I       15.96525582       3.83009250      10.58299027                           
I       12.52678455       2.12556004      10.58299027                           
Cr      13.75396404       7.94085485       9.03176873                           
Cr      10.31547303       9.92606855       9.03176919                           
I       14.73807643       5.95562795       7.48054615                           
I       11.54265094       8.08120195       7.48054615                           
I        8.10418274       9.78573462       7.48054615                           
I       12.76985176       5.95562973      10.58299027                           
I       12.52676481       9.78573363      10.58299027                           
I        9.08829354       8.08120117      10.58299027                           
Cr      10.31547303      13.89649598       9.03176873                           
Cr       6.87698202      15.88170968       9.03176919                           
I       11.29958542      11.91126909       7.48054615                           
I        8.10415992      14.03684309       7.48054615                           
I        4.66569173      15.74137575       7.48054615                           
I        9.33136075      11.91127086      10.58299027                           
I        9.08827380      15.74137476      10.58299027                           
I        5.64980253      14.03684230      10.58299027                           
Cr      -6.87698202      19.85213711       9.03176873                           
Cr     -10.31547303      21.83735082       9.03176919                           
I       -5.89286963      17.86691022       7.48054615                           
I       -9.08829513      19.99248422       7.48054615                           
I      -12.52676332      21.69701689       7.48054615                           
I       -7.86109430      17.86691200      10.58299027                           
I       -8.10418126      21.69701590      10.58299027                           
I      -11.54265252      19.99248344      10.58299027                           
Cr     -10.31547303      25.80777825       9.03176873                           
Cr     -13.75396404      27.79299195       9.03176919                           
I       -9.33136064      23.82255135       7.48054615                           
I      -12.52678614      25.94812535       7.48054615                           
I      -15.96525433      27.65265802       7.48054615                           
I      -11.29958531      23.82255313      10.58299027                           
I      -11.54267227      27.65265703      10.58299027                           
I      -14.98114353      25.94812457      10.58299027                           
Cr     -13.75396404      31.76341938       9.03176873                           
Cr     -17.19245505      33.74863308       9.03176919                           
I      -12.76985165      29.77819249       7.48054615                           
I      -15.96527715      31.90376649       7.48054615                           
I      -19.40374534      33.60829915       7.48054615                           
I      -14.73807632      29.77819426      10.58299027                           
I      -14.98116328      33.60829816      10.58299027                           
I      -18.41963454      31.90376570      10.58299027                           
Cr      -0.00000000      19.85213711       9.03176873                           
Cr      -3.43849101      21.83735082       9.03176919                           
I        0.98411239      17.86691022       7.48054615                           
I       -2.21131311      19.99248422       7.48054615                           
I       -5.64978130      21.69701689       7.48054615                           
I       -0.98411228      17.86691200      10.58299027                           
I       -1.22719923      21.69701590      10.58299027                           
I       -4.66567050      19.99248344      10.58299027                           
Cr      -3.43849101      25.80777825       9.03176873                           
Cr      -6.87698202      27.79299195       9.03176919                           
I       -2.45437862      23.82255135       7.48054615                           
I       -5.64980412      25.94812535       7.48054615                           
I       -9.08827231      27.65265802       7.48054615                           
I       -4.42260329      23.82255313      10.58299027                           
I       -4.66569025      27.65265703      10.58299027                           
I       -8.10416151      25.94812457      10.58299027                           
Cr      -6.87698202      31.76341938       9.03176873                           
Cr     -10.31547303      33.74863308       9.03176919                           
I       -5.89286963      29.77819249       7.48054615                           
I       -9.08829513      31.90376649       7.48054615                           
I      -12.52676332      33.60829915       7.48054615                           
I       -7.86109430      29.77819426      10.58299027                           
I       -8.10418126      33.60829816      10.58299027                           
I      -11.54265252      31.90376570      10.58299027                           
CrU       6.87698202      19.85213711       9.03176873                          
Cr       3.43849101      21.83735082       9.03176919                           
I        7.86109441      17.86691022       7.48054615                           
I        4.66566892      19.99248422       7.48054615                           
I        1.22720072      21.69701689       7.48054615                           
I        5.89286974      17.86691200      10.58299027                           
I        5.64978279      21.69701590      10.58299027                           
I        2.21131152      19.99248344      10.58299027                           
Cr       3.43849101      25.80777825       9.03176873                           
Cr      -0.00000000      27.79299195       9.03176919                           
I        4.42260340      23.82255135       7.48054615                           
I        1.22717791      25.94812535       7.48054615                           
I       -2.21129029      27.65265802       7.48054615                           
I        2.45437873      23.82255313      10.58299027                           
I        2.21129178      27.65265703      10.58299027                           
I       -1.22717949      25.94812457      10.58299027                           
Cr      -0.00000000      31.76341938       9.03176873                           
Cr      -3.43849101      33.74863308       9.03176919                           
I        0.98411239      29.77819249       7.48054615                           
I       -2.21131311      31.90376649       7.48054615                           
I       -5.64978130      33.60829915       7.48054615                           
I       -0.98411228      29.77819426      10.58299027                           
I       -1.22719923      33.60829816      10.58299027                           
I       -4.66567050      31.90376570      10.58299027                           
Cr      24.06943708       1.98521371       9.03176873                           
Cr      20.63094607       3.97042742       9.03176919                           
I       25.05354947      -0.00001318       7.48054615                           
I       21.85812397       2.12556082       7.48054615                           
I       18.41965578       3.83009349       7.48054615                           
I       23.08532480      -0.00001140      10.58299027                           
I       22.84223784       3.83009250      10.58299027                           
I       19.40376658       2.12556004      10.58299027                           
Cr      20.63094607       7.94085485       9.03176873                           
Cr      17.19245506       9.92606855       9.03176919                           
I       21.61505846       5.95562795       7.48054615                           
I       18.41963296       8.08120195       7.48054615                           
I       14.98116477       9.78573462       7.48054615                           
I       19.64683379       5.95562973      10.58299027                           
I       19.40374683       9.78573363      10.58299027                           
I       15.96527557       8.08120117      10.58299027                           
Cr      17.19245506      13.89649598       9.03176873                           
Cr      13.75396405      15.88170968       9.03176919                           
I       18.17656745      11.91126909       7.48054615                           
I       14.98114195      14.03684309       7.48054615                           
I       11.54267376      15.74137575       7.48054615                           
I       16.20834278      11.91127086      10.58299027                           
I       15.96525582      15.74137476      10.58299027                           
I       12.52678456      14.03684230      10.58299027                           
Cr      30.94641910       1.98521371       9.03176873                           
Cr      27.50792809       3.97042742       9.03176919                           
I       31.93053149      -0.00001318       7.48054615                           
I       28.73510599       2.12556082       7.48054615                           
I       25.29663780       3.83009349       7.48054615                           
I       29.96230682      -0.00001140      10.58299027                           
I       29.71921987       3.83009250      10.58299027                           
I       26.28074860       2.12556004      10.58299027                           
Cr      27.50792809       7.94085485       9.03176873                           
Cr      24.06943708       9.92606855       9.03176919                           
I       28.49204048       5.95562795       7.48054615                           
I       25.29661498       8.08120195       7.48054615                           
I       21.85814679       9.78573462       7.48054615                           
I       26.52381581       5.95562973      10.58299027                           
I       26.28072885       9.78573363      10.58299027                           
I       22.84225759       8.08120117      10.58299027                           
Cr      24.06943708      13.89649598       9.03176873                           
Cr      20.63094607      15.88170968       9.03176919                           
I       25.05354947      11.91126909       7.48054615                           
I       21.85812397      14.03684309       7.48054615                           
I       18.41965578      15.74137575       7.48054615                           
I       23.08532480      11.91127086      10.58299027                           
I       22.84223784      15.74137476      10.58299027                           
I       19.40376658      14.03684230      10.58299027                           
Cr      37.82340112       1.98521371       9.03176873                           
Cr      34.38491011       3.97042742       9.03176919                           
I       38.80751351      -0.00001318       7.48054615                           
I       35.61208802       2.12556082       7.48054615                           
I       32.17361982       3.83009349       7.48054615                           
I       36.83928884      -0.00001140      10.58299027                           
I       36.59620189       3.83009250      10.58299027                           
I       33.15773062       2.12556004      10.58299027                           
Cr      34.38491011       7.94085485       9.03176873                           
Cr      30.94641910       9.92606855       9.03176919                           
I       35.36902250       5.95562795       7.48054615                           
I       32.17359701       8.08120195       7.48054615                           
I       28.73512881       9.78573462       7.48054615                           
I       33.40079783       5.95562973      10.58299027                           
I       33.15771088       9.78573363      10.58299027                           
I       29.71923961       8.08120117      10.58299027                           
Cr      30.94641910      13.89649598       9.03176873                           
Cr      27.50792809      15.88170968       9.03176919                           
I       31.93053149      11.91126909       7.48054615                           
I       28.73510599      14.03684309       7.48054615                           
I       25.29663780      15.74137575       7.48054615                           
I       29.96230682      11.91127086      10.58299027                           
I       29.71921987      15.74137476      10.58299027                           
I       26.28074860      14.03684230      10.58299027                           
Cr      13.75396404      19.85213711       9.03176873                           
Cr      10.31547303      21.83735082       9.03176919                           
I       14.73807643      17.86691022       7.48054615                           
I       11.54265093      19.99248422       7.48054615                           
I        8.10418274      21.69701689       7.48054615                           
I       12.76985176      17.86691200      10.58299027                           
I       12.52676480      21.69701590      10.58299027                           
I        9.08829354      19.99248344      10.58299027                           
Cr      10.31547303      25.80777825       9.03176873                           
Cr       6.87698202      27.79299195       9.03176919                           
I       11.29958542      23.82255135       7.48054615                           
I        8.10415992      25.94812535       7.48054615                           
I        4.66569173      27.65265802       7.48054615                           
I        9.33136075      23.82255313      10.58299027                           
I        9.08827379      27.65265703      10.58299027                           
I        5.64980253      25.94812457      10.58299027                           
Cr       6.87698202      31.76341938       9.03176873                           
Cr       3.43849101      33.74863308       9.03176919                           
I        7.86109441      29.77819249       7.48054615                           
I        4.66566891      31.90376649       7.48054615                           
I        1.22720072      33.60829915       7.48054615                           
I        5.89286974      29.77819426      10.58299027                           
I        5.64978278      33.60829816      10.58299027                           
I        2.21131152      31.90376570      10.58299027                           
Cr      20.63094606      19.85213711       9.03176873                           
Cr      17.19245505      21.83735082       9.03176919                           
I       21.61505845      17.86691022       7.48054615                           
I       18.41963295      19.99248422       7.48054615                           
I       14.98116476      21.69701689       7.48054615                           
I       19.64683378      17.86691200      10.58299027                           
I       19.40374683      21.69701590      10.58299027                           
I       15.96527556      19.99248344      10.58299027                           
Cr      17.19245505      25.80777825       9.03176873                           
Cr      13.75396404      27.79299195       9.03176919                           
I       18.17656744      23.82255135       7.48054615                           
I       14.98114194      25.94812535       7.48054615                           
I       11.54267375      27.65265802       7.48054615                           
I       16.20834277      23.82255313      10.58299027                           
I       15.96525581      27.65265703      10.58299027                           
I       12.52678455      25.94812457      10.58299027                           
Cr      13.75396404      31.76341938       9.03176873                           
Cr      10.31547303      33.74863308       9.03176919                           
I       14.73807643      29.77819249       7.48054615                           
I       11.54265093      31.90376649       7.48054615                           
I        8.10418274      33.60829915       7.48054615                           
I       12.76985176      29.77819426      10.58299027                           
I       12.52676480      33.60829816      10.58299027                           
I        9.08829354      31.90376570      10.58299027                           
Cr      27.50792808      19.85213711       9.03176873                           
Cr      24.06943707      21.83735082       9.03176919                           
I       28.49204047      17.86691022       7.48054615                           
I       25.29661498      19.99248422       7.48054615                           
I       21.85814678      21.69701689       7.48054615                           
I       26.52381580      17.86691200      10.58299027                           
I       26.28072885      21.69701590      10.58299027                           
I       22.84225758      19.99248344      10.58299027                           
Cr      24.06943707      25.80777825       9.03176873                           
Cr      20.63094606      27.79299195       9.03176919                           
I       25.05354946      23.82255135       7.48054615                           
I       21.85812397      25.94812535       7.48054615                           
I       18.41965577      27.65265802       7.48054615                           
I       23.08532479      23.82255313      10.58299027                           
I       22.84223784      27.65265703      10.58299027                           
I       19.40376657      25.94812457      10.58299027                           
Cr      20.63094606      31.76341938       9.03176873                           
Cr      17.19245505      33.74863308       9.03176919                           
I       21.61505845      29.77819249       7.48054615                           
I       18.41963295      31.90376649       7.48054615                           
I       14.98116476      33.60829915       7.48054615                           
I       19.64683378      29.77819426      10.58299027                           
I       19.40374683      33.60829816      10.58299027                           
I       15.96527556      31.90376570      10.58299027                           
%ENDBLOCK POSITIONS_ABS                                                         
%BLOCK SPECIES                                                                  
Cr Cr 24 -1 15                                                                  
I   I  53 -1 15                                                                 
CrU Cr 24 -1 15                                                                 
%ENDBLOCK SPECIES                                                               
%BLOCK SPECIES_ATOMIC_SET                                                       
Cr  "SOLVE INIT SPIN=3"                                                         
I   "SOLVE"                                                                     
CrU "SOLVE INIT SPIN=3"                                                         
%ENDBLOCK SPECIES_ATOMIC_SET                                                    
%BLOCK HUBBARD                                                                  
CrU 2 0.0 0.0 -10.0 0.0 0.0                                                     
%ENDBLOCK HUBBARD                                                               
%BLOCK SPECIES_LDOS_GROUPS                                                      
Cr                                                                              
I                                                                               
CrU                                                                             
%ENDBLOCK SPECIES_LDOS_GROUPS                                                   
%BLOCK SPECIES_POT                                                              
Cr  "/work/e89/e89/phsmea/U_det/Cr.PBE-paw.abinit"                              
I   "/work/e89/e89/phsmea/U_det/I.PBE-paw.abinit"                               
CrU "/work/e89/e89/phsmea/U_det/Cr.PBE-paw.abinit"                              
%ENDBLOCK SPECIES_POT                                                           

--------------------------------------------------------------------------------
-------------------------------- END INPUT FILE --------------------------------
--------------------------------------------------------------------------------


 
 ESDF WARNING(1): "charge" (esdf_physical) has no units. Assume "e".
<<<<<<<<<<<<<<<<<<<<<<<<<<<<<<<<< Full system >>>>>>>>>>>>>>>>>>>>>>>>>>>>>>>>>>
<<<<<<<<<<<<<<<<<<<<<<<<<<< PAW Dataset information >>>>>>>>>>>>>>>>>>>>>>>>>>>
File: /work/e89/e89/phsmea/U_det/Cr.PBE-paw.abinit; rc = 2.11 bohr; shape type =  2; rshape = 1.80 bohr;
  Atomic number: 24;  ionic charge: 14.000000
    Partial Wave 1: l = 0
    Partial Wave 2: l = 0
    Partial Wave 3: l = 1
    Partial Wave 4: l = 1
    Partial Wave 5: l = 2
    Partial Wave 6: l = 2
  Core charge supplied for Nonlinear Core Corrections
File: /work/e89/e89/phsmea/U_det/I.PBE-paw.abinit; rc = 2.30 bohr; shape type =  2; rshape = 2.11 bohr;
  Atomic number: 53;  ionic charge:  7.000000
    Partial Wave 1: l = 0
    Partial Wave 2: l = 0
    Partial Wave 3: l = 1
    Partial Wave 4: l = 1
  Core charge supplied for Nonlinear Core Corrections
<<<<<<<<<<<<<<<<<<<<<<<<<<<<<<<<<<<<<<< >>>>>>>>>>>>>>>>>>>>>>>>>>>>>>>>>>>>>>>

-------------------------- Atom counting information ---------------------------
Symbol    Natoms    Nngwfs    Nprojs
  Cr        72       936      1296
  I        216       864      1728
.......   ......    ......    ......
Totals:    288      1800      3024
--------------------------------------------------------------------------------

=============================== PSINC grid sizes ===============================
                      Simulation cell:  175 x 175 x  75
                              FFT-box:  175 x 175 x  75
                                  PPD:    5 x   5 x   1
================================================================================

Atom SCF Calculation for Cr : Z (AE atom) =  24 : Z (PS atom) =  14
Config String: 3s2.0 3p6.0 3d5.0 4s1.0 4p0.0 INIT SPIN=3
Orbitals (num,occ):  5     2.00 6.00 5.00 1.00 0.00
Orbitals   (num,l):  5        0    1    2    0    1
Atom SCF converged after  64 iterations to a total energy of    -87.07044631
Adjusting orbital occupancies:
Orbitals (num,spin,occ):  5  1     1.00 3.00 3.50 1.00 0.00
Orbitals   (num,spin,l):  5  1        0    1    2    0    1
Orbitals (num,spin,occ):  5  2     1.00 3.00 1.00 0.50 0.00
Orbitals   (num,spin,l):  5  2        0    1    2    0    1

Atom SCF Calculation for I  : Z (AE atom) =  53 : Z (PS atom) =   7
Config String: 5s2.0 5p5.0
Orbitals (num,occ):  2     2.00 5.00
Orbitals   (num,l):  2        0    1
Atom SCF converged after  28 iterations to a total energy of    -11.61352964

Atom SCF Calculation for Cr : Z (AE atom) =  24 : Z (PS atom) =  14
Config String: 3s2.0 3p6.0 3d5.0 4s1.0 4p0.0 INIT SPIN=3
Orbitals (num,occ):  5     2.00 6.00 5.00 1.00 0.00
Orbitals   (num,l):  5        0    1    2    0    1
Atom SCF converged after  64 iterations to a total energy of    -87.07044631
Adjusting orbital occupancies:
Orbitals (num,spin,occ):  5  1     1.00 3.00 3.50 1.00 0.00
Orbitals   (num,spin,l):  5  1        0    1    2    0    1
Orbitals (num,spin,occ):  5  2     1.00 3.00 1.00 0.50 0.00
Orbitals   (num,spin,l):  5  2        0    1    2    0    1

Atom SCF Calculation for Cr : Z (AE atom) =  24 : Z (PS atom) =  14
Config String: 3s2.0 3p6.0 3d5.0 4s1.0 4p0.0 INIT SPIN=3
Orbitals (num,occ):  5     2.00 6.00 5.00 1.00 0.00
Orbitals   (num,l):  5        0    1    2    0    1
Atom SCF converged after  64 iterations to a total energy of    -87.07044631

Atom SCF Calculation for I  : Z (AE atom) =  53 : Z (PS atom) =   7
Config String: 5s2.0 5p5.0
Orbitals (num,occ):  2     2.00 5.00
Orbitals   (num,l):  2        0    1
Atom SCF converged after  28 iterations to a total energy of    -11.61352964

Atom SCF Calculation for Cr : Z (AE atom) =  24 : Z (PS atom) =  14
Config String: 3s2.0 3p6.0 3d5.0 4s1.0 4p0.0 INIT SPIN=3
Orbitals (num,occ):  5     2.00 6.00 5.00 1.00 0.00
Orbitals   (num,l):  5        0    1    2    0    1
Atom SCF converged after  64 iterations to a total energy of    -87.07044631
Calculating Ewald energy ...             6126.916246 Hartree

============================= Charge Augmentation ==============================
                           Aug box size:   49 x  49 x  45
================================================================================

================================= Core Density =================================
               Core den box size:  125 x 125 x 117
================================================================================
Density kernel initialisation

################################################################################
###################### NGWF self-consistent optimisation #######################
################################################################################
|ITER|    RMS GRADIENT   |     TOTAL ENERGY    |   step   |     Epredicted      
   0     0.00009869526581  -8812.32273320452805   2.349196  -8816.23195876277350        
   1     0.00006752528135  -8816.45173641447400   1.629017  -8817.79058975818771        
   2     0.00004161011053  -8817.82650423860650   1.808560  -8818.37564323408697        
   3     0.00002884034147  -8818.39985225279634   1.957535  -8818.69029261663491        
   4     0.00002027095984  -8818.69155455898363   1.138059  -8818.77144451792628        
   5     0.00001353509613  -8818.77159611275056   1.990740  -8818.83367740073118        
   6     0.00001150256201  -8818.83258554138774   1.751925  -8818.87133536859437        
   7     0.00000898618114  -8818.86989527464539   1.585446  -8818.89093205666359        
   8     0.00000729190568  -8818.88993232512257   0.929207  -8818.89837293046367        
   9     0.00000478541335  -8818.89830008434365   2.195481  -8818.90689686793667        
  10     0.00000446308739  -8818.90656424954432   1.622890  -8818.91191761980554        
  11     0.00000319004906  -8818.91154850906423   2.347314  -8818.91544011891528        
  12     0.00000406919075  -8818.91434232480970   0.952728  -8818.91703735657211        
  13     0.00000215538640  -8818.91700765716632   2.460473  -8818.91893433229234        
  14     0.00000235085028  -8818.91866210004082   2.400349  -8818.92061564005962        
  15     0.00000230964345  -8818.91950181903121   1.825631  -8818.92039977389504        
  16     0.00000276355380  -8818.91937523168053   0.968105  -8818.92063832936947        
  17     0.00000195466516  -8818.92063025923562   1.979289  -8818.92192017233720        
  18     0.00000141866604  -8818.92184146479667   1.527309  -8818.92236059130664        
  19     0.00000087593634  -8818.92226223040416   2.707527  -8818.92258134180156        
  20     0.00000138401872  -8818.92235115499170   0.790081  -8818.92260969900781        
  21     0.00000050491605  -8818.92259536103484   2.525400  -8818.92269895655772        
  22     0.00000072723805  -8818.92263305743290   1.162622  -8818.92273810122788        
  23     0.00000050666978  -8818.92271623535999   2.571447  -8818.92280489510267        
  24     0.00000078822446  -8818.92273112680050   0.731871  -8818.92280880753970        
  25     0.00000030707424  -8818.92279850292834   2.117503  -8818.92282778228582        
  26     0.00000048407822  -8818.92280002829466   1.216271  -8818.92284871834818        

================================================================================
           ---------------- ENERGY COMPONENTS (Eh) ----------------
           | Kinetic                    :     1819.33616194852902 |
           | Core Hartree               :   -28372.41176176668160 |
           | CoreHart (non-coul chg cor):        0.00000000000000
           | Hartree                    :    13503.86853962963140 |
           | Exchange-correlation       :    -1248.30326044542721 |
           | Hubbard DFT+U correction   :        0.00000000000000 |
           | Ewald                      :     6126.91624599049464 |
           | Dij0                       :     -555.70694045068001 |
           | Dijhartree                 :      248.95041161311121 |
           | Exc [AE core]              :   -42415.12278078951200 |
           | Exc DC [AE core]           :    -1638.59714720013244 |
           | Exc [PS core]              :    -1032.31061042861688 |
           | Exc DC [PS core]           :     -982.38956910923275 |
           | Exc [Core]                 :   -41041.23993575423080 |
           | Total [Sphere]             :     -648.32876344422402 |
           | Total                      :    -8818.92283808767752 |
           --------------------------------------------------------
           Integrated compensation chrg.:      189.12835151670956
           Integrated density           :     2519.99993595501837
           Integrated spin density      :      215.99995948081406
           Integrated |spin density|    :      164.24736875422485
================================================================================

  27     0.00000043762089  -8818.92283808764478  <-- CG                                 

################################################################################
DFT+U information on atom      1 of Hubbard species CrU 
################################################################################
Occupancy matrix of Hubbard site      1 and spin      1 is 
  m_l =   -2          -1           0           1           2
  0.88957279  0.15017521  0.00000138  0.00000078  0.00000299
  0.15021251  0.77189703 -0.00000217  0.00000317 -0.00000253
 -0.00000003 -0.00000009  0.99110300  0.00000021  0.00000012
  0.00000199  0.00000311 -0.00000094  0.77189409 -0.15021004
  0.00000293 -0.00000127 -0.00000066 -0.15017414  0.88957570
################################################################################
Occupancy matrix of Hubbard site      1 and spin      2 is 
  m_l =   -2          -1           0           1           2
  0.25983895 -0.13293465 -0.00000237  0.00000217  0.00000211
 -0.13296622  0.36500485  0.00000191  0.00000176 -0.00000085
 -0.00000098  0.00000007  0.15886730 -0.00000001  0.00000060
  0.00000112  0.00000181  0.00000100  0.36500269  0.13296759
  0.00000217 -0.00000194  0.00000138  0.13293724  0.25984211
################################################################################
Total occupancy of Hubbard site      1 is         5.72259852 e
Local magnetic moment of Hubbard site      1 is   2.90548671 mu_B
DFT+U energy of Hubbard site      1 is            0.00000000 Ha
################################################################################

##### For calculating the Hubbard U and Hund J #################################
DFT+U information on Hubbard site      1 of species CrU  and spin      1
The average Hxc+local potential is            -19.01982432 eV.
The average Hubbard potential is                0.00000000 eV.
The average non-local PAW contribution is     -10.95391651 eV.
################################################################################
DFT+U information on Hubbard site      1 of species CrU  and spin      2
The average Hxc+local potential is            -17.94803212 eV.
The average Hubbard potential is                0.00000000 eV.
The average non-local PAW contribution is      -9.50433645 eV.
################################################################################

======================== Writing density and potential =========================
Writing "U_0_0_ps_density.cube" ... done
Writing "U_0_0_ps_spindensity.cube" ... done
Writing "U_0_0_ae_density.cube" ... done
Writing "U_0_0_ae_spindensity.cube" ... done
Writing "U_0_0_potential.cube" ... done
Writing "U_0_0_electrostatic_potential.cube" ... done
================================================================================

    Mulliken Atomic Populations
    ---------------------------
Species  Ion    Total   Charge (e)    Spin (hbar)
=================================================
  Cr     1      13.838      0.162      1.68
  Cr     2      13.837      0.163      1.68
  I      3       7.054     -0.054     -0.06
  I      4       7.054     -0.054     -0.06
  I      5       7.054     -0.054     -0.06
  I      6       7.054     -0.054     -0.06
  I      7       7.054     -0.054     -0.06
  I      8       7.054     -0.054     -0.06
  Cr     9      13.839      0.161      1.68
  Cr    10      13.838      0.162      1.68
  I     11       7.054     -0.054     -0.06
  I     12       7.054     -0.054     -0.06
  I     13       7.054     -0.054     -0.06
  I     14       7.054     -0.054     -0.06
  I     15       7.054     -0.054     -0.06
  I     16       7.054     -0.054     -0.06
  Cr    17      13.839      0.161      1.68
  Cr    18      13.838      0.162      1.68
  I     19       7.054     -0.054     -0.06
  I     20       7.054     -0.054     -0.06
  I     21       7.054     -0.054     -0.06
  I     22       7.054     -0.054     -0.06
  I     23       7.054     -0.054     -0.06
  I     24       7.054     -0.054     -0.06
  Cr    25      13.839      0.161      1.68
  Cr    26      13.838      0.162      1.68
  I     27       7.054     -0.054     -0.06
  I     28       7.054     -0.054     -0.06
  I     29       7.054     -0.054     -0.06
  I     30       7.054     -0.054     -0.06
  I     31       7.054     -0.054     -0.06
  I     32       7.054     -0.054     -0.06
  Cr    33      13.839      0.161      1.68
  Cr    34      13.838      0.162      1.68
  I     35       7.054     -0.054     -0.06
  I     36       7.054     -0.054     -0.06
  I     37       7.054     -0.054     -0.06
  I     38       7.054     -0.054     -0.06
  I     39       7.054     -0.054     -0.06
  I     40       7.054     -0.054     -0.06
  Cr    41      13.839      0.161      1.68
  Cr    42      13.838      0.162      1.68
  I     43       7.054     -0.054     -0.06
  I     44       7.054     -0.054     -0.06
  I     45       7.054     -0.054     -0.06
  I     46       7.054     -0.054     -0.06
  I     47       7.054     -0.054     -0.06
  I     48       7.054     -0.054     -0.06
  Cr    49      13.838      0.162      1.68
  Cr    50      13.838      0.162      1.68
  I     51       7.054     -0.054     -0.06
  I     52       7.054     -0.054     -0.06
  I     53       7.054     -0.054     -0.06
  I     54       7.054     -0.054     -0.06
  I     55       7.054     -0.054     -0.06
  I     56       7.054     -0.054     -0.06
  Cr    57      13.838      0.162      1.68
  Cr    58      13.838      0.162      1.68
  I     59       7.054     -0.054     -0.06
  I     60       7.054     -0.054     -0.06
  I     61       7.054     -0.054     -0.06
  I     62       7.054     -0.054     -0.06
  I     63       7.054     -0.054     -0.06
  I     64       7.054     -0.054     -0.06
  Cr    65      13.839      0.161      1.68
  Cr    66      13.838      0.162      1.68
  I     67       7.054     -0.054     -0.06
  I     68       7.054     -0.054     -0.06
  I     69       7.054     -0.054     -0.06
  I     70       7.054     -0.054     -0.06
  I     71       7.054     -0.054     -0.06
  I     72       7.054     -0.054     -0.06
  Cr    73      13.838      0.162      1.68
  Cr    74      13.838      0.162      1.68
  I     75       7.054     -0.054     -0.06
  I     76       7.054     -0.054     -0.06
  I     77       7.054     -0.054     -0.06
  I     78       7.054     -0.054     -0.06
  I     79       7.054     -0.054     -0.06
  I     80       7.054     -0.054     -0.06
  Cr    81      13.839      0.161      1.68
  Cr    82      13.838      0.162      1.68
  I     83       7.054     -0.054     -0.06
  I     84       7.054     -0.054     -0.06
  I     85       7.054     -0.054     -0.06
  I     86       7.054     -0.054     -0.06
  I     87       7.054     -0.054     -0.06
  I     88       7.054     -0.054     -0.06
  Cr    89      13.839      0.161      1.68
  Cr    90      13.837      0.163      1.68
  I     91       7.054     -0.054     -0.06
  I     92       7.054     -0.054     -0.06
  I     93       7.054     -0.054     -0.06
  I     94       7.054     -0.054     -0.06
  I     95       7.054     -0.054     -0.06
  I     96       7.054     -0.054     -0.06
  Cr    97      13.838      0.162      1.68
  Cr    98      13.838      0.162      1.68
  I     99       7.054     -0.054     -0.06
  I    100       7.054     -0.054     -0.06
  I    101       7.054     -0.054     -0.06
  I    102       7.054     -0.054     -0.06
  I    103       7.054     -0.054     -0.06
  I    104       7.054     -0.054     -0.06
  Cr   105      13.838      0.162      1.68
  Cr   106      13.838      0.162      1.68
  I    107       7.054     -0.054     -0.06
  I    108       7.054     -0.054     -0.06
  I    109       7.054     -0.054     -0.06
  I    110       7.054     -0.054     -0.06
  I    111       7.054     -0.054     -0.06
  I    112       7.054     -0.054     -0.06
  Cr   113      13.839      0.161      1.68
  Cr   114      13.838      0.162      1.68
  I    115       7.054     -0.054     -0.06
  I    116       7.054     -0.054     -0.06
  I    117       7.054     -0.054     -0.06
  I    118       7.054     -0.054     -0.06
  I    119       7.054     -0.054     -0.06
  I    120       7.054     -0.054     -0.06
  Cr   121      13.838      0.162      1.68
  Cr   122      13.838      0.162      1.68
  I    123       7.054     -0.054     -0.06
  I    124       7.054     -0.054     -0.06
  I    125       7.054     -0.054     -0.06
  I    126       7.054     -0.054     -0.06
  I    127       7.054     -0.054     -0.06
  I    128       7.054     -0.054     -0.06
  Cr   129      13.838      0.162      1.68
  Cr   130      13.838      0.162      1.68
  I    131       7.054     -0.054     -0.06
  I    132       7.054     -0.054     -0.06
  I    133       7.054     -0.054     -0.06
  I    134       7.054     -0.054     -0.06
  I    135       7.054     -0.054     -0.06
  I    136       7.054     -0.054     -0.06
  Cr   137      13.838      0.162      1.68
  Cr   138      13.838      0.162      1.68
  I    139       7.054     -0.054     -0.06
  I    140       7.054     -0.054     -0.06
  I    141       7.054     -0.054     -0.06
  I    142       7.054     -0.054     -0.06
  I    143       7.054     -0.054     -0.06
  I    144       7.054     -0.054     -0.06
  Cr   145      13.838      0.162      1.68
  Cr   146      13.837      0.163      1.68
  I    147       7.054     -0.054     -0.06
  I    148       7.054     -0.054     -0.06
  I    149       7.054     -0.054     -0.06
  I    150       7.054     -0.054     -0.06
  I    151       7.054     -0.054     -0.06
  I    152       7.054     -0.054     -0.06
  Cr   153      13.839      0.161      1.68
  Cr   154      13.838      0.162      1.68
  I    155       7.054     -0.054     -0.06
  I    156       7.054     -0.054     -0.06
  I    157       7.054     -0.054     -0.06
  I    158       7.054     -0.054     -0.06
  I    159       7.054     -0.054     -0.06
  I    160       7.054     -0.054     -0.06
  Cr   161      13.839      0.161      1.68
  Cr   162      13.837      0.163      1.68
  I    163       7.054     -0.054     -0.06
  I    164       7.054     -0.054     -0.06
  I    165       7.054     -0.054     -0.06
  I    166       7.054     -0.054     -0.06
  I    167       7.054     -0.054     -0.06
  I    168       7.054     -0.054     -0.06
  Cr   169      13.839      0.161      1.68
  Cr   170      13.838      0.162      1.68
  I    171       7.054     -0.054     -0.06
  I    172       7.054     -0.054     -0.06
  I    173       7.054     -0.054     -0.06
  I    174       7.054     -0.054     -0.06
  I    175       7.054     -0.054     -0.06
  I    176       7.054     -0.054     -0.06
  Cr   177      13.838      0.162      1.68
  Cr   178      13.838      0.162      1.68
  I    179       7.054     -0.054     -0.06
  I    180       7.054     -0.054     -0.06
  I    181       7.054     -0.054     -0.06
  I    182       7.054     -0.054     -0.06
  I    183       7.054     -0.054     -0.06
  I    184       7.054     -0.054     -0.06
  Cr   185      13.839      0.161      1.68
  Cr   186      13.838      0.162      1.68
  I    187       7.054     -0.054     -0.06
  I    188       7.054     -0.054     -0.06
  I    189       7.054     -0.054     -0.06
  I    190       7.054     -0.054     -0.06
  I    191       7.054     -0.054     -0.06
  I    192       7.054     -0.054     -0.06
  Cr   193      13.838      0.162      1.68
  Cr   194      13.838      0.162      1.68
  I    195       7.054     -0.054     -0.06
  I    196       7.054     -0.054     -0.06
  I    197       7.054     -0.054     -0.06
  I    198       7.054     -0.054     -0.06
  I    199       7.054     -0.054     -0.06
  I    200       7.054     -0.054     -0.06
  Cr   201      13.839      0.161      1.68
  Cr   202      13.838      0.162      1.68
  I    203       7.054     -0.054     -0.06
  I    204       7.054     -0.054     -0.06
  I    205       7.054     -0.054     -0.06
  I    206       7.054     -0.054     -0.06
  I    207       7.054     -0.054     -0.06
  I    208       7.054     -0.054     -0.06
  Cr   209      13.838      0.162      1.68
  Cr   210      13.837      0.163      1.68
  I    211       7.054     -0.054     -0.06
  I    212       7.054     -0.054     -0.06
  I    213       7.054     -0.054     -0.06
  I    214       7.054     -0.054     -0.06
  I    215       7.054     -0.054     -0.06
  I    216       7.054     -0.054     -0.06
  Cr   217      13.839      0.161      1.68
  Cr   218      13.838      0.162      1.68
  I    219       7.054     -0.054     -0.06
  I    220       7.054     -0.054     -0.06
  I    221       7.054     -0.054     -0.06
  I    222       7.054     -0.054     -0.06
  I    223       7.054     -0.054     -0.06
  I    224       7.054     -0.054     -0.06
  Cr   225      13.839      0.161      1.68
  Cr   226      13.838      0.162      1.68
  I    227       7.054     -0.054     -0.06
  I    228       7.054     -0.054     -0.06
  I    229       7.054     -0.054     -0.06
  I    230       7.054     -0.054     -0.06
  I    231       7.054     -0.054     -0.06
  I    232       7.054     -0.054     -0.06
  Cr   233      13.839      0.161      1.68
  Cr   234      13.838      0.162      1.68
  I    235       7.054     -0.054     -0.06
  I    236       7.054     -0.054     -0.06
  I    237       7.054     -0.054     -0.06
  I    238       7.054     -0.054     -0.06
  I    239       7.054     -0.054     -0.06
  I    240       7.054     -0.054     -0.06
  Cr   241      13.838      0.162      1.68
  Cr   242      13.838      0.162      1.68
  I    243       7.054     -0.054     -0.06
  I    244       7.054     -0.054     -0.06
  I    245       7.054     -0.054     -0.06
  I    246       7.054     -0.054     -0.06
  I    247       7.054     -0.054     -0.06
  I    248       7.054     -0.054     -0.06
  Cr   249      13.839      0.161      1.68
  Cr   250      13.838      0.162      1.68
  I    251       7.054     -0.054     -0.06
  I    252       7.054     -0.054     -0.06
  I    253       7.054     -0.054     -0.06
  I    254       7.054     -0.054     -0.06
  I    255       7.054     -0.054     -0.06
  I    256       7.054     -0.054     -0.06
  Cr   257      13.839      0.161      1.68
  Cr   258      13.838      0.162      1.68
  I    259       7.054     -0.054     -0.06
  I    260       7.054     -0.054     -0.06
  I    261       7.054     -0.054     -0.06
  I    262       7.054     -0.054     -0.06
  I    263       7.054     -0.054     -0.06
  I    264       7.054     -0.054     -0.06
  Cr   265      13.838      0.162      1.68
  Cr   266      13.838      0.162      1.68
  I    267       7.054     -0.054     -0.06
  I    268       7.054     -0.054     -0.06
  I    269       7.054     -0.054     -0.06
  I    270       7.054     -0.054     -0.06
  I    271       7.054     -0.054     -0.06
  I    272       7.054     -0.054     -0.06
  Cr   273      13.839      0.161      1.68
  Cr   274      13.838      0.162      1.68
  I    275       7.054     -0.054     -0.06
  I    276       7.054     -0.054     -0.06
  I    277       7.054     -0.054     -0.06
  I    278       7.054     -0.054     -0.06
  I    279       7.054     -0.054     -0.06
  I    280       7.054     -0.054     -0.06
  Cr   281      13.838      0.162      1.68
  Cr   282      13.837      0.163      1.68
  I    283       7.054     -0.054     -0.06
  I    284       7.054     -0.054     -0.06
  I    285       7.054     -0.054     -0.06
  I    286       7.054     -0.054     -0.06
  I    287       7.054     -0.054     -0.06
  I    288       7.054     -0.054     -0.06
=================================================

        Bond         Population      Spin       Length (bohr)
=============================================================
 Cr  186 -- I   191        0.31     -0.03      4.86412
 Cr  178 -- I   183        0.31     -0.03      4.86412
 Cr  154 -- I   159        0.31     -0.03      4.86412
 Cr  162 -- I   167        0.31     -0.03      4.86412
 Cr  146 -- I   151        0.31     -0.03      4.86412
 Cr   82 -- I    87        0.31     -0.03      4.86412
 Cr  250 -- I   255        0.31     -0.03      4.86412
 Cr  226 -- I   231        0.31     -0.03      4.86412
 Cr   74 -- I    79        0.31     -0.03      4.86412
 Cr   10 -- I    15        0.31     -0.03      4.86412
 Cr  106 -- I   111        0.31     -0.03      4.86412
 Cr   34 -- I    39        0.31     -0.03      4.86412
 Cr   42 -- I    47        0.31     -0.03      4.86412
 Cr   18 -- I    23        0.31     -0.03      4.86412
 Cr  114 -- I   119        0.31     -0.03      4.86412
 Cr    2 -- I     7        0.31     -0.03      4.86412
 Cr   90 -- I    95        0.31     -0.03      4.86412
 Cr  218 -- I   223        0.31     -0.03      4.86412
 Cr  258 -- I   263        0.31     -0.03      4.86412
 Cr  234 -- I   239        0.31     -0.03      4.86412
 Cr  274 -- I   279        0.31     -0.03      4.86412
 Cr  130 -- I   135        0.31     -0.03      4.86412
 Cr   98 -- I   103        0.31     -0.03      4.86412
 Cr   66 -- I    71        0.31     -0.03      4.86412
 Cr  242 -- I   247        0.31     -0.03      4.86412
 Cr   50 -- I    55        0.31     -0.03      4.86412
 Cr   26 -- I    31        0.31     -0.03      4.86412
 Cr   58 -- I    63        0.31     -0.03      4.86412
 Cr  210 -- I   215        0.31     -0.03      4.86412
 Cr  170 -- I   175        0.31     -0.03      4.86412
 Cr  122 -- I   127        0.31     -0.03      4.86412
 Cr  266 -- I   271        0.31     -0.03      4.86412
 Cr  282 -- I   287        0.31     -0.03      4.86412
 Cr  138 -- I   143        0.31     -0.03      4.86412
 Cr  202 -- I   207        0.31     -0.03      4.86412
 Cr  194 -- I   199        0.31     -0.03      4.86412
 Cr  210 -- I   212        0.31     -0.03      4.86413
 Cr  138 -- I   140        0.31     -0.03      4.86413
 Cr   90 -- I    92        0.31     -0.03      4.86413
 Cr  258 -- I   260        0.31     -0.03      4.86413
 Cr  234 -- I   236        0.31     -0.03      4.86413
 Cr   42 -- I    44        0.31     -0.03      4.86413
 Cr   66 -- I    68        0.31     -0.03      4.86413
 Cr  114 -- I   116        0.31     -0.03      4.86413
 Cr   18 -- I    20        0.31     -0.03      4.86413
 Cr  162 -- I   164        0.31     -0.03      4.86413
 Cr  282 -- I   284        0.31     -0.03      4.86413
 Cr  186 -- I   188        0.31     -0.03      4.86413
 Cr  194 -- I   196        0.31     -0.03      4.86413
 Cr  202 -- I   204        0.31     -0.03      4.86413
 Cr   50 -- I    52        0.31     -0.03      4.86413
 Cr   58 -- I    60        0.31     -0.03      4.86413
 Cr  122 -- I   124        0.31     -0.03      4.86413
 Cr  266 -- I   268        0.31     -0.03      4.86413
 Cr  274 -- I   276        0.31     -0.03      4.86413
 Cr  130 -- I   132        0.31     -0.03      4.86413
 Cr  154 -- I   156        0.31     -0.03      4.86413
 Cr  170 -- I   172        0.31     -0.03      4.86413
 Cr   34 -- I    36        0.31     -0.03      4.86413
 Cr   10 -- I    12        0.31     -0.03      4.86413
 Cr  146 -- I   148        0.31     -0.03      4.86413
 Cr    2 -- I     4        0.31     -0.03      4.86413
 Cr   26 -- I    28        0.31     -0.03      4.86413
 Cr  242 -- I   244        0.31     -0.03      4.86413
 Cr  218 -- I   220        0.31     -0.03      4.86413
 Cr  178 -- I   180        0.31     -0.03      4.86413
 Cr   74 -- I    76        0.31     -0.03      4.86413
 Cr   98 -- I   100        0.31     -0.03      4.86413
 Cr  250 -- I   252        0.31     -0.03      4.86413
 Cr  226 -- I   228        0.31     -0.03      4.86413
 Cr  106 -- I   108        0.31     -0.03      4.86413
 Cr   82 -- I    84        0.31     -0.03      4.86413
 Cr  153 -- I   159        0.31     -0.03      4.86414
 Cr  177 -- I   183        0.31     -0.03      4.86414
 Cr   41 -- I    47        0.31     -0.03      4.86414
 Cr  161 -- I   167        0.31     -0.03      4.86414
 Cr    9 -- I    15        0.31     -0.03      4.86414
 Cr  185 -- I   191        0.31     -0.03      4.86414
 Cr   33 -- I    39        0.31     -0.03      4.86414
 Cr   17 -- I    23        0.31     -0.03      4.86414
 Cr  113 -- I   119        0.31     -0.03      4.86414
 Cr   89 -- I    95        0.31     -0.03      4.86414
 Cr  233 -- I   239        0.31     -0.03      4.86414
 Cr  257 -- I   263        0.31     -0.03      4.86414
 Cr  249 -- I   255        0.31     -0.03      4.86414
 Cr  225 -- I   231        0.31     -0.03      4.86414
 Cr   81 -- I    87        0.31     -0.03      4.86414
 Cr  105 -- I   111        0.31     -0.03      4.86414
 Cr  209 -- I   215        0.31     -0.03      4.86414
 Cr   65 -- I    71        0.31     -0.03      4.86414
 Cr   57 -- I    63        0.31     -0.03      4.86414
 Cr  137 -- I   143        0.31     -0.03      4.86414
 Cr  201 -- I   207        0.31     -0.03      4.86414
 Cr  281 -- I   287        0.31     -0.03      4.86414
 Cr  129 -- I   135        0.31     -0.03      4.86414
 Cr  273 -- I   279        0.31     -0.03      4.86414
 Cr   73 -- I    79        0.31     -0.03      4.86414
 Cr  217 -- I   223        0.31     -0.03      4.86414
 Cr  145 -- I   151        0.31     -0.03      4.86414
 Cr    1 -- I     7        0.31     -0.03      4.86414
 Cr  121 -- I   127        0.31     -0.03      4.86414
 Cr  241 -- I   247        0.31     -0.03      4.86414
 Cr   97 -- I   103        0.31     -0.03      4.86414
 Cr  265 -- I   271        0.31     -0.03      4.86414
 Cr   49 -- I    55        0.31     -0.03      4.86414
 Cr   25 -- I    31        0.31     -0.03      4.86414
 Cr  169 -- I   175        0.31     -0.03      4.86414
 Cr  193 -- I   199        0.31     -0.03      4.86414
 Cr  193 -- I   196        0.31     -0.03      4.86414
 Cr   49 -- I    52        0.31     -0.03      4.86414
 Cr  265 -- I   268        0.31     -0.03      4.86414
 Cr  121 -- I   124        0.31     -0.03      4.86414
 Cr  257 -- I   260        0.31     -0.03      4.86414
 Cr  169 -- I   172        0.31     -0.03      4.86414
 Cr  145 -- I   148        0.31     -0.03      4.86414
 Cr   65 -- I    68        0.31     -0.03      4.86414
 Cr  137 -- I   140        0.31     -0.03      4.86414
 Cr  185 -- I   188        0.31     -0.03      4.86414
 Cr  281 -- I   284        0.31     -0.03      4.86414
 Cr  209 -- I   212        0.31     -0.03      4.86414
 Cr  161 -- I   164        0.31     -0.03      4.86414
 Cr    1 -- I     4        0.31     -0.03      4.86414
 Cr   41 -- I    44        0.31     -0.03      4.86414
 Cr  113 -- I   116        0.31     -0.03      4.86414
 Cr  241 -- I   244        0.31     -0.03      4.86414
 Cr   25 -- I    28        0.31     -0.03      4.86414
 Cr   17 -- I    20        0.31     -0.03      4.86414
 Cr   89 -- I    92        0.31     -0.03      4.86414
 Cr  217 -- I   220        0.31     -0.03      4.86414
 Cr  233 -- I   236        0.31     -0.03      4.86414
 Cr   97 -- I   100        0.31     -0.03      4.86414
 Cr   73 -- I    76        0.31     -0.03      4.86414
 Cr  273 -- I   276        0.31     -0.03      4.86414
 Cr  201 -- I   204        0.31     -0.03      4.86414
 Cr  129 -- I   132        0.31     -0.03      4.86414
 Cr   57 -- I    60        0.31     -0.03      4.86414
 Cr   81 -- I    84        0.31     -0.03      4.86414
 Cr  105 -- I   108        0.31     -0.03      4.86414
 Cr  249 -- I   252        0.31     -0.03      4.86414
 Cr  225 -- I   228        0.31     -0.03      4.86414
 Cr  153 -- I   156        0.31     -0.03      4.86414
 Cr   33 -- I    36        0.31     -0.03      4.86414
 Cr  177 -- I   180        0.31     -0.03      4.86414
 Cr    9 -- I    12        0.31     -0.03      4.86414
 I    27 -- Cr  114        0.31     -0.03      5.11128
 I     3 -- Cr   90        0.31     -0.03      5.11128
 I    51 -- Cr  138        0.31     -0.03      5.11128
 Cr  266 -- I   275        0.31     -0.03      5.11128
 Cr  122 -- I   131        0.31     -0.03      5.11128
 Cr   74 -- I    83        0.31     -0.03      5.11128
 Cr   98 -- I   107        0.31     -0.03      5.11128
 Cr  242 -- I   251        0.31     -0.03      5.11128
 Cr  218 -- I   227        0.31     -0.03      5.11128
 Cr  146 -- I   155        0.31     -0.03      5.11128
 Cr  170 -- I   179        0.31     -0.03      5.11128
 Cr   50 -- I    59        0.31     -0.03      5.11128
 Cr    2 -- I    11        0.31     -0.03      5.11128
 Cr   26 -- I    35        0.31     -0.03      5.11128
 Cr  194 -- I   203        0.31     -0.03      5.11128
 I   171 -- Cr  258        0.31     -0.03      5.11128
 I   195 -- Cr  282        0.31     -0.03      5.11128
 I   147 -- Cr  234        0.31     -0.03      5.11128
 Cr  194 -- I   197        0.31     -0.03      5.11128
 Cr  210 -- I   213        0.31     -0.03      5.11128
 Cr  250 -- I   253        0.31     -0.03      5.11128
 Cr  242 -- I   245        0.31     -0.03      5.11128
 Cr   50 -- I    53        0.31     -0.03      5.11128
 Cr  234 -- I   237        0.31     -0.03      5.11128
 Cr  226 -- I   229        0.31     -0.03      5.11128
 Cr  218 -- I   221        0.31     -0.03      5.11128
 Cr   26 -- I    29        0.31     -0.03      5.11128
 Cr  154 -- I   157        0.31     -0.03      5.11128
 Cr  146 -- I   149        0.31     -0.03      5.11128
 Cr  106 -- I   109        0.31     -0.03      5.11128
 Cr  282 -- I   285        0.31     -0.03      5.11128
 Cr    2 -- I     5        0.31     -0.03      5.11128
 Cr  122 -- I   125        0.31     -0.03      5.11128
 Cr  130 -- I   133        0.31     -0.03      5.11128
 Cr   10 -- I    13        0.31     -0.03      5.11128
 Cr   58 -- I    61        0.31     -0.03      5.11128
 Cr   42 -- I    45        0.31     -0.03      5.11128
 Cr   82 -- I    85        0.31     -0.03      5.11128
 Cr   34 -- I    37        0.31     -0.03      5.11128
 Cr   18 -- I    21        0.31     -0.03      5.11128
 Cr  138 -- I   141        0.31     -0.03      5.11128
 Cr   98 -- I   101        0.31     -0.03      5.11128
 Cr   90 -- I    93        0.31     -0.03      5.11128
 Cr  114 -- I   117        0.31     -0.03      5.11128
 Cr   66 -- I    69        0.31     -0.03      5.11128
 Cr  202 -- I   205        0.31     -0.03      5.11128
 Cr  170 -- I   173        0.31     -0.03      5.11128
 Cr   74 -- I    77        0.31     -0.03      5.11128
 Cr  274 -- I   277        0.31     -0.03      5.11128
 Cr  162 -- I   165        0.31     -0.03      5.11128
 Cr  266 -- I   269        0.31     -0.03      5.11128
 Cr  178 -- I   181        0.31     -0.03      5.11128
 Cr  258 -- I   261        0.31     -0.03      5.11128
 Cr  186 -- I   189        0.31     -0.03      5.11128
 Cr  186 -- I   243        0.31     -0.03      5.11128
 Cr  210 -- I   267        0.31     -0.03      5.11128
 Cr  162 -- I   219        0.31     -0.03      5.11128
 Cr  274 -- I   283        0.31     -0.03      5.11128
 Cr  130 -- I   139        0.31     -0.03      5.11128
 Cr   82 -- I    91        0.31     -0.03      5.11128
 Cr  106 -- I   115        0.31     -0.03      5.11128
 Cr   34 -- I    43        0.31     -0.03      5.11128
 Cr   58 -- I    67        0.31     -0.03      5.11128
 Cr  226 -- I   235        0.31     -0.03      5.11128
 Cr  202 -- I   211        0.31     -0.03      5.11128
 Cr  178 -- I   187        0.31     -0.03      5.11128
 Cr   10 -- I    19        0.31     -0.03      5.11128
 Cr  154 -- I   163        0.31     -0.03      5.11128
 Cr  250 -- I   259        0.31     -0.03      5.11128
 Cr   18 -- I    75        0.31     -0.03      5.11128
 Cr   66 -- I   123        0.31     -0.03      5.11128
 Cr   42 -- I    99        0.31     -0.03      5.11128
 Cr  234 -- I   240        0.31     -0.03      5.11128
 Cr  138 -- I   144        0.31     -0.03      5.11128
 Cr  282 -- I   288        0.31     -0.03      5.11128
 Cr  258 -- I   264        0.31     -0.03      5.11128
 Cr  114 -- I   120        0.31     -0.03      5.11128
 Cr   90 -- I    96        0.31     -0.03      5.11128
 Cr  242 -- I   248        0.31     -0.03      5.11128
 Cr  122 -- I   128        0.31     -0.03      5.11128
 Cr  218 -- I   224        0.31     -0.03      5.11128
 Cr  194 -- I   200        0.31     -0.03      5.11128
 Cr   98 -- I   104        0.31     -0.03      5.11128
 Cr   74 -- I    80        0.31     -0.03      5.11128
 Cr  210 -- I   216        0.31     -0.03      5.11128
 Cr   42 -- I    48        0.31     -0.03      5.11128
 Cr   66 -- I    72        0.31     -0.03      5.11128
 Cr   50 -- I    56        0.31     -0.03      5.11128
 Cr   18 -- I    24        0.31     -0.03      5.11128
 Cr   26 -- I    32        0.31     -0.03      5.11128
 Cr   10 -- I    16        0.31     -0.03      5.11128
 Cr  250 -- I   256        0.31     -0.03      5.11128
 Cr    2 -- I     8        0.31     -0.03      5.11128
 Cr   34 -- I    40        0.31     -0.03      5.11128
 Cr  146 -- I   152        0.31     -0.03      5.11128
 Cr  266 -- I   272        0.31     -0.03      5.11128
 Cr  154 -- I   160        0.31     -0.03      5.11128
 Cr   58 -- I    64        0.31     -0.03      5.11128
 Cr  202 -- I   208        0.31     -0.03      5.11128
 Cr  162 -- I   168        0.31     -0.03      5.11128
 Cr  170 -- I   176        0.31     -0.03      5.11128
 Cr  178 -- I   184        0.31     -0.03      5.11128
 Cr  130 -- I   136        0.31     -0.03      5.11128
 Cr  226 -- I   232        0.31     -0.03      5.11128
 Cr  106 -- I   112        0.31     -0.03      5.11128
 Cr   82 -- I    88        0.31     -0.03      5.11128
 Cr  186 -- I   192        0.31     -0.03      5.11128
 Cr  274 -- I   280        0.31     -0.03      5.11128
 Cr  130 -- I   142        0.31     -0.03      5.11128
 Cr  274 -- I   286        0.31     -0.03      5.11128
 Cr  250 -- I   262        0.31     -0.03      5.11128
 Cr  226 -- I   238        0.31     -0.03      5.11128
 Cr  106 -- I   118        0.31     -0.03      5.11128
 Cr   82 -- I    94        0.31     -0.03      5.11128
 Cr  266 -- I   278        0.31     -0.03      5.11128
 Cr  242 -- I   254        0.31     -0.03      5.11128
 Cr  218 -- I   230        0.31     -0.03      5.11128
 Cr  194 -- I   206        0.31     -0.03      5.11128
 Cr  122 -- I   134        0.31     -0.03      5.11128
 Cr   34 -- I    46        0.31     -0.03      5.11128
 Cr  154 -- I   166        0.31     -0.03      5.11128
 Cr   26 -- I    38        0.31     -0.03      5.11128
 Cr   10 -- I    22        0.31     -0.03      5.11128
 Cr   58 -- I    70        0.31     -0.03      5.11128
 Cr   50 -- I    62        0.31     -0.03      5.11128
 Cr    2 -- I    14        0.31     -0.03      5.11128
 Cr  170 -- I   182        0.31     -0.03      5.11128
 Cr   74 -- I    86        0.31     -0.03      5.11128
 Cr   98 -- I   110        0.31     -0.03      5.11128
 Cr  146 -- I   158        0.31     -0.03      5.11128
 Cr  202 -- I   214        0.31     -0.03      5.11128
 Cr  178 -- I   190        0.31     -0.03      5.11128
 I   198 -- Cr  282        0.31     -0.03      5.11128
 I   150 -- Cr  234        0.31     -0.03      5.11128
 I   174 -- Cr  258        0.31     -0.03      5.11128
 I    54 -- Cr  138        0.31     -0.03      5.11128
 I     6 -- Cr   90        0.31     -0.03      5.11128
 I    30 -- Cr  114        0.31     -0.03      5.11128
 Cr   18 -- I    78        0.31     -0.03      5.11128
 Cr   42 -- I   102        0.31     -0.03      5.11128
 Cr   66 -- I   126        0.31     -0.03      5.11128
 Cr  210 -- I   270        0.31     -0.03      5.11128
 Cr  162 -- I   222        0.31     -0.03      5.11128
 Cr  186 -- I   246        0.31     -0.03      5.11128
 Cr  265 -- I   270        0.31     -0.03      5.11131
 Cr  241 -- I   246        0.31     -0.03      5.11131
 Cr  217 -- I   222        0.31     -0.03      5.11131
 Cr   97 -- I   102        0.31     -0.03      5.11131
 Cr   73 -- I    78        0.31     -0.03      5.11131
 Cr  121 -- I   126        0.31     -0.03      5.11131
 Cr  249 -- I   280        0.31     -0.03      5.11131
 Cr  185 -- I   216        0.31     -0.03      5.11131
 Cr  161 -- I   192        0.31     -0.03      5.11131
 Cr  153 -- I   184        0.31     -0.03      5.11131
 Cr  177 -- I   208        0.31     -0.03      5.11131
 Cr   89 -- I   120        0.31     -0.03      5.11131
 Cr   33 -- I    64        0.31     -0.03      5.11131
 Cr  129 -- I   232        0.31     -0.03      5.11131
 Cr  113 -- I   144        0.31     -0.03      5.11131
 Cr  233 -- I   264        0.31     -0.03      5.11131
 Cr   41 -- I    72        0.31     -0.03      5.11131
 Cr   17 -- I    48        0.31     -0.03      5.11131
 Cr  105 -- I   136        0.31     -0.03      5.11131
 Cr   81 -- I   112        0.31     -0.03      5.11131
 Cr  137 -- I   240        0.31     -0.03      5.11131
 Cr    9 -- I    40        0.31     -0.03      5.11131
 Cr  225 -- I   256        0.31     -0.03      5.11131
 Cr  257 -- I   288        0.31     -0.03      5.11131
 Cr  145 -- I   176        0.31     -0.03      5.11131
 Cr  121 -- I   224        0.31     -0.03      5.11131
 Cr  241 -- I   272        0.31     -0.03      5.11131
 Cr   73 -- I   104        0.31     -0.03      5.11131
 Cr    1 -- I    32        0.31     -0.03      5.11131
 Cr   97 -- I   128        0.31     -0.03      5.11131
 Cr   25 -- I    56        0.31     -0.03      5.11131
 Cr  169 -- I   200        0.31     -0.03      5.11131
 Cr  217 -- I   248        0.31     -0.03      5.11131
 Cr  273 -- I   278        0.31     -0.03      5.11131
 Cr   81 -- I    86        0.31     -0.03      5.11131
 Cr  105 -- I   110        0.31     -0.03      5.11131
 Cr  281 -- I   286        0.31     -0.03      5.11131
 Cr  129 -- I   134        0.31     -0.03      5.11131
 Cr  249 -- I   254        0.31     -0.03      5.11131
 Cr  225 -- I   230        0.31     -0.03      5.11131
 Cr  137 -- I   142        0.31     -0.03      5.11131
 Cr  257 -- I   262        0.31     -0.03      5.11131
 Cr   65 -- I    70        0.31     -0.03      5.11131
 Cr   57 -- I    62        0.31     -0.03      5.11131
 Cr  113 -- I   118        0.31     -0.03      5.11131
 Cr   41 -- I    46        0.31     -0.03      5.11131
 Cr   17 -- I    22        0.31     -0.03      5.11131
 Cr  233 -- I   238        0.31     -0.03      5.11131
 Cr    9 -- I    14        0.31     -0.03      5.11131
 Cr  201 -- I   206        0.31     -0.03      5.11131
 Cr   89 -- I    94        0.31     -0.03      5.11131
 Cr  177 -- I   182        0.31     -0.03      5.11131
 Cr  161 -- I   166        0.31     -0.03      5.11131
 Cr   33 -- I    38        0.31     -0.03      5.11131
 Cr  153 -- I   158        0.31     -0.03      5.11131
[...]
*    I     148     -0.00132436  -0.00230276  -0.00480015 *
*    I     149     -0.00133798   0.00233527  -0.00479621 *
*    I     150     -0.00269133  -0.00000669   0.00479638 *
*    I     151      0.00133323   0.00229890   0.00480003 *
*    I     152      0.00133197  -0.00233911   0.00479646 *
*    Cr    153      0.00001076  -0.00000139   0.00000032 *
*    Cr    154     -0.00002126  -0.00000573  -0.00000076 *
*    I     155      0.00269260   0.00002094  -0.00479678 *
*    I     156     -0.00132409  -0.00230260  -0.00479868 *
*    I     157     -0.00133674   0.00233517  -0.00479804 *
*    I     158     -0.00269087  -0.00000541   0.00479558 *
*    I     159      0.00133243   0.00229747   0.00479927 *
*    I     160      0.00133030  -0.00233670   0.00479639 *
*    Cr    161      0.00001156  -0.00000768   0.00000001 *
*    Cr    162     -0.00002544   0.00001356   0.00000066 *
*    I     163      0.00268997   0.00001998  -0.00479640 *
*    I     164     -0.00132334  -0.00230525  -0.00479925 *
*    I     165     -0.00133789   0.00233352  -0.00479723 *
*    I     166     -0.00269216  -0.00000977   0.00479701 *
*    I     167      0.00133461   0.00229947   0.00479908 *
*    I     168      0.00132832  -0.00234064   0.00479771 *
*    Cr    169     -0.00000785  -0.00000159  -0.00000140 *
*    Cr    170     -0.00001960   0.00000439  -0.00000162 *
*    I     171      0.00269278   0.00002096  -0.00479869 *
*    I     172     -0.00132315  -0.00230201  -0.00479917 *
*    I     173     -0.00133811   0.00233634  -0.00479786 *
*    I     174     -0.00268705  -0.00000695   0.00479539 *
*    I     175      0.00133226   0.00229678   0.00479961 *
*    I     176      0.00133107  -0.00233743   0.00479643 *
*    Cr    177     -0.00002203   0.00001249  -0.00000214 *
*    Cr    178      0.00000898  -0.00000521  -0.00000199 *
*    I     179      0.00269155   0.00001805  -0.00479712 *
*    I     180     -0.00132358  -0.00230206  -0.00480004 *
*    I     181     -0.00133835   0.00233320  -0.00479657 *
*    I     182     -0.00269111  -0.00000892   0.00479735 *
*    I     183      0.00133149   0.00229752   0.00480014 *
*    I     184      0.00132901  -0.00234233   0.00479695 *
*    Cr    185      0.00000634  -0.00000942   0.00000021 *
*    Cr    186     -0.00000568   0.00002006  -0.00000076 *
*    I     187      0.00268968   0.00001579  -0.00479465 *
*    I     188     -0.00132170  -0.00230221  -0.00479913 *
*    I     189     -0.00133815   0.00233439  -0.00479565 *
*    I     190     -0.00269316  -0.00001021   0.00479766 *
*    I     191      0.00133293   0.00229876   0.00479955 *
*    I     192      0.00132902  -0.00234211   0.00479759 *
*    Cr    193      0.00000500  -0.00000450   0.00000033 *
*    Cr    194     -0.00001845   0.00000860  -0.00000048 *
*    I     195      0.00269171   0.00001285  -0.00479996 *
*    I     196     -0.00132649  -0.00230315  -0.00480322 *
*    I     197     -0.00133786   0.00233231  -0.00479727 *
*    I     198     -0.00269215  -0.00001273   0.00480243 *
*    I     199      0.00133097   0.00230060   0.00480262 *
*    I     200      0.00132902  -0.00234014   0.00479795 *
*    Cr    201     -0.00000204   0.00000865  -0.00000231 *
*    Cr    202     -0.00001369   0.00001561  -0.00000162 *
*    I     203      0.00268948   0.00001633  -0.00479574 *
*    I     204     -0.00132309  -0.00230149  -0.00479940 *
*    I     205     -0.00134058   0.00233203  -0.00479559 *
*    I     206     -0.00269052  -0.00001201   0.00479888 *
*    I     207      0.00133262   0.00229773   0.00479898 *
*    I     208      0.00132944  -0.00234070   0.00479758 *
*    Cr    209     -0.00001407   0.00001295   0.00000091 *
*    Cr    210      0.00001036   0.00001363   0.00000065 *
*    I     211      0.00268900   0.00001601  -0.00479484 *
*    I     212     -0.00132473  -0.00230330  -0.00479882 *
*    I     213     -0.00134043   0.00233426  -0.00479547 *
*    I     214     -0.00269069  -0.00000788   0.00479601 *
*    I     215      0.00133243   0.00230049   0.00479974 *
*    I     216      0.00133008  -0.00233995   0.00479622 *
*    Cr    217      0.00000634  -0.00002914   0.00000053 *
*    Cr    218     -0.00002782  -0.00000880   0.00000075 *
*    I     219      0.00268976   0.00001611  -0.00479588 *
*    I     220     -0.00132551  -0.00230560  -0.00479932 *
*    I     221     -0.00133738   0.00233524  -0.00479854 *
*    I     222     -0.00269181  -0.00000952   0.00479780 *
*    I     223      0.00133409   0.00230105   0.00479989 *
*    I     224      0.00133295  -0.00234014   0.00480047 *
*    Cr    225      0.00000592  -0.00001403  -0.00000159 *
*    Cr    226     -0.00003378  -0.00000964  -0.00000133 *
*    I     227      0.00268851   0.00001682  -0.00479471 *
*    I     228     -0.00132601  -0.00230208  -0.00479913 *
*    I     229     -0.00133845   0.00233237  -0.00479589 *
*    I     230     -0.00268936  -0.00000858   0.00479618 *
*    I     231      0.00133205   0.00229980   0.00479916 *
*    I     232      0.00132897  -0.00233855   0.00479739 *
*    Cr    233     -0.00000299  -0.00000319  -0.00000083 *
*    Cr    234     -0.00003114  -0.00000351  -0.00000064 *
*    I     235      0.00269143   0.00001658  -0.00479584 *
*    I     236     -0.00132426  -0.00230200  -0.00480011 *
*    I     237     -0.00133731   0.00233597  -0.00479896 *
*    I     238     -0.00268967  -0.00000788   0.00479620 *
*    I     239      0.00133293   0.00229815   0.00479953 *
*    I     240      0.00133568  -0.00233576   0.00479885 *
*    Cr    241      0.00000851  -0.00003400  -0.00000151 *
*    Cr    242     -0.00001520  -0.00000203  -0.00000143 *
*    I     243      0.00268925   0.00001690  -0.00479572 *
*    I     244     -0.00132230  -0.00230421  -0.00479910 *
*    I     245     -0.00133807   0.00233173  -0.00479468 *
*    I     246     -0.00268975  -0.00000915   0.00479742 *
*    I     247      0.00133366   0.00229884   0.00479916 *
*    I     248      0.00132924  -0.00233798   0.00479615 *
*    Cr    249      0.00000568  -0.00001703  -0.00000158 *
*    Cr    250     -0.00001780  -0.00000368  -0.00000136 *
*    I     251      0.00268796   0.00001826  -0.00479570 *
*    I     252     -0.00132322  -0.00230145  -0.00479823 *
*    I     253     -0.00133649   0.00233220  -0.00479577 *
*    I     254     -0.00268699  -0.00000519   0.00479471 *
*    I     255      0.00133322   0.00229999   0.00480116 *
*    I     256      0.00133102  -0.00233418   0.00479469 *
*    Cr    257      0.00000030  -0.00001213   0.00000040 *
*    Cr    258     -0.00002343   0.00000160  -0.00000033 *
*    I     259      0.00269023   0.00001750  -0.00479626 *
*    I     260     -0.00132397  -0.00230121  -0.00479990 *
*    I     261     -0.00133641   0.00233524  -0.00479707 *
*    I     262     -0.00268800  -0.00000652   0.00479638 *
*    I     263      0.00133222   0.00229982   0.00480024 *
*    I     264      0.00133100  -0.00233564   0.00479593 *
*    Cr    265      0.00001247  -0.00002934  -0.00000082 *
*    Cr    266     -0.00000106  -0.00000436  -0.00000060 *
*    I     267      0.00269035   0.00001655  -0.00479626 *
*    I     268     -0.00132308  -0.00230271  -0.00480022 *
*    I     269     -0.00133967   0.00233433  -0.00479583 *
*    I     270     -0.00268939  -0.00000495   0.00479621 *
*    I     271      0.00133184   0.00229859   0.00479955 *
*    I     272      0.00133003  -0.00233788   0.00479617 *
*    Cr    273      0.00001313  -0.00001928  -0.00000049 *
*    Cr    274     -0.00001061  -0.00000652   0.00000059 *
*    I     275      0.00269055   0.00001984  -0.00479705 *
*    I     276     -0.00132252  -0.00230225  -0.00479992 *
*    I     277     -0.00133832   0.00233373  -0.00479623 *
*    I     278     -0.00268824  -0.00000591   0.00479595 *
*    I     279      0.00133359   0.00229904   0.00480026 *
*    I     280      0.00133034  -0.00233594   0.00479637 *
*    Cr    281      0.00000961  -0.00000871  -0.00000004 *
*    Cr    282     -0.00001291   0.00000365   0.00000016 *
*    I     283      0.00269155   0.00001791  -0.00480081 *
*    I     284     -0.00132713  -0.00230276  -0.00480246 *
*    I     285     -0.00133557   0.00233549  -0.00479816 *
*    I     286     -0.00269056  -0.00000950   0.00479930 *
*    I     287      0.00132965   0.00229959   0.00480368 *
*    I     288      0.00133080  -0.00233702   0.00479656 *
*                                                        *
**********************************************************
* TOTAL:            0.00000000   0.00000000  -0.00000000 *
**********************************************************
 
 
***********************************************************
********** Summary of Forces (values in Eh/a) *************
*                                                         *
* ---------------------- Minimum ------------------------ *
* Atom:        17, |F|min =    0.00000418                 *
* Components:     Fx|min       Fy|min       Fz|min        *
*              -0.00000067   0.00000392  -0.00000129      *
*                                                         *
* ---------------------- Maximum ------------------------ *
* Atom:       198, |F|max =    0.00550556                 *
* Components:     Fx|max       Fy|max       Fz|max        *
*              -0.00269215  -0.00001273   0.00480243      *
*                                                         *
* ---------------- Root Mean Square Force --------------- *
*                  |F|rms =    0.00475923                 *
* Components:     Fx|rms       Fy|rms       Fz|rms        *
*               0.00164189   0.00163963   0.00415525      *
***********************************************************
 

------------------------------ TIMING INFORMATION ------------------------------
AVERAGE TIME:   28952.640s on     56 proc(s)                                    
TOTAL TIME:     28952.640s on     56 proc(s)                                    
==================== AVERAGE TIMINGS FROM ALL PROCS (CUMULATIVE) =====================
|| TAG                                         #calls     cpu time   %total  Gflops ||
|| hubbard_species_proj                       :     1        0.00s   0.000%  ------ ||
|| hubbard_ngwf_on_grid                       :     1        0.00s   0.000%  ------ ||
|| sw_bessel_init_cpu                         :     1        0.01s   0.000%  ------ || (1 procs only)
|| hubbard_ngwf_select                        :     1        0.00s   0.000%  ------ ||
|| hubbard_projector_character                :     1        0.00s   0.000%  ------ ||
|| onetep.F90 final imbalance                 :     1        0.00s   0.000%  ------ ||
|| density_fftbox_interp_mult_imbal           : 20328        0.00s   0.000%  ------ ||
|| linalg_invert_sym_matrix                   :     4        0.16s   0.001%  ------ || (1 procs only)
|| hubbard_tensorial_correction               :     2        0.00s   0.000%  ------ ||
|| ewald_calculate_forces_realspace           :     1        0.01s   0.000%  ------ ||
|| hash_table_free                            :    56        0.01s   0.000%  ------ ||
|| linalg_dgemv                               :    44        0.03s   0.000%  ------ ||
|| sparse_blacstospam3_real_fast_imbal        :    96        0.03s   0.000%  ------ ||
|| ewald_calculate_energy                     :     1        0.05s   0.000%  ------ ||
|| sparse_set_to_garbage                      :  1224        0.06s   0.000%  ------ ||
|| ewald_calculate_forces_recipspace          :     1        0.09s   0.000%  ------ ||
|| paw_tcore_hartree_on_grid                  :     1        0.10s   0.000%  ------ ||
|| sw_init                                    :   615        0.14s   0.000%  ------ ||
|| paw_dij_hartree                            :   341        0.14s   0.000%  ------ ||
|| pseudo_make_structure_factor               :     1        0.16s   0.001%  ------ ||
|| onetep.F90 main loop imbalance             :     1        0.16s   0.001%  ------ ||
|| sparse_spam3toblacs_real_fast_B2           :  4592        0.18s   0.001%  ------ ||
|| sparse_spam3toblacs_real_fast_imbal        :    82        0.35s   0.001%  ------ ||
|| sparse_init                                :     1        0.42s   0.001%  ------ ||
|| ewald_calculate_forces                     :     1        0.61s   0.002%  ------ ||
|| paw_tcore_hartree_calc_forces              :     1        0.70s   0.002%  ------ ||
|| hubbard_projection_mtx                     :    58        0.71s   0.002%  ------ ||
|| augmentation_density_forces                :     1        0.74s   0.003%  ------ ||
|| basis_extract_function_from_box            :  3600        0.74s   0.003%  ------ ||
|| hubbard_projector_ham                      :   147        1.08s   0.004%  ------ ||
|| hubbard_ham_matrix                         :   148        1.25s   0.004%  ------ ||
|| restart_hamiltonian_write                  :     2        1.62s   0.006%  ------ ||
|| paw_tcore_density                          :     1        1.86s   0.006%  ------ ||
|| sparse_spam3toblacs_real_fast_B1           :  4592        1.95s   0.007%  ------ ||
|| paw_dataset_init                           :     2        2.16s   0.007%  ------ ||
|| paw_nlcc_calculate_forces                  :     1        2.32s   0.008%  ------ ||
|| hubbard_energy_total                       :   310        2.56s   0.009%  ------ ||
|| paw_sphere_density_on_grid                 :     1        2.82s   0.010%  ------ ||
|| sparse_spam3toblacs_real_fast              :    82        2.85s   0.010%  ------ ||
|| nonsc_forces_ngwfs_calc                    :     1        3.99s   0.014%  ------ ||
|| sparse_blacstospam3_real_fast              :    96        5.50s   0.019%  ------ ||
|| paw_species_calc_proj_prec_mat             :     1        5.81s   0.020%  ------ ||
|| ngwfs_initialise_from_radial               :     4        5.81s   0.020%  ------ ||
|| sparse_embed_array_hotelling_invert        :    56        6.76s   0.023%  ------ ||
|| hubbard_calculate_forces                   :     1       10.73s   0.037%  ------ ||
|| restart_kernel_write                       :    30       10.96s   0.038%  ------ ||
|| dense_eigensolve                           :    38       11.15s   0.039%  ------ ||
|| edft_diag_ngwf_ham                         :    36       12.91s   0.045%  ------ ||
|| integrals_grad_spam3                       :     4       14.63s   0.051%  ------ ||
|| sparse_trace                               : 10602       17.23s   0.060%  ------ ||
|| edft_apply_smearing_operator               :    18       19.27s   0.067%  ------ ||
|| kernel_purify                              :   452       20.17s   0.070%  ------ ||
|| energy_and_force_init_cell                 :     1       21.46s   0.074%  ------ ||
|| ngwf_gradient_coeffs                       :    28       24.14s   0.083%  ------ ||
|| lnv_gradient_norm                          :   140       25.17s   0.087%  ------ ||
|| kernel_fix                                 :   140       25.84s   0.089%  ------ ||
|| fourier_filter_cell                        :   354       28.33s   0.098% 138.717 ||
|| basis_copy_function_to_box                 : 35550       33.80s   0.117%  ------ ||
|| eigenstates_calculate                      :     1       36.42s   0.126%  ------ ||
|| hamiltonian_energy_components              :     1       36.65s   0.127%  ------ ||
|| hartree_on_grid_single                     :   307       40.16s   0.139%  ------ ||
|| projectors_func_grad_ovlp_box_spam3        :     6       40.74s   0.141%  ------ ||
|| fourier_apply_box_pair                     :  5472       41.50s   0.143%  1.792k ||
|| aug_nl_calculate_forces                    :     1       42.05s   0.145%  ------ ||
|| hubbard_projector_update                   :     1       47.57s   0.164%  ------ ||
|| fourier_interpolate_cell                   :   616       51.14s   0.177% 133.720 ||
|| density_init_guess_real                    :     2       58.54s   0.202%  ------ ||
|| augmentation_screen_dij_spam3              :   306      101.56s   0.351%  ------ ||
|| forces_calculate                           :     1      128.98s   0.445%  ------ ||
|| cell_grid_deposit_box_real                 : 24858      130.57s   0.451%  ------ ||
|| sparse_product                             : 20380      137.52s   0.475%  ------ ||
|| aug_nonlocal_mat_spam3_embed_array         :   312      159.44s   0.551%  ------ ||
|| paw_dij_xc                                 :   341      166.91s   0.576%  ------ ||
|| fourier_apply_cell_backward                :  2764      182.42s   0.630% 151.354 ||
|| fourier_apply_cell_forward                 :  2764      198.65s   0.686% 138.990 ||
|| fourier_filter                             :  6662      205.56s   0.710%  ------ ||
|| aug_density_on_grid_spam3                  :   308      222.42s   0.768%  ------ ||
|| projectors_init_fftbox_recip               :   741      269.50s   0.931%  ------ ||
|| cell_grid_extract_box_real                 : 15650      302.59s   1.045%  ------ ||
|| fourier_interpolate                        :  6662      322.88s   1.115%  ------ ||
|| xc_energy_potential                        :   307      421.71s   1.457%  ------ ||
|| properties_calculate                       :     1      469.78s   1.623%  ------ ||
|| function_ops_brappd_ketppd_spam3           :   228      655.56s   2.264%  ------ ||
|| density_fftbox_deposit_to_cell             : 20328      791.76s   2.735%  ------ ||
|| projectors_func_ovlp_box_spam3             :   230      854.62s   2.952%  ------ ||
|| edft_calculate                             :     1      890.42s   3.075%  ------ ||
|| integrals_kinetic_spam3                    :   112      940.38s   3.248%  ------ ||
|| basis_dot_function_with_box                : 12.37M    1296.01s   4.476%  ------ ||
|| restart_ngwfs_tightbox_output              :    28     1364.64s   4.713%  ------ ||
|| potential_apply_to_ngwf_batch              :   890     1666.38s   5.756%  ------ ||
|| projectors_gradient_batch                  :   336     1809.65s   6.250%  ------ ||
|| fourier_apply_box                          : 109.3k    2510.66s   8.672%  1.968k ||
|| integrals_locpot_mat_els_batch             :   890     2623.99s   9.063%  ------ ||
|| fourier_interpolate_product                : 19800     2768.83s   9.563%  ------ ||
|| basis_add_function_to_box                  : 24.75M    2892.33s   9.990%  ------ ||
|| density_fftbox_interpolate_multiply        : 20328     2909.41s  10.049%  ------ ||
|| projectors_grad_precond_batch              :   168     3580.48s  12.367%  ------ ||
|| integrals_locpot_dbl_grid                  :   298     4293.72s  14.830%  ------ ||
|| density_batch_interp_deposit               :  1848     4946.62s  17.085%  ------ ||
|| density_batch_row_sums                     :  1848     5181.19s  17.895%  ------ ||
|| ngwf_gradient_build_batch                  :   168     6000.96s  20.727%  ------ ||
|| ngwf_gradient_batch                        :   168     8618.70s  29.768%  ------ ||
|| ngwf_gradient_lnv                          :    28     8761.28s  30.261%  ------ ||
|| density_on_dbl_grid                        :   616    10212.18s  35.272%  ------ ||
|| hamiltonian_lhxc_calculate                 :   304    10979.91s  37.924%  ------ ||
|| lnv_denskernel_optimise_cg                 :    28    13554.41s  46.816%  ------ ||
|| ngwf_cg_optimise                           :     1    27234.46s  94.066%  ------ ||
|| energy_and_forces                          :     1    28929.36s  99.920%  ------ ||
|| total_time                                 :     1    28952.64s 100.000%  ------ ||
======================================================================================
Overhead of generating timer report: 
- 0 ms averaging over threads,
- 10 ms ensuring consistency across MPI ranks,
- 1 ms printing in order.

Job completed: 30-09-2024 23:08 (+0100)

onetep_launcher: ONETEP seems to have finished correctly (zero exit code).
                 Brought to you by PID 192416 on nid003671.
