==================================================================================
It's Sat 26 Apr 2025 10:15:47 AM BST.
*** Starting onetep_launcher (node nid001524, PIDs 44216 44217 44218 44219 44220 44221)...
    - ONETEP arguments: Cr2I6_bilayer_HT_AFM_AFM_SP.dat
    - Current directory: /mnt/lustre/a2fs-work3/work/e89/e89/phsmea/CrI3_onetep_U/U_2.97/HT_AFM/HT_AFM_AFM_J/nsp
    - Launcher executable directory: /mnt/lustre/a2fs-work3/work/e89/e89/phsmea/CrI3_onetep_U/U_2.97/HT_AFM/HT_AFM_AFM_J/nsp
    - (-e) ONETEP executable specified through command-line: /work/e89/e89/phsmea/onetep.archer2_2024_cray_2
      ... trying /work/e89/e89/phsmea/onetep.archer2_2024_cray_2
          -> looks OK
*** Setting up environment...
    - (-s) Process stack size: unlimited
    - (-t) OMP_NUM_THREADS: 16
    - (-o) OMP_STACKSIZE: 64M
    - (-c) Maximum core file size: 2048000
    - (-d) decfort_dump_flag: n
    - (-m) I_MPI_OFA_TRANSLATION_CACHE: 0
    - (-m) I_MPI_DAPL_TRANSLATION_CACHE: 0
    - (-m) I_MPI_DAPL_UD_TRANSLATION_CACHE: 0
*** Starting ONETEP...
    - /work/e89/e89/phsmea/onetep.archer2_2024_cray_2 Cr2I6_bilayer_HT_AFM_AFM_SP.dat
=================================================================================
_________________________________________________________________________________
 +---------------------------------------------------------------+
 |                                                               |
 |        ####### #     # ####### ####### ####### ######         |
 |        #     # ##    # #          #    #       #     #        |
 |        #     # # #   # #          #    #       #     #        |
 |        #     # #  #  # #####      #    #####   ######         |
 |        #     # #   # # #          #    #       #              |
 |        #     # #    ## #          #    #       #              |
 |        ####### #     # #######    #    ####### #              |
 |                                                               |
 |        Linear-Scaling Ab Initio Total Energy Program          |
 |                                                               |
 |          Release for academic collaborators of ODG            |
 |                                             Version 7.3.0     |
 | Remote: git@github.com:Miesaz/onetep_mea.git                  |
 | Local branch: master                                          |
 | Commit ID: 4af45e89288c8df5499704252eec3e032ee3d0c8           |
 | Date: Tue Aug 6 11:28:44 2024 +0100                           |
 | Locally modified files:                                       |
 |   src/hubbard_build_mod.F90                                   |
 |   src/services_mod.F90                                        |
 |                                                               |
 +---------------------------------------------------------------+
 |                                                               |
 |  Authors:                                                     |
 |  Jacek Dziedzic, Peter D. Haynes, Nicholas D. M. Hine,        |
 |  Arash A. Mostofi, Mike C. Payne and Chris-Kriton Skylaris    |
 |                                                               |
 |  Contributors:                                                |
 |  J. Aarons, L. Andrinopoulos, P. W. Avraam, R. A. Bell,       |
 |  A. Bhandari, G. A. Bramley, R. J. Charlton, S. J. Clark,     |
 |  R. J. Clements, G. C. Constantinescu, F. Corsetti,           |
 |  N. Corsini, O. Dieguez, S. M. M. Dubois, K. K. B. Duff,      |
 |  J. M. Escartin, M. Escobar Azor, A. Greco,                   |
 |  H. Helal, Q. O. Hill, L. P. Lee, J.-H. Li,                   |
 |  T. Li, E. B. Linscott, G. Moynihan, D. D. O`Regan,           |
 |  O. K. Okan, E. Parkinson, M. J. S. Phipps,                   |
 |  C. J. Pickard, J. C. A. Prentice, M. I. J. Probert,          |
 |  L. E. Ratcliff, M. Robinson, A. Ruiz Serrano,                |
 |  M. dos Santos Dias, J. S. Spencer, E. W. Tait,               |
 |  G. Teobaldi, D. Turban, V. Vitale, K. A. Wilkinson,          |
 |  C. Weber, J. C. Womack, Chengcheng Xiao, N. Yeung,           |
 |  and T. J. Zuehlsdorff.                                       |
 |                                                               |
 |                                   Copyright (c) 2004-2025     |
 |                                                               |
 |  Please cite:                                                 |
 |  "The ONETEP linear-scaling density functional theory program"|
 |   J. Chem. Phys. 152(17) 174111 (2020)                        |
 |                                                               |
 |          in all publications arising from your use of ONETEP. |
 |                                                               |
 +---------------------------------------------------------------+
 |                                                               |
 |   ONETEP is based on developments described in the following  |
 |   publications:                                               |
 |                                                               |
 |  "Nonorthogonal generalized Wannier function pseudopotential  |
 |   plane-wave method".                                         |
 |   C.-K. Skylaris, A. A. Mostofi, P. D. Haynes, O. Dieguez,    |
 |   M. C. Payne.                                                |
 |   Phys. Rev. B 66 035119 (2002).                              |
 |                                                               |
 |  "Preconditioned iterative minimization for linear-scaling    |
 |   electronic structure calculations".                         |
 |   A. A. Mostofi, P. D. Haynes, C.-K. Skylaris, M. C. Payne.   |
 |   J. Chem. Phys. 119(17), pp.8842-8848 (2003).                |
 |                                                               |
 |  "Total-energy calculations on a real space grid with         |
 |   localized functions and a plane-wave basis".                |
 |   A. A. Mostofi, C.-K. Skylaris, P. D. Haynes, M. C. Payne.   |
 |   Comput. Phys. Commun. 147, pp.788-802 (2002).               |
 |                                                               |
 |  "Accurate kinetic energy evaluation in electronic structure  |
 |   calculations with localized functions on real space grids"  |
 |   C.-K. Skylaris, A. A. Mostofi, P. D. Haynes, C. J. Pickard, |
 |   M. C. Payne.                                                |
 |   Comput. Phys. Commun. 140, pp.315-322 (2001).               |
 |                                                               |
 |  "Accurate ionic forces and geometry optimization in linear-  |
 |   scaling density-functional theory with local orbitals"      |
 |   N. D. M. Hine, M. Robinson, P. D. Haynes, C.-K. Skylaris,   |
 |   M. C. Payne, and A. A. Mostofi.                             |
 |   Phys. Rev. B 83 195102 (2011).                              |
 |                                                               |
 +---------------------------------------------------------------+

Job started: 26-04-2025 10:15 (+0100)
 
Reading parameters from file "Cr2I6_bilayer_HT_AFM_AFM_SP.dat" ...... done

If your calculation crashes here, before "Checking processes and threads..."
is displayed, then your stack size is insufficient.
If so, use "ulimit -s unlimited" at runtime.
You can disable this check with "check_stack_size F".

Checking processes and threads...
      Default threads: 16
   Running with 150 MPI processes.
   There are 6 MPI processes running on the same node as the root process.
   Each MPI process is using: 
               1 threads for simulation cell FFTs.
               1 threads for threaded FFT box operations.
              16 threads for loops over batched FFT box operations.
              16 threads in other parallel regions.
   MPI Interface: S1 (use mpi_f08) (-DMPI -DUSE_MPI_F08).
   MPI_ASYNC_PROTECTS_NONBLOCKING: Yes. MPI_SUBARRAYS_SUPPORTED: Yes.
   FFTW Interface: OMP-capable and MODERN. (-DUSE_MODERN_FFTW specified).
   GPU Interface: None.
   GPU FFT Backend: None.
... done

Basic input checks...... done

Reading geometry and species blocks from file "Cr2I6_bilayer_HT_AFM_AFM_SP.dat" ...... done


--------------------------------------------------------------------------------
---------------------------------- INPUT FILE ----------------------------------
--------------------------------------------------------------------------------

charge : 0                                                                      
cutoff_energy : 1000 eV                                                         
delta_e_conv : F                                                                
do_properties : T                                                               
edft : F                                                                        
edft_init_maxit : 15                                                            
elec_energy_tol : 1e-07 Ha                                                      
fine_grid_scale : 4                                                             
forces_output_detail : VERBOSE                                                  
MAXIT_LNV     : 15                                                              
MINIT_LNV     : 5                                                               
maxit_ngwf_cg : 100                                                             
ngwf_threshold_orig : 1e-06                                                     
ngwfs_spin_polarized : F                                                        
output_detail : NORMAL                                                          
paw : T                                                                         
read_denskern : F                                                               
read_hamiltonian : F                                                            
read_tightbox_ngwfs : F                                                         
spin : 0                                                                        
spin_polarized : T                                                              
task : SinglePoint                                                              
write_denskern : T                                                              
write_forces : T                                                                
write_hamiltonian : T                                                           
write_tightbox_ngwfs : T                                                        
xc_functional : PBE                                                             
%BLOCK LATTICE_CART                                                             
ang                                                                             
41.261892132       0.000000000000000        0.000000000000000                   
-20.630946066       35.733846792             0.000000000000000                  
0.000000000000000   0.0000000000000000       27.507928088                       
%ENDBLOCK LATTICE_CART                                                          
%BLOCK POSITIONS_ABS                                                            
ang                                                                             
Cr       5.73012301       1.98615267      15.61475195                           
Cr       2.29163200       3.96948846      15.61475241                           
I        6.71804295      -0.00001318      14.06395847                           
I        3.51661508       2.12334657      14.07089707                           
I        0.07814689       3.83230774      14.07089707                           
I        4.74445508      -0.00001140      17.15723785                           
I        4.50489604       3.83201918      17.15707434                           
I        1.06642478       2.12363336      17.15707434                           
Cr1      3.43917878       1.98613277       9.03123330                           
Cr1      0.00068777       3.96950836       9.03123376                           
I        4.42486276      -0.00001318       7.48874545                           
I        1.22590088       2.12363241       7.48890841                           
I       -2.21256731       3.83202190       7.48890841                           
I        2.45126709      -0.00001140      10.58202506                           
I        2.21418512       3.83230199      10.57507890                           
I       -1.22428614       2.12335055      10.57507890                           
Cr       2.29163200       7.94179381      15.61475195                           
Cr      -1.14685901       9.92512959      15.61475241                           
I        3.27955194       5.95562795      14.06395847                           
I        0.07812407       8.07898770      14.07089707                           
I       -3.36034412       9.78794887      14.07089707                           
I        1.30596407       5.95562973      17.15723785                           
I        1.06640503       9.78766031      17.15707434                           
I       -2.37206623       8.07927449      17.15707434                           
Cr1      0.00068777       7.94177390       9.03123330                           
Cr1     -3.43780324       9.92514949       9.03123376                           
I        0.98637175       5.95562795       7.48874545                           
I       -2.21259013       8.07927354       7.48890841                           
I       -5.65105832       9.78766304       7.48890841                           
I       -0.98722392       5.95562973      10.58202506                           
I       -1.22430589       9.78794313      10.57507890                           
I       -4.66277715       8.07899168      10.57507890                           
Cr      -1.14685901      13.89743494      15.61475195                           
Cr      -4.58535002      15.88077072      15.61475241                           
I       -0.15893907      11.91126908      14.06395847                           
I       -3.36036694      14.03462883      14.07089707                           
I       -6.79883513      15.74359001      14.07089707                           
I       -2.13252694      11.91127086      17.15723785                           
I       -2.37208598      15.74330145      17.15707434                           
I       -5.81055724      14.03491562      17.15707434                           
Cr1     -3.43780324      13.89741504       9.03123330                           
Cr1     -6.87629425      15.88079062       9.03123376                           
I       -2.45211926      11.91126908       7.48874545                           
I       -5.65108114      14.03491467       7.48890841                           
I       -9.08954933      15.74330417       7.48890841                           
I       -4.42571493      11.91127086      10.58202506                           
I       -4.66279691      15.74358426      10.57507890                           
I       -8.10126817      14.03463281      10.57507890                           
Cr      -4.58535002      19.85307607      15.61475195                           
Cr      -8.02384103      21.83641185      15.61475241                           
I       -3.59743008      17.86691022      14.06395847                           
I       -6.79885795      19.99026996      14.07089707                           
I      -10.23732614      21.69923114      14.07089707                           
I       -5.57101795      17.86691200      17.15723785                           
I       -5.81057699      21.69894258      17.15707434                           
I       -9.24904825      19.99055675      17.15707434                           
Cr1     -6.87629425      19.85305617       9.03123330                           
Cr1    -10.31478526      21.83643175       9.03123376                           
I       -5.89061027      17.86691022       7.48874545                           
I       -9.08957216      19.99055580       7.48890841                           
I      -12.52804035      21.69894530       7.48890841                           
I       -7.86420594      17.86691200      10.58202506                           
I       -8.10128792      21.69922539      10.57507890                           
I      -11.53975918      19.99027394      10.57507890                           
Cr      -8.02384103      25.80871720      15.61475195                           
Cr     -11.46233204      27.79205298      15.61475241                           
I       -7.03592109      23.82255135      14.06395847                           
I      -10.23734897      25.94591110      14.07089707                           
I      -13.67581716      27.65487227      14.07089707                           
I       -9.00950896      23.82255313      17.15723785                           
I       -9.24906800      27.65458371      17.15707434                           
I      -12.68753926      25.94619789      17.15707434                           
Cr1    -10.31478526      25.80869730       9.03123330                           
Cr1    -13.75327627      27.79207289       9.03123376                           
I       -9.32910128      23.82255135       7.48874545                           
I      -12.52806317      25.94619693       7.48890841                           
I      -15.96653136      27.65458643       7.48890841                           
I      -11.30269695      23.82255313      10.58202506                           
I      -11.53977893      27.65486652      10.57507890                           
I      -14.97825019      25.94591507      10.57507890                           
Cr     -11.46233205      31.76435833      15.61475195                           
Cr     -14.90082306      33.74769412      15.61475241                           
I      -10.47441210      29.77819248      14.06395847                           
I      -13.67583998      31.90155223      14.07089707                           
I      -17.11430817      33.61051340      14.07089707                           
I      -12.44799997      29.77819426      17.15723785                           
I      -12.68755901      33.61022484      17.15707434                           
I      -16.12603027      31.90183902      17.15707434                           
Cr1    -13.75327627      31.76433843       9.03123330                           
Cr1    -17.19176728      33.74771402       9.03123376                           
I      -12.76759229      29.77819248       7.48874545                           
I      -15.96655418      31.90183807       7.48890841                           
I      -19.40502237      33.61022756       7.48890841                           
I      -14.74118796      29.77819426      10.58202506                           
I      -14.97826994      33.61050765      10.57507890                           
I      -18.41674120      31.90155621      10.57507890                           
Cr      12.60710503       1.98615267      15.61475195                           
Cr       9.16861402       3.96948846      15.61475241                           
I       13.59502497      -0.00001318      14.06395847                           
I       10.39359710       2.12334657      14.07089707                           
I        6.95512891       3.83230774      14.07089707                           
I       11.62143710      -0.00001140      17.15723785                           
I       11.38187806       3.83201918      17.15707434                           
I        7.94340680       2.12363336      17.15707434                           
Cr1     10.31616080       1.98613277       9.03123330                           
Cr1      6.87766979       3.96950836       9.03123376                           
I       11.30184479      -0.00001318       7.48874545                           
I        8.10288290       2.12363241       7.48890841                           
I        4.66441471       3.83202190       7.48890841                           
I        9.32824912      -0.00001140      10.58202506                           
I        9.09116714       3.83230199      10.57507890                           
I        5.65269588       2.12335055      10.57507890                           
Cr       9.16861402       7.94179381      15.61475195                           
Cr       5.73012301       9.92512959      15.61475241                           
I       10.15653396       5.95562795      14.06395847                           
I        6.95510609       8.07898770      14.07089707                           
I        3.51663790       9.78794887      14.07089707                           
I        8.18294609       5.95562973      17.15723785                           
I        7.94338705       9.78766031      17.15707434                           
I        4.50491579       8.07927449      17.15707434                           
Cr1      6.87766979       7.94177390       9.03123330                           
Cr1      3.43917878       9.92514949       9.03123376                           
I        7.86335378       5.95562795       7.48874545                           
I        4.66439189       8.07927354       7.48890841                           
I        1.22592370       9.78766304       7.48890841                           
I        5.88975810       5.95562973      10.58202506                           
I        5.65267613       9.78794313      10.57507890                           
I        2.21420487       8.07899168      10.57507890                           
Cr       5.73012301      13.89743494      15.61475195                           
Cr       2.29163200      15.88077072      15.61475241                           
I        6.71804295      11.91126908      14.06395847                           
I        3.51661508      14.03462883      14.07089707                           
I        0.07814689      15.74359001      14.07089707                           
I        4.74445508      11.91127086      17.15723785                           
I        4.50489604      15.74330145      17.15707434                           
I        1.06642478      14.03491562      17.15707434                           
Cr1      3.43917878      13.89741504       9.03123330                           
Cr1      0.00068777      15.88079062       9.03123376                           
I        4.42486276      11.91126908       7.48874545                           
I        1.22590088      14.03491467       7.48890841                           
I       -2.21256731      15.74330417       7.48890841                           
I        2.45126709      11.91127086      10.58202506                           
I        2.21418512      15.74358426      10.57507890                           
I       -1.22428614      14.03463281      10.57507890                           
Cr       2.29163200      19.85307607      15.61475195                           
Cr      -1.14685901      21.83641185      15.61475241                           
I        3.27955194      17.86691022      14.06395847                           
I        0.07812407      19.99026996      14.07089707                           
I       -3.36034412      21.69923114      14.07089707                           
I        1.30596407      17.86691200      17.15723785                           
I        1.06640503      21.69894258      17.15707434                           
I       -2.37206623      19.99055675      17.15707434                           
Cr1      0.00068777      19.85305617       9.03123330                           
Cr1     -3.43780324      21.83643175       9.03123376                           
I        0.98637175      17.86691022       7.48874545                           
I       -2.21259013      19.99055580       7.48890841                           
I       -5.65105832      21.69894530       7.48890841                           
I       -0.98722392      17.86691200      10.58202506                           
I       -1.22430589      21.69922539      10.57507890                           
I       -4.66277715      19.99027394      10.57507890                           
Cr      -1.14685901      25.80871720      15.61475195                           
Cr      -4.58535002      27.79205298      15.61475241                           
I       -0.15893907      23.82255135      14.06395847                           
I       -3.36036694      25.94591110      14.07089707                           
I       -6.79883513      27.65487227      14.07089707                           
I       -2.13252694      23.82255313      17.15723785                           
I       -2.37208598      27.65458371      17.15707434                           
I       -5.81055724      25.94619789      17.15707434                           
Cr1     -3.43780324      25.80869730       9.03123330                           
Cr1     -6.87629425      27.79207289       9.03123376                           
I       -2.45211926      23.82255135       7.48874545                           
I       -5.65108114      25.94619693       7.48890841                           
I       -9.08954933      27.65458643       7.48890841                           
I       -4.42571493      23.82255313      10.58202506                           
I       -4.66279691      27.65486652      10.57507890                           
I       -8.10126817      25.94591507      10.57507890                           
Cr      -4.58535002      31.76435833      15.61475195                           
Cr      -8.02384103      33.74769412      15.61475241                           
I       -3.59743008      29.77819248      14.06395847                           
I       -6.79885795      31.90155223      14.07089707                           
I      -10.23732614      33.61051340      14.07089707                           
I       -5.57101795      29.77819426      17.15723785                           
I       -5.81057699      33.61022484      17.15707434                           
I       -9.24904825      31.90183902      17.15707434                           
Cr1     -6.87629425      31.76433843       9.03123330                           
Cr1    -10.31478526      33.74771402       9.03123376                           
I       -5.89061027      29.77819248       7.48874545                           
I       -9.08957216      31.90183807       7.48890841                           
I      -12.52804035      33.61022756       7.48890841                           
I       -7.86420594      29.77819426      10.58202506                           
I       -8.10128792      33.61050765      10.57507890                           
I      -11.53975918      31.90155621      10.57507890                           
Cr      19.48408705       1.98615267      15.61475195                           
Cr      16.04559604       3.96948846      15.61475241                           
I       20.47200700      -0.00001318      14.06395847                           
I       17.27057912       2.12334657      14.07089707                           
I       13.83211093       3.83230774      14.07089707                           
I       18.49841912      -0.00001140      17.15723785                           
I       18.25886009       3.83201918      17.15707434                           
I       14.82038883       2.12363336      17.15707434                           
Cr1     17.19314283       1.98613277       9.03123330                           
Cr1     13.75465182       3.96950836       9.03123376                           
I       18.17882681      -0.00001318       7.48874545                           
I       14.97986492       2.12363241       7.48890841                           
I       11.54139673       3.83202190       7.48890841                           
I       16.20523114      -0.00001140      10.58202506                           
I       15.96814916       3.83230199      10.57507890                           
I       12.52967790       2.12335055      10.57507890                           
Cr      16.04559604       7.94179381      15.61475195                           
Cr      12.60710503       9.92512959      15.61475241                           
I       17.03351599       5.95562795      14.06395847                           
I       13.83208811       8.07898770      14.07089707                           
I       10.39361992       9.78794887      14.07089707                           
I       15.05992811       5.95562973      17.15723785                           
I       14.82036907       9.78766031      17.15707434                           
I       11.38189781       8.07927449      17.15707434                           
Cr1     13.75465181       7.94177390       9.03123330                           
Cr1     10.31616080       9.92514949       9.03123376                           
I       14.74033580       5.95562795       7.48874545                           
I       11.54137391       8.07927354       7.48890841                           
I        8.10290572       9.78766304       7.48890841                           
I       12.76674013       5.95562973      10.58202506                           
I       12.52965815       9.78794313      10.57507890                           
I        9.09118689       8.07899168      10.57507890                           
Cr      12.60710503      13.89743494      15.61475195                           
Cr       9.16861402      15.88077072      15.61475241                           
I       13.59502497      11.91126908      14.06395847                           
I       10.39359710      14.03462883      14.07089707                           
I        6.95512891      15.74359001      14.07089707                           
I       11.62143710      11.91127086      17.15723785                           
I       11.38187806      15.74330145      17.15707434                           
I        7.94340680      14.03491562      17.15707434                           
Cr1     10.31616080      13.89741504       9.03123330                           
Cr1      6.87766979      15.88079062       9.03123376                           
I       11.30184479      11.91126908       7.48874545                           
I        8.10288290      14.03491467       7.48890841                           
I        4.66441471      15.74330417       7.48890841                           
I        9.32824912      11.91127086      10.58202506                           
I        9.09116714      15.74358426      10.57507890                           
I        5.65269588      14.03463281      10.57507890                           
Cr       9.16861402      19.85307607      15.61475195                           
Cr       5.73012301      21.83641185      15.61475241                           
I       10.15653396      17.86691022      14.06395847                           
I        6.95510609      19.99026996      14.07089707                           
I        3.51663790      21.69923114      14.07089707                           
I        8.18294609      17.86691200      17.15723785                           
I        7.94338705      21.69894258      17.15707434                           
I        4.50491579      19.99055675      17.15707434                           
Cr1      6.87766979      19.85305617       9.03123330                           
Cr1      3.43917878      21.83643175       9.03123376                           
I        7.86335378      17.86691022       7.48874545                           
I        4.66439189      19.99055580       7.48890841                           
I        1.22592370      21.69894530       7.48890841                           
I        5.88975810      17.86691200      10.58202506                           
I        5.65267613      21.69922539      10.57507890                           
I        2.21420487      19.99027394      10.57507890                           
Cr       5.73012301      25.80871720      15.61475195                           
Cr       2.29163200      27.79205298      15.61475241                           
I        6.71804295      23.82255135      14.06395847                           
I        3.51661508      25.94591110      14.07089707                           
I        0.07814689      27.65487227      14.07089707                           
I        4.74445508      23.82255313      17.15723785                           
I        4.50489604      27.65458371      17.15707434                           
I        1.06642478      25.94619789      17.15707434                           
Cr1      3.43917878      25.80869730       9.03123330                           
Cr1      0.00068777      27.79207289       9.03123376                           
I        4.42486276      23.82255135       7.48874545                           
I        1.22590088      25.94619693       7.48890841                           
I       -2.21256731      27.65458643       7.48890841                           
I        2.45126709      23.82255313      10.58202506                           
I        2.21418512      27.65486652      10.57507890                           
I       -1.22428614      25.94591507      10.57507890                           
Cr       2.29163200      31.76435833      15.61475195                           
Cr      -1.14685901      33.74769412      15.61475241                           
I        3.27955194      29.77819248      14.06395847                           
I        0.07812407      31.90155223      14.07089707                           
I       -3.36034412      33.61051340      14.07089707                           
I        1.30596407      29.77819426      17.15723785                           
I        1.06640503      33.61022484      17.15707434                           
I       -2.37206623      31.90183902      17.15707434                           
Cr1      0.00068777      31.76433843       9.03123330                           
Cr1     -3.43780324      33.74771402       9.03123376                           
I        0.98637175      29.77819248       7.48874545                           
I       -2.21259013      31.90183807       7.48890841                           
I       -5.65105832      33.61022756       7.48890841                           
I       -0.98722392      29.77819426      10.58202506                           
I       -1.22430589      33.61050765      10.57507890                           
I       -4.66277715      31.90155621      10.57507890                           
Cr      26.36106908       1.98615267      15.61475195                           
Cr      22.92257807       3.96948846      15.61475241                           
I       27.34898902      -0.00001318      14.06395847                           
I       24.14756114       2.12334657      14.07089707                           
I       20.70909295       3.83230774      14.07089707                           
I       25.37540115      -0.00001140      17.15723785                           
I       25.13584211       3.83201918      17.15707434                           
I       21.69737085       2.12363336      17.15707434                           
Cr1     24.07012485       1.98613277       9.03123330                           
Cr1     20.63163384       3.96950836       9.03123376                           
I       25.05580883      -0.00001318       7.48874545                           
I       21.85684694       2.12363241       7.48890841                           
I       18.41837875       3.83202190       7.48890841                           
I       23.08221316      -0.00001140      10.58202506                           
I       22.84513118       3.83230199      10.57507890                           
I       19.40665992       2.12335055      10.57507890                           
Cr      22.92257806       7.94179381      15.61475195                           
Cr      19.48408705       9.92512959      15.61475241                           
I       23.91049801       5.95562795      14.06395847                           
I       20.70907013       8.07898770      14.07089707                           
I       17.27060194       9.78794887      14.07089707                           
I       21.93691014       5.95562973      17.15723785                           
I       21.69735110       9.78766031      17.15707434                           
I       18.25887984       8.07927449      17.15707434                           
Cr1     20.63163384       7.94177390       9.03123330                           
Cr1     17.19314283       9.92514949       9.03123376                           
I       21.61731782       5.95562795       7.48874545                           
I       18.41835593       8.07927354       7.48890841                           
I       14.97988774       9.78766304       7.48890841                           
I       19.64372215       5.95562973      10.58202506                           
I       19.40664017       9.78794313      10.57507890                           
I       15.96816891       8.07899168      10.57507890                           
Cr      19.48408705      13.89743494      15.61475195                           
Cr      16.04559604      15.88077072      15.61475241                           
I       20.47200700      11.91126908      14.06395847                           
I       17.27057912      14.03462883      14.07089707                           
I       13.83211093      15.74359001      14.07089707                           
I       18.49841912      11.91127086      17.15723785                           
I       18.25886009      15.74330145      17.15707434                           
I       14.82038883      14.03491562      17.15707434                           
Cr1     17.19314283      13.89741504       9.03123330                           
Cr1     13.75465182      15.88079062       9.03123376                           
I       18.17882681      11.91126908       7.48874545                           
I       14.97986492      14.03491467       7.48890841                           
I       11.54139673      15.74330417       7.48890841                           
I       16.20523114      11.91127086      10.58202506                           
I       15.96814916      15.74358426      10.57507890                           
I       12.52967790      14.03463281      10.57507890                           
Cr      16.04559604      19.85307607      15.61475195                           
Cr      12.60710503      21.83641185      15.61475241                           
I       17.03351599      17.86691022      14.06395847                           
I       13.83208811      19.99026996      14.07089707                           
I       10.39361992      21.69923114      14.07089707                           
I       15.05992811      17.86691200      17.15723785                           
I       14.82036907      21.69894258      17.15707434                           
I       11.38189781      19.99055675      17.15707434                           
Cr1     13.75465181      19.85305617       9.03123330                           
Cr1     10.31616080      21.83643175       9.03123376                           
I       14.74033580      17.86691022       7.48874545                           
I       11.54137391      19.99055580       7.48890841                           
I        8.10290572      21.69894530       7.48890841                           
I       12.76674013      17.86691200      10.58202506                           
I       12.52965815      21.69922539      10.57507890                           
I        9.09118689      19.99027394      10.57507890                           
Cr      12.60710503      25.80871720      15.61475195                           
Cr       9.16861402      27.79205298      15.61475241                           
I       13.59502497      23.82255135      14.06395847                           
I       10.39359710      25.94591110      14.07089707                           
I        6.95512891      27.65487227      14.07089707                           
I       11.62143710      23.82255313      17.15723785                           
I       11.38187806      27.65458371      17.15707434                           
I        7.94340680      25.94619789      17.15707434                           
Cr1     10.31616080      25.80869730       9.03123330                           
Cr1      6.87766979      27.79207289       9.03123376                           
I       11.30184479      23.82255135       7.48874545                           
I        8.10288290      25.94619693       7.48890841                           
I        4.66441471      27.65458643       7.48890841                           
I        9.32824912      23.82255313      10.58202506                           
I        9.09116714      27.65486652      10.57507890                           
I        5.65269588      25.94591507      10.57507890                           
Cr       9.16861402      31.76435833      15.61475195                           
Cr       5.73012301      33.74769412      15.61475241                           
I       10.15653396      29.77819248      14.06395847                           
I        6.95510609      31.90155223      14.07089707                           
I        3.51663790      33.61051340      14.07089707                           
I        8.18294609      29.77819426      17.15723785                           
I        7.94338705      33.61022484      17.15707434                           
I        4.50491579      31.90183902      17.15707434                           
Cr1      6.87766979      31.76433843       9.03123330                           
Cr1      3.43917878      33.74771402       9.03123376                           
I        7.86335378      29.77819248       7.48874545                           
I        4.66439189      31.90183807       7.48890841                           
I        1.22592370      33.61022756       7.48890841                           
I        5.88975810      29.77819426      10.58202506                           
I        5.65267613      33.61050765      10.57507890                           
I        2.21420487      31.90155621      10.57507890                           
Cr      33.23805110       1.98615267      15.61475195                           
Cr      29.79956009       3.96948846      15.61475241                           
I       34.22597104      -0.00001318      14.06395847                           
I       31.02454317       2.12334657      14.07089707                           
I       27.58607498       3.83230774      14.07089707                           
I       32.25238317      -0.00001140      17.15723785                           
I       32.01282413       3.83201918      17.15707434                           
I       28.57435287       2.12363336      17.15707434                           
Cr1     30.94710687       1.98613277       9.03123330                           
Cr1     27.50861586       3.96950836       9.03123376                           
I       31.93279085      -0.00001318       7.48874545                           
I       28.73382897       2.12363241       7.48890841                           
I       25.29536078       3.83202190       7.48890841                           
I       29.95919518      -0.00001140      10.58202506                           
I       29.72211320       3.83230199      10.57507890                           
I       26.28364194       2.12335055      10.57507890                           
Cr      29.79956009       7.94179381      15.61475195                           
Cr      26.36106908       9.92512959      15.61475241                           
I       30.78748003       5.95562795      14.06395847                           
I       27.58605216       8.07898770      14.07089707                           
I       24.14758397       9.78794887      14.07089707                           
I       28.81389216       5.95562973      17.15723785                           
I       28.57433312       9.78766031      17.15707434                           
I       25.13586186       8.07927449      17.15707434                           
Cr1     27.50861586       7.94177390       9.03123330                           
Cr1     24.07012485       9.92514949       9.03123376                           
I       28.49429984       5.95562795       7.48874545                           
I       25.29533795       8.07927354       7.48890841                           
I       21.85686976       9.78766304       7.48890841                           
I       26.52070417       5.95562973      10.58202506                           
I       26.28362219       9.78794313      10.57507890                           
I       22.84515093       8.07899168      10.57507890                           
Cr      26.36106908      13.89743494      15.61475195                           
Cr      22.92257807      15.88077072      15.61475241                           
I       27.34898902      11.91126908      14.06395847                           
I       24.14756114      14.03462883      14.07089707                           
I       20.70909295      15.74359001      14.07089707                           
I       25.37540115      11.91127086      17.15723785                           
I       25.13584211      15.74330145      17.15707434                           
I       21.69737085      14.03491562      17.15707434                           
Cr1     24.07012485      13.89741504       9.03123330                           
Cr1     20.63163384      15.88079062       9.03123376                           
I       25.05580883      11.91126908       7.48874545                           
I       21.85684694      14.03491467       7.48890841                           
I       18.41837875      15.74330417       7.48890841                           
I       23.08221316      11.91127086      10.58202506                           
I       22.84513118      15.74358426      10.57507890                           
I       19.40665992      14.03463281      10.57507890                           
Cr      22.92257806      19.85307607      15.61475195                           
Cr      19.48408705      21.83641185      15.61475241                           
I       23.91049801      17.86691022      14.06395847                           
I       20.70907013      19.99026996      14.07089707                           
I       17.27060194      21.69923114      14.07089707                           
I       21.93691014      17.86691200      17.15723785                           
I       21.69735110      21.69894258      17.15707434                           
I       18.25887984      19.99055675      17.15707434                           
Cr1     20.63163384      19.85305617       9.03123330                           
Cr1     17.19314283      21.83643175       9.03123376                           
I       21.61731782      17.86691022       7.48874545                           
I       18.41835593      19.99055580       7.48890841                           
I       14.97988774      21.69894530       7.48890841                           
I       19.64372215      17.86691200      10.58202506                           
I       19.40664017      21.69922539      10.57507890                           
I       15.96816891      19.99027394      10.57507890                           
Cr      19.48408705      25.80871720      15.61475195                           
Cr      16.04559604      27.79205298      15.61475241                           
I       20.47200700      23.82255135      14.06395847                           
I       17.27057912      25.94591110      14.07089707                           
I       13.83211093      27.65487227      14.07089707                           
I       18.49841912      23.82255313      17.15723785                           
I       18.25886009      27.65458371      17.15707434                           
I       14.82038883      25.94619789      17.15707434                           
Cr1     17.19314283      25.80869730       9.03123330                           
Cr1     13.75465182      27.79207289       9.03123376                           
I       18.17882681      23.82255135       7.48874545                           
I       14.97986492      25.94619693       7.48890841                           
I       11.54139673      27.65458643       7.48890841                           
I       16.20523114      23.82255313      10.58202506                           
I       15.96814916      27.65486652      10.57507890                           
I       12.52967790      25.94591507      10.57507890                           
Cr      16.04559604      31.76435833      15.61475195                           
Cr      12.60710503      33.74769412      15.61475241                           
I       17.03351599      29.77819248      14.06395847                           
I       13.83208811      31.90155223      14.07089707                           
I       10.39361992      33.61051340      14.07089707                           
I       15.05992811      29.77819426      17.15723785                           
I       14.82036907      33.61022484      17.15707434                           
I       11.38189781      31.90183902      17.15707434                           
Cr1     13.75465181      31.76433843       9.03123330                           
Cr1     10.31616080      33.74771402       9.03123376                           
I       14.74033580      29.77819248       7.48874545                           
I       11.54137391      31.90183807       7.48890841                           
I        8.10290572      33.61022756       7.48890841                           
I       12.76674013      29.77819426      10.58202506                           
I       12.52965815      33.61050765      10.57507890                           
I        9.09118689      31.90155621      10.57507890                           
Cr      40.11503312       1.98615267      15.61475195                           
Cr      36.67654211       3.96948846      15.61475241                           
I       41.10295306      -0.00001318      14.06395847                           
I       37.90152519       2.12334657      14.07089707                           
I       34.46305700       3.83230774      14.07089707                           
I       39.12936519      -0.00001140      17.15723785                           
I       38.88980615       3.83201918      17.15707434                           
I       35.45133489       2.12363336      17.15707434                           
Cr1     37.82408889       1.98613277       9.03123330                           
Cr1     34.38559788       3.96950836       9.03123376                           
I       38.80977287      -0.00001318       7.48874545                           
I       35.61081099       2.12363241       7.48890841                           
I       32.17234280       3.83202190       7.48890841                           
I       36.83617720      -0.00001140      10.58202506                           
I       36.59909523       3.83230199      10.57507890                           
I       33.16062397       2.12335055      10.57507890                           
Cr      36.67654211       7.94179381      15.61475195                           
Cr      33.23805110       9.92512959      15.61475241                           
I       37.66446205       5.95562795      14.06395847                           
I       34.46303418       8.07898770      14.07089707                           
I       31.02456599       9.78794887      14.07089707                           
I       35.69087418       5.95562973      17.15723785                           
I       35.45131514       9.78766031      17.15707434                           
I       32.01284388       8.07927449      17.15707434                           
Cr1     34.38559788       7.94177390       9.03123330                           
Cr1     30.94710687       9.92514949       9.03123376                           
I       35.37128186       5.95562795       7.48874545                           
I       32.17231998       8.07927354       7.48890841                           
I       28.73385179       9.78766304       7.48890841                           
I       33.39768619       5.95562973      10.58202506                           
I       33.16060422       9.78794313      10.57507890                           
I       29.72213296       8.07899168      10.57507890                           
Cr      33.23805110      13.89743494      15.61475195                           
Cr      29.79956009      15.88077072      15.61475241                           
I       34.22597104      11.91126908      14.06395847                           
I       31.02454317      14.03462883      14.07089707                           
I       27.58607498      15.74359001      14.07089707                           
I       32.25238317      11.91127086      17.15723785                           
I       32.01282413      15.74330145      17.15707434                           
I       28.57435287      14.03491562      17.15707434                           
Cr1     30.94710687      13.89741504       9.03123330                           
Cr1     27.50861586      15.88079062       9.03123376                           
I       31.93279085      11.91126908       7.48874545                           
I       28.73382897      14.03491467       7.48890841                           
I       25.29536078      15.74330417       7.48890841                           
I       29.95919518      11.91127086      10.58202506                           
I       29.72211320      15.74358426      10.57507890                           
I       26.28364194      14.03463281      10.57507890                           
Cr      29.79956009      19.85307607      15.61475195                           
Cr      26.36106908      21.83641185      15.61475241                           
I       30.78748003      17.86691022      14.06395847                           
I       27.58605216      19.99026996      14.07089707                           
I       24.14758397      21.69923114      14.07089707                           
I       28.81389216      17.86691200      17.15723785                           
I       28.57433312      21.69894258      17.15707434                           
I       25.13586186      19.99055675      17.15707434                           
Cr1     27.50861586      19.85305617       9.03123330                           
Cr1     24.07012485      21.83643175       9.03123376                           
I       28.49429984      17.86691022       7.48874545                           
I       25.29533795      19.99055580       7.48890841                           
I       21.85686976      21.69894530       7.48890841                           
I       26.52070417      17.86691200      10.58202506                           
I       26.28362219      21.69922539      10.57507890                           
I       22.84515093      19.99027394      10.57507890                           
Cr      26.36106908      25.80871720      15.61475195                           
Cr      22.92257807      27.79205298      15.61475241                           
I       27.34898902      23.82255135      14.06395847                           
I       24.14756114      25.94591110      14.07089707                           
I       20.70909295      27.65487227      14.07089707                           
I       25.37540115      23.82255313      17.15723785                           
I       25.13584211      27.65458371      17.15707434                           
I       21.69737085      25.94619789      17.15707434                           
Cr1     24.07012485      25.80869730       9.03123330                           
Cr1     20.63163384      27.79207289       9.03123376                           
I       25.05580883      23.82255135       7.48874545                           
I       21.85684694      25.94619693       7.48890841                           
I       18.41837875      27.65458643       7.48890841                           
I       23.08221316      23.82255313      10.58202506                           
I       22.84513118      27.65486652      10.57507890                           
I       19.40665992      25.94591507      10.57507890                           
Cr      22.92257806      31.76435833      15.61475195                           
Cr      19.48408705      33.74769412      15.61475241                           
I       23.91049801      29.77819248      14.06395847                           
I       20.70907013      31.90155223      14.07089707                           
I       17.27060194      33.61051340      14.07089707                           
I       21.93691014      29.77819426      17.15723785                           
I       21.69735110      33.61022484      17.15707434                           
I       18.25887984      31.90183902      17.15707434                           
Cr1     20.63163384      31.76433843       9.03123330                           
Cr1     17.19314283      33.74771402       9.03123376                           
I       21.61731782      29.77819248       7.48874545                           
I       18.41835593      31.90183807       7.48890841                           
I       14.97988774      33.61022756       7.48890841                           
I       19.64372215      29.77819426      10.58202506                           
I       19.40664017      33.61050765      10.57507890                           
I       15.96816891      31.90155621      10.57507890                           
%ENDBLOCK POSITIONS_ABS                                                         
%BLOCK SPECIES                                                                  
Cr Cr 24 -1 15                                                                  
I   I  53 -1 15                                                                 
Cr1 Cr 24 -1 15                                                                 
%ENDBLOCK SPECIES                                                               
%BLOCK SPECIES_ATOMIC_SET                                                       
Cr "SOLVE INIT SPIN=3"                                                          
I   "SOLVE"                                                                     
Cr1 "SOLVE INIT SPIN=-3"                                                        
%ENDBLOCK SPECIES_ATOMIC_SET                                                    
%BLOCK HUBBARD                                                                  
Cr  2 2.97 0.37 -10.0 0.00 0.0                                                  
Cr1 2 2.97 0.37 -10.0 0.00 0.0                                                  
%ENDBLOCK HUBBARD                                                               
%BLOCK SPECIES_LDOS_GROUPS                                                      
Cr                                                                              
I                                                                               
Cr1                                                                             
%ENDBLOCK SPECIES_LDOS_GROUPS                                                   
%BLOCK SPECIES_POT                                                              
Cr  "../../../../Cr.PBE-paw.abinit"                                             
I   "../../../../I.PBE-paw.abinit"                                              
Cr1 "../../../../Cr.PBE-paw.abinit"                                             
%ENDBLOCK SPECIES_POT                                                           

--------------------------------------------------------------------------------
-------------------------------- END INPUT FILE --------------------------------
--------------------------------------------------------------------------------


 
 ESDF WARNING(1): "charge" (esdf_physical) has no units. Assume "e".
<<<<<<<<<<<<<<<<<<<<<<<<<<<<<<<<< Full system >>>>>>>>>>>>>>>>>>>>>>>>>>>>>>>>>>
<<<<<<<<<<<<<<<<<<<<<<<<<<< PAW Dataset information >>>>>>>>>>>>>>>>>>>>>>>>>>>
File: ../../../../Cr.PBE-paw.abinit; rc = 2.11 bohr; shape type =  2; rshape = 1.80 bohr;
  Atomic number: 24;  ionic charge: 14.000000
    Partial Wave 1: l = 0
    Partial Wave 2: l = 0
    Partial Wave 3: l = 1
    Partial Wave 4: l = 1
    Partial Wave 5: l = 2
    Partial Wave 6: l = 2
  Core charge supplied for Nonlinear Core Corrections
File: ../../../../I.PBE-paw.abinit; rc = 2.30 bohr; shape type =  2; rshape = 2.11 bohr;
  Atomic number: 53;  ionic charge:  7.000000
    Partial Wave 1: l = 0
    Partial Wave 2: l = 0
    Partial Wave 3: l = 1
    Partial Wave 4: l = 1
  Core charge supplied for Nonlinear Core Corrections
<<<<<<<<<<<<<<<<<<<<<<<<<<<<<<<<<<<<<<< >>>>>>>>>>>>>>>>>>>>>>>>>>>>>>>>>>>>>>>

-------------------------- Atom counting information ---------------------------
Symbol    Natoms    Nngwfs    Nprojs
  Cr       144      1872      2592
  I        432      1728      3456
.......   ......    ......    ......
Totals:    576      3600      6048
--------------------------------------------------------------------------------

=============================== PSINC grid sizes ===============================
                      Simulation cell:  175 x 175 x 117
                              FFT-box:  175 x 175 x 117
                                  PPD:    5 x   5 x   1
Grid space d1=  0.445563862424a0 (KE cutoff=  38.26345Eh =1041.20135eV)
Grid space d2=  0.445563862400a0 (KE cutoff=  38.26345Eh =1041.20135eV)
Grid space d3=  0.444294449711a0 (KE cutoff=  38.48241Eh =1047.15957eV)
================================================================================

********************* Fourier parallelisation information **********************
       Coarse grid (whole simulation cell) dimensions:    175   175   117
          Real-space ('12') slabs/proc (min max mean):      0     1     0
         Recip-space ('23') slabs/proc (min max mean):      0     1     0
********************************************************************************

********************* Fourier parallelisation information **********************
       Double grid (whole simulation cell) dimensions:    350   350   234
          Real-space ('12') slabs/proc (min max mean):      1     2     1
         Recip-space ('23') slabs/proc (min max mean):      1     2     1
********************************************************************************

********************* Fourier parallelisation information **********************
         Fine grid (whole simulation cell) dimensions:    700   700   468
          Real-space ('12') slabs/proc (min max mean):      3     4     3
         Recip-space ('23') slabs/proc (min max mean):      2     3     2
********************************************************************************
energy_and_force_init_cell: WARNING in internal_setup_spin:
        even number of electrons in cell and zero spin
        but continuing with spin-polarised calculation

Atom SCF Calculation for Cr : Z (AE atom) =  24 : Z (PS atom) =  14
Config String: 3s2.0 3p6.0 3d5.0 4s1.0 4p0.0 INIT SPIN=3
Orbitals (num,occ):  5     2.00 6.00 5.00 1.00 0.00
Orbitals   (num,l):  5        0    1    2    0    1
Atom SCF converged after  64 iterations to a total energy of    -87.07044631
Adjusting orbital occupancies:
Orbitals (num,spin,occ):  5  1     1.00 3.00 3.50 1.00 0.00
Orbitals   (num,spin,l):  5  1        0    1    2    0    1
Orbitals (num,spin,occ):  5  2     1.00 3.00 1.00 0.50 0.00
Orbitals   (num,spin,l):  5  2        0    1    2    0    1

Atom SCF Calculation for I  : Z (AE atom) =  53 : Z (PS atom) =   7
Config String: 5s2.0 5p5.0
Orbitals (num,occ):  2     2.00 5.00
Orbitals   (num,l):  2        0    1
Atom SCF converged after  28 iterations to a total energy of    -11.61352964

Atom SCF Calculation for Cr : Z (AE atom) =  24 : Z (PS atom) =  14
Config String: 3s2.0 3p6.0 3d5.0 4s1.0 4p0.0 INIT SPIN=-3
Orbitals (num,occ):  5     2.00 6.00 5.00 1.00 0.00
Orbitals   (num,l):  5        0    1    2    0    1
Atom SCF converged after  64 iterations to a total energy of    -87.07044631
Adjusting orbital occupancies:
Orbitals (num,spin,occ):  5  1     1.00 3.00 1.00 0.50 0.00
Orbitals   (num,spin,l):  5  1        0    1    2    0    1
Orbitals (num,spin,occ):  5  2     1.00 3.00 3.50 1.00 0.00
Orbitals   (num,spin,l):  5  2        0    1    2    0    1

Atom SCF Calculation for Cr : Z (AE atom) =  24 : Z (PS atom) =  14
Config String: 3s2.0 3p6.0 3d5.0 4s1.0 4p0.0 INIT SPIN=3
Orbitals (num,occ):  5     2.00 6.00 5.00 1.00 0.00
Orbitals   (num,l):  5        0    1    2    0    1
Atom SCF converged after  64 iterations to a total energy of    -87.07044631

Atom SCF Calculation for I  : Z (AE atom) =  53 : Z (PS atom) =   7
Config String: 5s2.0 5p5.0
Orbitals (num,occ):  2     2.00 5.00
Orbitals   (num,l):  2        0    1
Atom SCF converged after  28 iterations to a total energy of    -11.61352964

Atom SCF Calculation for Cr : Z (AE atom) =  24 : Z (PS atom) =  14
Config String: 3s2.0 3p6.0 3d5.0 4s1.0 4p0.0 INIT SPIN=-3
Orbitals (num,occ):  5     2.00 6.00 5.00 1.00 0.00
Orbitals   (num,l):  5        0    1    2    0    1
Atom SCF converged after  64 iterations to a total energy of    -87.07044631

Determining parallel strategy ...... done
Calculating Ewald energy ...            31475.177180 Hartree
Basis initialisation ...
... done

============================= Charge Augmentation ==============================
                           Aug box size:   49 x  49 x  45
================================================================================
Sparse matrix initialisation ...
 done
NGWF initialisation ... done
 done

================================= Core Density =================================
               Core den box size:  125 x 125 x 105
================================================================================
Density kernel initialisation

--------------------------- Ensemble-DFT optimisation --------------------------
Running ScaLAPACK on  150 processor(s).
With smearing scheme: FERMIDIRAC                                                                      

--------------------------------------------------------------------------------
  Iter                              Commutator    Free_energy(A=E-TS)     DeltaA
#    0                          0.006241025852  -17452.82437872405720  -1.75E+04
#    1                          0.001682165802  -17596.63988837686700  -1.44E+02
#    2                          0.000304774296  -17612.07638480016610  -1.54E+01
#    3                          0.000164689359  -17612.64674748831380  -5.70E-01
#    4                          0.000183008253  -17613.01510213648000  -3.68E-01
#    5                          0.000091580703  -17613.22652313503200  -2.11E-01
#    6                          0.000109688920  -17613.35420108573820  -1.28E-01
#    7                          0.000052081130  -17613.43305099855210  -7.88E-02
#    8                          0.000064033691  -17613.47961637550910  -4.66E-02
#    9                          0.000032966843  -17613.50857894348160  -2.90E-02
#   10                          0.000039419522  -17613.52586612926100  -1.73E-02
#   11                          0.000022783089  -17613.53821499227710  -1.23E-02
#   12                          0.000025402373  -17613.54559987399260  -7.38E-03
#   13                          0.000017291073  -17613.55143412668990  -5.83E-03
#   14                          0.000017194768  -17613.55490486444610  -3.47E-03
#   15                          0.000013686731  -17613.55792872071110  -3.02E-03
Finished EDFT density kernel iterations (  15)


Writing density kernel to file "Cr2I6_bilayer_HT_AFM_AFM_SP.dkn" ... done

Writing Hamiltonian to file "Cr2I6_bilayer_HT_AFM_AFM_SP.ham" ... done

Writing density kernel to file "Cr2I6_bilayer_HT_AFM_AFM_SP.dkn" ... done

>>> Optimising kernel for current NGWFs:
   iter  |      energy (Eh)       | rms gradient |  commutator  |   dE (Eh)
    1        -1.761355720812E+04     2.6092E-05     1.3178E-05
    2        -1.761355867828E+04     3.2771E-05     1.6552E-05    -1.4702E-03
    3        -1.761356020469E+04     4.1823E-05     2.1124E-05    -1.5264E-03
    4        -1.761356177040E+04     6.1491E-05     3.1057E-05    -1.5657E-03
    5        -1.761356240400E+04     5.4257E-05     2.7404E-05    -6.3360E-04
Finished density kernel iterations (   5)

Writing density kernel to file "Cr2I6_bilayer_HT_AFM_AFM_SP.dkn" ... done


>>> Density kernel optimised for the current NGWF basis:
     ~~~~~~~~~~~~~~~~~~~~~~~~~~~~~~~~~~~~~~~~~~~~~~~~~~~~~~~~~~~
     Total energy                =  -1.76135624040017E+04  Eh
     Estimated bandgap (UP spin) =   4.0286E-02  Eh
     Estimated bandgap (DN spin) =   4.0445E-02  Eh
     RMS occupancy error         =   4.2054E-10
     [H,K] commutator            =   2.7404E-05
     UP spin occupancy bounds    = [ -0.000:  1.000]
     DN spin occupancy bounds    = [ -0.000:  1.000]
     ~~~~~~~~~~~~~~~~~~~~~~~~~~~~~~~~~~~~~~~~~~~~~~~~~~~~~~~~~~~




################################################################################
########################### NGWF CG iteration  001 #############################
################################################################################

>>> Checking for convergence of NGWFs:   NOT CONVERGED
  ========================================================================
         NGWF RMS gradient =  9.9056E-05 >  1.0000E-06  | above tolerance
  ========================================================================

>>> Improving NGWFs using line search:
  ========================================================================
   Predicted total energy    =      -1.76214307420254E+04 Eh
   Predicted gain in energy  =      -7.86833802364708E+00 Eh
  ========================================================================

Writing NGWFs to file "Cr2I6_bilayer_HT_AFM_AFM_SP.tightbox_ngwfs".... done

>>> Optimising kernel for current NGWFs:
   iter  |      energy (Eh)       | rms gradient |  commutator  |   dE (Eh)
    1        -1.762141430366E+04     5.2563E-04     2.6548E-04
    2        -1.762178511648E+04     2.0770E-04     1.0490E-04    -3.7081E-01
    3        -1.762182307674E+04     9.4255E-05     4.7606E-05    -3.7960E-02
    4        -1.762183496776E+04     6.4762E-05     3.2710E-05    -1.1891E-02
    5        -1.762184181394E+04     3.0945E-05     1.5630E-05    -6.8462E-03
Finished density kernel iterations (   5)

Writing density kernel to file "Cr2I6_bilayer_HT_AFM_AFM_SP.dkn" ... done


>>> Density kernel optimised for the current NGWF basis:
     ~~~~~~~~~~~~~~~~~~~~~~~~~~~~~~~~~~~~~~~~~~~~~~~~~~~~~~~~~~~
     Total energy                =  -1.76218418139351E+04  Eh
     Estimated bandgap (UP spin) =   4.6336E-02  Eh
     Estimated bandgap (DN spin) =   4.6320E-02  Eh
     RMS occupancy error         =   8.5490E-10
     [H,K] commutator            =   1.5630E-05
     UP spin occupancy bounds    = [ -0.000:  1.000]
     DN spin occupancy bounds    = [ -0.000:  1.000]
     ~~~~~~~~~~~~~~~~~~~~~~~~~~~~~~~~~~~~~~~~~~~~~~~~~~~~~~~~~~~




################################################################################
########################### NGWF CG iteration  002 #############################
################################################################################

>>> Checking for convergence of NGWFs:   NOT CONVERGED
  ========================================================================
         NGWF RMS gradient =  6.7274E-05 >  1.0000E-06  | above tolerance
  Maximum change in energy =  1.4374E-02 >  1.0000E-07  | above tolerance
  ========================================================================

>>> Improving NGWFs using line search:
  ========================================================================
   Predicted total energy    =      -1.76243568535309E+04 Eh
   Predicted gain in energy  =      -2.51503959578986E+00 Eh
  ========================================================================

Writing NGWFs to file "Cr2I6_bilayer_HT_AFM_AFM_SP.tightbox_ngwfs".... done

>>> Optimising kernel for current NGWFs:
   iter  |      energy (Eh)       | rms gradient |  commutator  |   dE (Eh)
    1        -1.762434823480E+04     1.7984E-04     9.0834E-05
    2        -1.762439844289E+04     4.5708E-05     2.3086E-05    -5.0208E-02
    3        -1.762440300783E+04     4.8872E-05     2.4684E-05    -4.5649E-03
    4        -1.762440634734E+04     2.7982E-05     1.4133E-05    -3.3395E-03
    5        -1.762440739832E+04     2.1136E-05     1.0675E-05    -1.0510E-03
Finished density kernel iterations (   5)

Writing density kernel to file "Cr2I6_bilayer_HT_AFM_AFM_SP.dkn" ... done


>>> Density kernel optimised for the current NGWF basis:
     ~~~~~~~~~~~~~~~~~~~~~~~~~~~~~~~~~~~~~~~~~~~~~~~~~~~~~~~~~~~
     Total energy                =  -1.76244073983158E+04  Eh
     Estimated bandgap (UP spin) =   4.5441E-02  Eh
     Estimated bandgap (DN spin) =   4.5551E-02  Eh
     RMS occupancy error         =   1.1121E-10
     [H,K] commutator            =   1.0675E-05
     UP spin occupancy bounds    = [  0.000:  1.000]
     DN spin occupancy bounds    = [  0.000:  1.000]
     ~~~~~~~~~~~~~~~~~~~~~~~~~~~~~~~~~~~~~~~~~~~~~~~~~~~~~~~~~~~




################################################################################
########################### NGWF CG iteration  003 #############################
################################################################################

>>> Checking for convergence of NGWFs:   NOT CONVERGED
  ========================================================================
         NGWF RMS gradient =  4.1656E-05 >  1.0000E-06  | above tolerance
  Maximum change in energy =  1.4374E-02 >  1.0000E-07  | above tolerance
  ========================================================================

>>> Improving NGWFs using line search:
  ========================================================================
   Predicted total energy    =      -1.76254881794784E+04 Eh
   Predicted gain in energy  =      -1.08078116258548E+00 Eh
  ========================================================================

Writing NGWFs to file "Cr2I6_bilayer_HT_AFM_AFM_SP.tightbox_ngwfs".... done

>>> Optimising kernel for current NGWFs:
   iter  |      energy (Eh)       | rms gradient |  commutator  |   dE (Eh)
    1        -1.762547756161E+04     1.8744E-04     9.4674E-05
    2        -1.762551632923E+04     9.1118E-05     4.6021E-05    -3.8768E-02
    3        -1.762552330414E+04     3.3223E-05     1.6780E-05    -6.9749E-03
    4        -1.762552494561E+04     2.3671E-05     1.1955E-05    -1.6415E-03
    5        -1.762552609821E+04     1.5368E-05     7.7621E-06    -1.1526E-03
Finished density kernel iterations (   5)

Writing density kernel to file "Cr2I6_bilayer_HT_AFM_AFM_SP.dkn" ... done


>>> Density kernel optimised for the current NGWF basis:
     ~~~~~~~~~~~~~~~~~~~~~~~~~~~~~~~~~~~~~~~~~~~~~~~~~~~~~~~~~~~
     Total energy                =  -1.76255260982126E+04  Eh
     Estimated bandgap (UP spin) =   4.4974E-02  Eh
     Estimated bandgap (DN spin) =   4.5001E-02  Eh
     RMS occupancy error         =   5.1655E-11
     [H,K] commutator            =   7.7621E-06
     UP spin occupancy bounds    = [  0.000:  1.000]
     DN spin occupancy bounds    = [  0.000:  1.000]
     ~~~~~~~~~~~~~~~~~~~~~~~~~~~~~~~~~~~~~~~~~~~~~~~~~~~~~~~~~~~




################################################################################
########################### NGWF CG iteration  004 #############################
################################################################################

>>> Checking for convergence of NGWFs:   NOT CONVERGED
  ========================================================================
         NGWF RMS gradient =  3.0134E-05 >  1.0000E-06  | above tolerance
  Maximum change in energy =  4.4541E-03 >  1.0000E-07  | above tolerance
  ========================================================================

>>> Improving NGWFs using line search:
  ========================================================================
   Predicted total energy    =      -1.76261257814225E+04 Eh
   Predicted gain in energy  =      -5.99683209893556E-01 Eh
  ========================================================================

Writing NGWFs to file "Cr2I6_bilayer_HT_AFM_AFM_SP.tightbox_ngwfs".... done

>>> Optimising kernel for current NGWFs:
   iter  |      energy (Eh)       | rms gradient |  commutator  |   dE (Eh)
    1        -1.762611459997E+04     6.5668E-05     3.3168E-05
    2        -1.762612168970E+04     3.3697E-05     1.7019E-05    -7.0897E-03
    3        -1.762612308611E+04     2.6025E-05     1.3145E-05    -1.3964E-03
    4        -1.762612430097E+04     1.6840E-05     8.5056E-06    -1.2149E-03
    5        -1.762612466290E+04     1.0548E-05     5.3274E-06    -3.6193E-04
Finished density kernel iterations (   5)

Writing density kernel to file "Cr2I6_bilayer_HT_AFM_AFM_SP.dkn" ... done


>>> Density kernel optimised for the current NGWF basis:
     ~~~~~~~~~~~~~~~~~~~~~~~~~~~~~~~~~~~~~~~~~~~~~~~~~~~~~~~~~~~
     Total energy                =  -1.76261246628977E+04  Eh
     Estimated bandgap (UP spin) =   4.3591E-02  Eh
     Estimated bandgap (DN spin) =   4.3626E-02  Eh
     RMS occupancy error         =   2.3902E-11
     [H,K] commutator            =   5.3274E-06
     UP spin occupancy bounds    = [  0.000:  1.000]
     DN spin occupancy bounds    = [  0.000:  1.000]
     ~~~~~~~~~~~~~~~~~~~~~~~~~~~~~~~~~~~~~~~~~~~~~~~~~~~~~~~~~~~




################################################################################
########################### NGWF CG iteration  005 #############################
################################################################################

>>> Checking for convergence of NGWFs:   NOT CONVERGED
  ========================================================================
         NGWF RMS gradient =  2.1330E-05 >  1.0000E-06  | above tolerance
  Maximum change in energy =  1.9422E-03 >  1.0000E-07  | above tolerance
  ========================================================================

>>> Improving NGWFs using line search:
  ========================================================================
   Predicted total energy    =      -1.76262979357935E+04 Eh
   Predicted gain in energy  =      -1.73272895786795E-01 Eh
  ========================================================================

Writing NGWFs to file "Cr2I6_bilayer_HT_AFM_AFM_SP.tightbox_ngwfs".... done

>>> Optimising kernel for current NGWFs:
   iter  |      energy (Eh)       | rms gradient |  commutator  |   dE (Eh)
    1        -1.762629727877E+04     9.0358E-06     4.5638E-06
    2        -1.762629747355E+04     1.7404E-05     8.7902E-06    -1.9478E-04
    3        -1.762629771549E+04     1.6151E-05     8.1576E-06    -2.4194E-04
    4        -1.762629789701E+04     1.1379E-05     5.7472E-06    -1.8152E-04
    5        -1.762629801246E+04     1.6696E-05     8.4329E-06    -1.1545E-04
Finished density kernel iterations (   5)

Writing density kernel to file "Cr2I6_bilayer_HT_AFM_AFM_SP.dkn" ... done


>>> Density kernel optimised for the current NGWF basis:
     ~~~~~~~~~~~~~~~~~~~~~~~~~~~~~~~~~~~~~~~~~~~~~~~~~~~~~~~~~~~
     Total energy                =  -1.76262980124617E+04  Eh
     Estimated bandgap (UP spin) =   4.3237E-02  Eh
     Estimated bandgap (DN spin) =   4.3110E-02  Eh
     RMS occupancy error         =   7.7822E-11
[...]
*    I     438     -0.00612333  -0.00000095   0.01064397 *
*    I     439      0.00302600   0.00536955   0.01066531 *
*    I     440      0.00302980  -0.00538622   0.01066023 *
*    Cr    441      0.00001749  -0.00021410  -0.00005238 *
*    Cr    442      0.00000029   0.00018752  -0.00005094 *
*    I     443      0.00611857   0.00000387  -0.01064260 *
*    I     444     -0.00302555  -0.00536735  -0.01066277 *
*    I     445     -0.00303687   0.00538036  -0.01065775 *
*    I     446     -0.00599119  -0.00000623   0.00881591 *
*    I     447      0.00322127   0.00540687   0.00802224 *
*    I     448      0.00322395  -0.00543231   0.00801902 *
*    Cr    449      0.00006997  -0.00015599   0.00006052 *
*    Cr    450     -0.00002622   0.00019184   0.00005408 *
*    I     451      0.00598704   0.00000729  -0.00881673 *
*    I     452     -0.00322129  -0.00540608  -0.00802469 *
*    I     453     -0.00323250   0.00542779  -0.00801867 *
*    I     454     -0.00612317  -0.00000086   0.01064361 *
*    I     455      0.00302610   0.00536929   0.01066522 *
*    I     456      0.00303026  -0.00538518   0.01065909 *
*    Cr    457      0.00001405  -0.00019469  -0.00005473 *
*    Cr    458      0.00000716   0.00019174  -0.00005807 *
*    I     459      0.00611904   0.00000654  -0.01064398 *
*    I     460     -0.00302663  -0.00536715  -0.01066301 *
*    I     461     -0.00303511   0.00538394  -0.01065886 *
*    I     462     -0.00599112  -0.00000593   0.00881641 *
*    I     463      0.00322027   0.00540598   0.00802287 *
*    I     464      0.00322620  -0.00542884   0.00801742 *
*    Cr    465      0.00006731  -0.00015504   0.00006030 *
*    Cr    466      0.00006530   0.00014226   0.00005630 *
*    I     467      0.00598843   0.00001002  -0.00881672 *
*    I     468     -0.00321977  -0.00540735  -0.00802578 *
*    I     469     -0.00323059   0.00543023  -0.00801908 *
*    I     470     -0.00612468  -0.00000393   0.01064481 *
*    I     471      0.00302741   0.00536916   0.01066668 *
*    I     472      0.00302892  -0.00538870   0.01066156 *
*    Cr    473      0.00001827  -0.00019706  -0.00005247 *
*    Cr    474      0.00000015   0.00020116  -0.00005372 *
*    I     475      0.00612132   0.00000735  -0.01064415 *
*    I     476     -0.00302672  -0.00536706  -0.01066399 *
*    I     477     -0.00303477   0.00538560  -0.01065859 *
*    I     478     -0.00598944  -0.00000407   0.00881503 *
*    I     479      0.00322037   0.00540526   0.00802344 *
*    I     480      0.00322703  -0.00542707   0.00801676 *
*    Cr    481     -0.00001957  -0.00019828   0.00005108 *
*    Cr    482      0.00007006   0.00013678   0.00005747 *
*    I     483      0.00598920   0.00000983  -0.00881666 *
*    I     484     -0.00322014  -0.00540605  -0.00802641 *
*    I     485     -0.00323134   0.00543020  -0.00802018 *
*    I     486     -0.00612366  -0.00000016   0.01064185 *
*    I     487      0.00302619   0.00536551   0.01066415 *
*    I     488      0.00303218  -0.00538518   0.01066196 *
*    Cr    489      0.00001629  -0.00019132  -0.00005064 *
*    Cr    490      0.00000512   0.00020484  -0.00005136 *
*    I     491      0.00611874   0.00000306  -0.01064264 *
*    I     492     -0.00302596  -0.00536682  -0.01066303 *
*    I     493     -0.00303772   0.00538157  -0.01065900 *
*    I     494     -0.00598854  -0.00000477   0.00881470 *
*    I     495      0.00322081   0.00540471   0.00802293 *
*    I     496      0.00322542  -0.00543061   0.00801789 *
*    Cr    497     -0.00000958  -0.00020000   0.00005479 *
*    Cr    498     -0.00002197   0.00019513   0.00005519 *
*    I     499      0.00598791   0.00000853  -0.00881711 *
*    I     500     -0.00322013  -0.00540770  -0.00802447 *
*    I     501     -0.00323318   0.00542964  -0.00801993 *
*    I     502     -0.00612304   0.00000056   0.01064343 *
*    I     503      0.00302568   0.00536541   0.01066377 *
*    I     504      0.00302931  -0.00538540   0.01065707 *
*    Cr    505      0.00001634  -0.00018039  -0.00005827 *
*    Cr    506     -0.00000127   0.00020558  -0.00005142 *
*    I     507      0.00611977   0.00000224  -0.01064378 *
*    I     508     -0.00302602  -0.00536653  -0.01066370 *
*    I     509     -0.00303849   0.00538096  -0.01065826 *
*    I     510     -0.00599068  -0.00000558   0.00881536 *
*    I     511      0.00322035   0.00540407   0.00802333 *
*    I     512      0.00322644  -0.00543002   0.00801733 *
*    Cr    513     -0.00000684  -0.00020735   0.00005649 *
*    Cr    514     -0.00002501   0.00020765   0.00005437 *
*    I     515      0.00598541   0.00000792  -0.00881336 *
*    I     516     -0.00322046  -0.00540720  -0.00802438 *
*    I     517     -0.00323459   0.00542749  -0.00801981 *
*    I     518     -0.00612476  -0.00000113   0.01064400 *
*    I     519      0.00302572   0.00536739   0.01066357 *
*    I     520      0.00302846  -0.00538720   0.01066089 *
*    Cr    521      0.00000258  -0.00017923  -0.00005092 *
*    Cr    522      0.00002737   0.00019997  -0.00005659 *
*    I     523      0.00611857   0.00000364  -0.01064330 *
*    I     524     -0.00302690  -0.00536706  -0.01066453 *
*    I     525     -0.00303899   0.00538257  -0.01065830 *
*    I     526     -0.00599215  -0.00000781   0.00881682 *
*    I     527      0.00322002   0.00540533   0.00802413 *
*    I     528      0.00322463  -0.00543255   0.00801844 *
*    Cr    529     -0.00001144  -0.00022800   0.00005591 *
*    Cr    530     -0.00002895   0.00018726   0.00005115 *
*    I     531      0.00598402   0.00000758  -0.00881599 *
*    I     532     -0.00322095  -0.00540636  -0.00802505 *
*    I     533     -0.00323249   0.00542808  -0.00802057 *
*    I     534     -0.00612365  -0.00000117   0.01064504 *
*    I     535      0.00302566   0.00536685   0.01066484 *
*    I     536      0.00302867  -0.00538618   0.01066007 *
*    Cr    537      0.00002045  -0.00021103  -0.00005157 *
*    Cr    538      0.00001066   0.00019154  -0.00005635 *
*    I     539      0.00612173   0.00000550  -0.01064499 *
*    I     540     -0.00302598  -0.00536742  -0.01066334 *
*    I     541     -0.00303611   0.00538596  -0.01065931 *
*    I     542     -0.00599206  -0.00000673   0.00881754 *
*    I     543      0.00321976   0.00540496   0.00802215 *
*    I     544      0.00322440  -0.00543080   0.00801700 *
*    Cr    545     -0.00001139  -0.00021126   0.00005357 *
*    Cr    546     -0.00002975   0.00018731   0.00005055 *
*    I     547      0.00598650   0.00001129  -0.00881679 *
*    I     548     -0.00322205  -0.00540533  -0.00802439 *
*    I     549     -0.00323117   0.00542903  -0.00801968 *
*    I     550     -0.00612496  -0.00000430   0.01064506 *
*    I     551      0.00302664   0.00536762   0.01066442 *
*    I     552      0.00302729  -0.00538837   0.01066094 *
*    Cr    553      0.00002478  -0.00019628  -0.00005392 *
*    Cr    554      0.00000358   0.00019177  -0.00004955 *
*    I     555      0.00612062   0.00000783  -0.01064385 *
*    I     556     -0.00302672  -0.00536687  -0.01066411 *
*    I     557     -0.00303554   0.00538619  -0.01065919 *
*    I     558     -0.00598918  -0.00000248   0.00881430 *
*    I     559      0.00321968   0.00540528   0.00802338 *
*    I     560      0.00322541  -0.00542837   0.00801602 *
*    Cr    561     -0.00001559  -0.00020197   0.00004841 *
*    Cr    562     -0.00003145   0.00018927   0.00005180 *
*    I     563      0.00598748   0.00001095  -0.00881618 *
*    I     564     -0.00322130  -0.00540538  -0.00802471 *
*    I     565     -0.00323063   0.00543243  -0.00802185 *
*    I     566     -0.00612331  -0.00000243   0.01064309 *
*    I     567      0.00302559   0.00536694   0.01066402 *
*    I     568      0.00303055  -0.00538420   0.01065924 *
*    Cr    569      0.00002143  -0.00019403  -0.00004957 *
*    Cr    570      0.00000370   0.00020066  -0.00005046 *
*    I     571      0.00611817   0.00000585  -0.01064334 *
*    I     572     -0.00302613  -0.00536581  -0.01066319 *
*    I     573     -0.00303551   0.00538225  -0.01065819 *
*    I     574     -0.00598988  -0.00000325   0.00881621 *
*    I     575      0.00322054   0.00540632   0.00802215 *
*    I     576      0.00322702  -0.00542812   0.00801764 *
*                                                        *
**********************************************************
* TOTAL:            0.00000000  -0.00000000  -0.00000000 *
**********************************************************
 
 
***********************************************************
********** Summary of Forces (values in Eh/a) *************
*                                                         *
* ---------------------- Minimum ------------------------ *
* Atom:       354, |F|min =    0.00016110                 *
* Components:     Fx|min       Fy|min       Fz|min        *
*               0.00006026   0.00013939   0.00005380      *
*                                                         *
* ---------------------- Maximum ------------------------ *
* Atom:       472, |F|max =    0.01232402                 *
* Components:     Fx|max       Fy|max       Fz|max        *
*               0.00302892  -0.00538870   0.01066156      *
*                                                         *
* ---------------- Root Mean Square Force --------------- *
*                  |F|rms =    0.00984942                 *
* Components:     Fx|rms       Fy|rms       Fz|rms        *
*               0.00374986   0.00381732   0.00826909      *
***********************************************************
 

------------------------------ TIMING INFORMATION ------------------------------
AVERAGE TIME:   63296.402s on    150 proc(s)                                    
TOTAL TIME:     63296.403s on    150 proc(s)                                    
==================== AVERAGE TIMINGS FROM ALL PROCS (CUMULATIVE) =====================
|| TAG                                         #calls     cpu time   %total  Gflops ||
|| linalg_dsyev_lt                            :     1        0.00s   0.000%  ------ || (1 procs only)
|| hubbard_species_proj                       :     1        0.00s   0.000%  ------ ||
|| sw_bessel_init_cpu                         :     1        0.01s   0.000%  ------ || (1 procs only)
|| onetep.F90 main loop imbalance             :     1        0.00s   0.000%  ------ ||
|| hash_table_free                            :    77        0.00s   0.000%  ------ ||
|| hubbard_projector_character                :     1        0.00s   0.000%  ------ ||
|| hubbard_ngwf_select                        :     1        0.00s   0.000%  ------ ||
|| ewald_calculate_forces_realspace           :     1        0.00s   0.000%  ------ ||
|| hubbard_ngwf_on_grid                       :     1        0.00s   0.000%  ------ ||
|| density_fftbox_interp_mult_imbal           : 40450        0.00s   0.000%  ------ ||
|| onetep.F90 final imbalance                 :     1        0.00s   0.000%  ------ ||
|| linalg_dgemv                               :    29        0.02s   0.000%  ------ ||
|| linalg_invert_sym_matrix                   :     2        0.03s   0.000%  ------ || (144 procs only)
|| hubbard_tensorial_correction               :     2        0.03s   0.000%  ------ ||
|| ewald_calculate_energy                     :     1        0.04s   0.000%  ------ ||
|| sparse_set_to_garbage                      :  1147        0.05s   0.000%  ------ ||
|| ewald_calculate_forces_recipspace          :     1        0.06s   0.000%  ------ ||
|| ewald_calculate_forces                     :     1        0.06s   0.000%  ------ ||
|| sparse_spam3toblacs_real_fast_imbal        :   206        0.08s   0.000%  ------ ||
|| sw_init                                    :  1617        0.08s   0.000%  ------ ||
|| sparse_blacstospam3_real_fast_imbal        :   220        0.10s   0.000%  ------ ||
|| pseudo_make_structure_factor               :     1        0.15s   0.000%  ------ ||
|| paw_dij_hartree                            :   859        0.20s   0.000%  ------ ||
|| augmentation_density_forces                :     1        0.23s   0.000%  ------ ||
|| hubbard_projection_mtx                     :    79        0.40s   0.001%  ------ ||
|| restart_hamiltonian_write                  :     2        0.51s   0.001%  ------ ||
|| paw_tcore_hartree_on_grid                  :     1        0.51s   0.001%  ------ ||
|| sparse_spam3toblacs_real_fast_B2           : 30900        0.51s   0.001%  ------ ||
|| basis_extract_function_from_box            :  3456        0.60s   0.001%  ------ ||
|| paw_tcore_hartree_calc_forces              :     1        0.61s   0.001%  ------ ||
|| paw_nlcc_calculate_forces                  :     1        1.21s   0.002%  ------ ||
|| paw_tcore_density                          :     1        1.27s   0.002%  ------ ||
|| ngwfs_initialise_from_radial               :     2        1.33s   0.002%  ------ ||
|| nonsc_forces_ngwfs_calc                    :     1        1.47s   0.002%  ------ ||
|| paw_sphere_density_on_grid                 :     1        1.51s   0.002%  ------ ||
|| paw_dataset_init                           :     2        1.51s   0.002%  ------ ||
|| sparse_init                                :     1        2.19s   0.003%  ------ ||
|| paw_species_calc_proj_prec_mat             :     1        5.89s   0.009%  ------ ||
|| hubbard_ham_matrix                         :   365        8.54s   0.013%  ------ ||
|| sparse_embed_array_hotelling_invert        :    77        8.55s   0.014%  ------ ||
|| hubbard_calculate_forces                   :     1        8.61s   0.014%  ------ ||
|| restart_kernel_write                       :    38        9.10s   0.014%  ------ ||
|| hubbard_projector_ham                      :   364        9.88s   0.016%  ------ ||
|| integrals_grad_spam3                       :     2       10.03s   0.016%  ------ ||
|| energy_and_force_init_cell                 :     1       14.66s   0.023%  ------ ||
|| sparse_spam3toblacs_real_fast_B1           : 30900       14.83s   0.023%  ------ ||
|| hubbard_projector_update                   :     1       15.36s   0.024%  ------ ||
|| sparse_spam3toblacs_real_fast              :   206       16.48s   0.026%  ------ ||
|| projectors_func_grad_ovlp_box_spam3        :     3       18.07s   0.029%  ------ ||
|| aug_nl_calculate_forces                    :     1       18.92s   0.030%  ------ ||
|| hubbard_energy_total                       :   821       22.04s   0.035%  ------ ||
|| ngwf_gradient_coeffs                       :    36       28.25s   0.045%  ------ ||
|| sparse_blacstospam3_real_fast              :   220       31.57s   0.050%  ------ ||
|| fourier_filter_cell                        :   802       33.85s   0.053% 420.185 ||
|| hamiltonian_energy_components              :     1       39.24s   0.062%  ------ ||
|| eigenstates_calculate                      :     1       40.62s   0.064%  ------ ||
|| sparse_trace                               : 24685       45.12s   0.071%  ------ ||
|| fourier_apply_box_pair                     :  4432       49.02s   0.077%  5.290k ||
|| dense_eigensolve                           :   100       53.44s   0.084%  ------ ||
|| hartree_on_grid_single                     :   808       56.76s   0.090%  ------ ||
|| density_init_guess_real                    :     2       58.29s   0.092%  ------ ||
|| basis_copy_function_to_box                 : 59644       67.80s   0.107%  ------ ||
|| edft_diag_ngwf_ham                         :    98       68.06s   0.108%  ------ ||
|| fourier_interpolate_cell                   :  1618       74.74s   0.118% 383.893 ||
|| kernel_fix                                 :   347       84.75s   0.134%  ------ ||
|| kernel_purify                              :  1137       92.22s   0.146%  ------ ||
|| lnv_gradient_norm                          :   347      105.55s   0.167%  ------ ||
|| forces_calculate                           :     1      105.85s   0.167%  ------ ||
|| edft_apply_smearing_operator               :    49      109.40s   0.173%  ------ ||
|| augmentation_screen_dij_spam3              :   807      160.83s   0.254%  ------ ||
|| paw_dij_xc                                 :   859      172.14s   0.272%  ------ ||
|| aug_nonlocal_mat_spam3_embed_array         :   822      182.99s   0.289%  ------ ||
|| projectors_init_fftbox_recip               :   593      210.24s   0.332%  ------ ||
|| fourier_apply_cell_backward                :  7273      246.33s   0.389% 471.002 ||
|| fourier_apply_cell_forward                 :  7273      261.69s   0.413% 443.345 ||
|| cell_grid_extract_box_real                 : 30518      320.80s   0.507%  ------ ||
|| cell_grid_deposit_box_real                 : 50800      338.46s   0.535%  ------ ||
|| function_ops_brappd_ketppd_spam3           :   156      351.39s   0.555%  ------ ||
|| restart_ngwfs_tightbox_output              :    35      353.12s   0.558%  ------ ||
|| aug_density_on_grid_spam3                  :   809      377.37s   0.596%  ------ ||
|| fourier_filter                             : 10838      417.65s   0.660%  ------ ||
|| properties_calculate                       :     1      504.35s   0.797%  ------ ||
|| sparse_product                             : 47226      526.43s   0.832%  ------ ||
|| xc_energy_potential                        :   808      528.98s   0.836%  ------ ||
|| projectors_func_ovlp_box_spam3             :   157      556.71s   0.880%  ------ ||
|| integrals_kinetic_spam3                    :    77      835.16s   1.319%  ------ ||
|| fourier_interpolate                        : 10838      878.53s   1.388%  ------ ||
|| density_fftbox_deposit_to_cell             : 40450     1814.32s   2.866%  ------ ||
|| basis_dot_function_with_box                : 33.21M    2471.08s   3.904%  ------ ||
|| edft_calculate                             :     1     2574.02s   4.067%  ------ ||
|| projectors_gradient_batch                  :   288     2579.12s   4.075%  ------ ||
|| potential_apply_to_ngwf_batch              :  1460     4692.00s   7.413%  ------ ||
|| basis_add_function_to_box                  : 79.67M    6644.11s  10.497%  ------ ||
|| fourier_apply_box                          : 171.7k    6767.49s  10.692%  5.461k ||
|| integrals_locpot_mat_els_batch             :  1460     6988.63s  11.041%  ------ ||
|| fourier_interpolate_product                : 38832     7733.06s  12.217%  ------ ||
|| projectors_grad_precond_batch              :   144     7827.78s  12.367%  ------ ||
|| density_fftbox_interpolate_multiply        : 40450     8080.17s  12.766%  ------ ||
|| ngwf_gradient_build_batch                  :   144    11604.67s  18.334%  ------ ||
|| integrals_locpot_dbl_grid                  :   730    11684.08s  18.459%  ------ ||
|| density_batch_interp_deposit               :  3236    14298.83s  22.590%  ------ ||
|| density_batch_row_sums                     :  3236    15441.73s  24.396%  ------ ||
|| ngwf_gradient_batch                        :   144    16021.43s  25.312%  ------ ||
|| ngwf_gradient_lnv                          :    36    16418.73s  25.939%  ------ ||
|| density_on_dbl_grid                        :  1618    29873.03s  47.195%  ------ ||
|| hamiltonian_lhxc_calculate                 :   805    31097.17s  49.129%  ------ ||
|| lnv_denskernel_optimise_cg                 :    36    39310.47s  62.105%  ------ ||
|| ngwf_cg_optimise                           :     1    59939.46s  94.696%  ------ ||
|| energy_and_forces                          :     1    63280.45s  99.975%  ------ ||
|| total_time                                 :     1    63296.40s 100.000%  ------ ||
======================================================================================
Overhead of generating timer report: 
- 0 ms averaging over threads,
- 11 ms ensuring consistency across MPI ranks,
- 0 ms printing in order.

Job completed: 27-04-2025 03:50 (+0100)

onetep_launcher: ONETEP seems to have finished correctly (zero exit code).
                 Brought to you by PID 44216 on nid001524.
