==================================================================================
It's Sat 31 May 2025 09:49:51 AM BST.
*** Starting onetep_launcher (node nid004671, PIDs 196260 196261 196262 196263 196264 196265)...
    - ONETEP arguments: Cr2I6_bilayer_HT_AFM_AFM_SP.dat
    - Current directory: /mnt/lustre/a2fs-work3/work/e89/e89/phsmea/CrI3_onetep_U/U_2.97/HT_AFM/HT_AFM_AFM_J/nsp
    - Launcher executable directory: /mnt/lustre/a2fs-work3/work/e89/e89/phsmea/CrI3_onetep_U/U_2.97/HT_AFM/HT_AFM_AFM_J/nsp
    - (-e) ONETEP executable specified through command-line: /work/e89/e89/phsmea/onetep.archer2_2024_cray_2
      ... trying /work/e89/e89/phsmea/onetep.archer2_2024_cray_2
          -> looks OK
*** Setting up environment...
    - (-s) Process stack size: unlimited
    - (-t) OMP_NUM_THREADS: 16
    - (-o) OMP_STACKSIZE: 64M
    - (-c) Maximum core file size: 2048000
    - (-d) decfort_dump_flag: n
    - (-m) I_MPI_OFA_TRANSLATION_CACHE: 0
    - (-m) I_MPI_DAPL_TRANSLATION_CACHE: 0
    - (-m) I_MPI_DAPL_UD_TRANSLATION_CACHE: 0
*** Starting ONETEP...
    - /work/e89/e89/phsmea/onetep.archer2_2024_cray_2 Cr2I6_bilayer_HT_AFM_AFM_SP.dat
=================================================================================
_________________________________________________________________________________
 +---------------------------------------------------------------+
 |                                                               |
 |        ####### #     # ####### ####### ####### ######         |
 |        #     # ##    # #          #    #       #     #        |
 |        #     # # #   # #          #    #       #     #        |
 |        #     # #  #  # #####      #    #####   ######         |
 |        #     # #   # # #          #    #       #              |
 |        #     # #    ## #          #    #       #              |
 |        ####### #     # #######    #    ####### #              |
 |                                                               |
 |        Linear-Scaling Ab Initio Total Energy Program          |
 |                                                               |
 |          Release for academic collaborators of ODG            |
 |                                             Version 7.3.0     |
 | Remote: git@github.com:Miesaz/onetep_mea.git                  |
 | Local branch: master                                          |
 | Commit ID: 4af45e89288c8df5499704252eec3e032ee3d0c8           |
 | Date: Tue Aug 6 11:28:44 2024 +0100                           |
 | Locally modified files:                                       |
 |   src/hubbard_build_mod.F90                                   |
 |   src/services_mod.F90                                        |
 |                                                               |
 +---------------------------------------------------------------+
 |                                                               |
 |  Authors:                                                     |
 |  Jacek Dziedzic, Peter D. Haynes, Nicholas D. M. Hine,        |
 |  Arash A. Mostofi, Mike C. Payne and Chris-Kriton Skylaris    |
 |                                                               |
 |  Contributors:                                                |
 |  J. Aarons, L. Andrinopoulos, P. W. Avraam, R. A. Bell,       |
 |  A. Bhandari, G. A. Bramley, R. J. Charlton, S. J. Clark,     |
 |  R. J. Clements, G. C. Constantinescu, F. Corsetti,           |
 |  N. Corsini, O. Dieguez, S. M. M. Dubois, K. K. B. Duff,      |
 |  J. M. Escartin, M. Escobar Azor, A. Greco,                   |
 |  H. Helal, Q. O. Hill, L. P. Lee, J.-H. Li,                   |
 |  T. Li, E. B. Linscott, G. Moynihan, D. D. O`Regan,           |
 |  O. K. Okan, E. Parkinson, M. J. S. Phipps,                   |
 |  C. J. Pickard, J. C. A. Prentice, M. I. J. Probert,          |
 |  L. E. Ratcliff, M. Robinson, A. Ruiz Serrano,                |
 |  M. dos Santos Dias, J. S. Spencer, E. W. Tait,               |
 |  G. Teobaldi, D. Turban, V. Vitale, K. A. Wilkinson,          |
 |  C. Weber, J. C. Womack, Chengcheng Xiao, N. Yeung,           |
 |  and T. J. Zuehlsdorff.                                       |
 |                                                               |
 |                                   Copyright (c) 2004-2025     |
 |                                                               |
 |  Please cite:                                                 |
 |  "The ONETEP linear-scaling density functional theory program"|
 |   J. Chem. Phys. 152(17) 174111 (2020)                        |
 |                                                               |
 |          in all publications arising from your use of ONETEP. |
 |                                                               |
 +---------------------------------------------------------------+
 |                                                               |
 |   ONETEP is based on developments described in the following  |
 |   publications:                                               |
 |                                                               |
 |  "Nonorthogonal generalized Wannier function pseudopotential  |
 |   plane-wave method".                                         |
 |   C.-K. Skylaris, A. A. Mostofi, P. D. Haynes, O. Dieguez,    |
 |   M. C. Payne.                                                |
 |   Phys. Rev. B 66 035119 (2002).                              |
 |                                                               |
 |  "Preconditioned iterative minimization for linear-scaling    |
 |   electronic structure calculations".                         |
 |   A. A. Mostofi, P. D. Haynes, C.-K. Skylaris, M. C. Payne.   |
 |   J. Chem. Phys. 119(17), pp.8842-8848 (2003).                |
 |                                                               |
 |  "Total-energy calculations on a real space grid with         |
 |   localized functions and a plane-wave basis".                |
 |   A. A. Mostofi, C.-K. Skylaris, P. D. Haynes, M. C. Payne.   |
 |   Comput. Phys. Commun. 147, pp.788-802 (2002).               |
 |                                                               |
 |  "Accurate kinetic energy evaluation in electronic structure  |
 |   calculations with localized functions on real space grids"  |
 |   C.-K. Skylaris, A. A. Mostofi, P. D. Haynes, C. J. Pickard, |
 |   M. C. Payne.                                                |
 |   Comput. Phys. Commun. 140, pp.315-322 (2001).               |
 |                                                               |
 |  "Accurate ionic forces and geometry optimization in linear-  |
 |   scaling density-functional theory with local orbitals"      |
 |   N. D. M. Hine, M. Robinson, P. D. Haynes, C.-K. Skylaris,   |
 |   M. C. Payne, and A. A. Mostofi.                             |
 |   Phys. Rev. B 83 195102 (2011).                              |
 |                                                               |
 +---------------------------------------------------------------+

Job started: 31-05-2025 09:49 (+0100)
 
Reading parameters from file "Cr2I6_bilayer_HT_AFM_AFM_SP.dat" ...... done

If your calculation crashes here, before "Checking processes and threads..."
is displayed, then your stack size is insufficient.
If so, use "ulimit -s unlimited" at runtime.
You can disable this check with "check_stack_size F".

Checking processes and threads...
      Default threads: 16
   Running with 150 MPI processes.
   There are 6 MPI processes running on the same node as the root process.
   Each MPI process is using: 
               1 threads for simulation cell FFTs.
               1 threads for threaded FFT box operations.
              16 threads for loops over batched FFT box operations.
              16 threads in other parallel regions.
   MPI Interface: S1 (use mpi_f08) (-DMPI -DUSE_MPI_F08).
   MPI_ASYNC_PROTECTS_NONBLOCKING: Yes. MPI_SUBARRAYS_SUPPORTED: Yes.
   FFTW Interface: OMP-capable and MODERN. (-DUSE_MODERN_FFTW specified).
   GPU Interface: None.
   GPU FFT Backend: None.
... done

Basic input checks...... done

Reading geometry and species blocks from file "Cr2I6_bilayer_HT_AFM_AFM_SP.dat" ...... done


--------------------------------------------------------------------------------
---------------------------------- INPUT FILE ----------------------------------
--------------------------------------------------------------------------------

charge : 0                                                                      
cube_format   : T                                                               
cutoff_energy : 1000 eV                                                         
delta_e_conv : F                                                                
do_properties : T                                                               
edft : F                                                                        
edft_init_maxit : 0                                                             
elec_energy_tol : 1e-07 Ha                                                      
fine_grid_scale : 4                                                             
forces_output_detail : VERBOSE                                                  
MAXIT_LNV     : 1                                                               
MINIT_LNV     : 1                                                               
maxit_ngwf_cg : 1                                                               
ngwf_threshold_orig : 10                                                        
ngwfs_spin_polarized : F                                                        
output_detail : NORMAL                                                          
paw : T                                                                         
read_denskern : T                                                               
read_hamiltonian : T                                                            
read_tightbox_ngwfs : T                                                         
spin : 0                                                                        
spin_polarized : T                                                              
task : SinglePoint                                                              
write_denskern : F                                                              
write_forces : T                                                                
write_hamiltonian : F                                                           
write_ngwf_plot : T                                                             
write_tightbox_ngwfs : F                                                        
xc_functional : PBE                                                             
%BLOCK LATTICE_CART                                                             
ang                                                                             
41.261892132       0.000000000000000        0.000000000000000                   
-20.630946066       35.733846792             0.000000000000000                  
0.000000000000000   0.0000000000000000       27.507928088                       
%ENDBLOCK LATTICE_CART                                                          
%block species_ngwf_plot                                                        
Cr2                                                                             
Cr3                                                                             
I1                                                                              
%endblock species_ngwf_plot                                                     
%BLOCK POSITIONS_ABS                                                            
ang                                                                             
Cr       5.73012301       1.98615267      15.61475195                           
Cr       2.29163200       3.96948846      15.61475241                           
I        6.71804295      -0.00001318      14.06395847                           
I        3.51661508       2.12334657      14.07089707                           
I        0.07814689       3.83230774      14.07089707                           
I        4.74445508      -0.00001140      17.15723785                           
I        4.50489604       3.83201918      17.15707434                           
I        1.06642478       2.12363336      17.15707434                           
Cr1      3.43917878       1.98613277       9.03123330                           
Cr1      0.00068777       3.96950836       9.03123376                           
I        4.42486276      -0.00001318       7.48874545                           
I        1.22590088       2.12363241       7.48890841                           
I       -2.21256731       3.83202190       7.48890841                           
I        2.45126709      -0.00001140      10.58202506                           
I        2.21418512       3.83230199      10.57507890                           
I       -1.22428614       2.12335055      10.57507890                           
Cr       2.29163200       7.94179381      15.61475195                           
Cr      -1.14685901       9.92512959      15.61475241                           
I        3.27955194       5.95562795      14.06395847                           
I        0.07812407       8.07898770      14.07089707                           
I       -3.36034412       9.78794887      14.07089707                           
I        1.30596407       5.95562973      17.15723785                           
I        1.06640503       9.78766031      17.15707434                           
I       -2.37206623       8.07927449      17.15707434                           
Cr1      0.00068777       7.94177390       9.03123330                           
Cr1     -3.43780324       9.92514949       9.03123376                           
I        0.98637175       5.95562795       7.48874545                           
I       -2.21259013       8.07927354       7.48890841                           
I       -5.65105832       9.78766304       7.48890841                           
I       -0.98722392       5.95562973      10.58202506                           
I       -1.22430589       9.78794313      10.57507890                           
I       -4.66277715       8.07899168      10.57507890                           
Cr      -1.14685901      13.89743494      15.61475195                           
Cr      -4.58535002      15.88077072      15.61475241                           
I       -0.15893907      11.91126908      14.06395847                           
I       -3.36036694      14.03462883      14.07089707                           
I       -6.79883513      15.74359001      14.07089707                           
I       -2.13252694      11.91127086      17.15723785                           
I       -2.37208598      15.74330145      17.15707434                           
I       -5.81055724      14.03491562      17.15707434                           
Cr1     -3.43780324      13.89741504       9.03123330                           
Cr1     -6.87629425      15.88079062       9.03123376                           
I       -2.45211926      11.91126908       7.48874545                           
I       -5.65108114      14.03491467       7.48890841                           
I       -9.08954933      15.74330417       7.48890841                           
I       -4.42571493      11.91127086      10.58202506                           
I       -4.66279691      15.74358426      10.57507890                           
I       -8.10126817      14.03463281      10.57507890                           
Cr      -4.58535002      19.85307607      15.61475195                           
Cr      -8.02384103      21.83641185      15.61475241                           
I       -3.59743008      17.86691022      14.06395847                           
I       -6.79885795      19.99026996      14.07089707                           
I      -10.23732614      21.69923114      14.07089707                           
I       -5.57101795      17.86691200      17.15723785                           
I       -5.81057699      21.69894258      17.15707434                           
I       -9.24904825      19.99055675      17.15707434                           
Cr1     -6.87629425      19.85305617       9.03123330                           
Cr1    -10.31478526      21.83643175       9.03123376                           
I       -5.89061027      17.86691022       7.48874545                           
I       -9.08957216      19.99055580       7.48890841                           
I      -12.52804035      21.69894530       7.48890841                           
I       -7.86420594      17.86691200      10.58202506                           
I       -8.10128792      21.69922539      10.57507890                           
I      -11.53975918      19.99027394      10.57507890                           
Cr      -8.02384103      25.80871720      15.61475195                           
Cr     -11.46233204      27.79205298      15.61475241                           
I       -7.03592109      23.82255135      14.06395847                           
I      -10.23734897      25.94591110      14.07089707                           
I      -13.67581716      27.65487227      14.07089707                           
I       -9.00950896      23.82255313      17.15723785                           
I       -9.24906800      27.65458371      17.15707434                           
I      -12.68753926      25.94619789      17.15707434                           
Cr1    -10.31478526      25.80869730       9.03123330                           
Cr1    -13.75327627      27.79207289       9.03123376                           
I       -9.32910128      23.82255135       7.48874545                           
I      -12.52806317      25.94619693       7.48890841                           
I      -15.96653136      27.65458643       7.48890841                           
I      -11.30269695      23.82255313      10.58202506                           
I      -11.53977893      27.65486652      10.57507890                           
I      -14.97825019      25.94591507      10.57507890                           
Cr     -11.46233205      31.76435833      15.61475195                           
Cr     -14.90082306      33.74769412      15.61475241                           
I      -10.47441210      29.77819248      14.06395847                           
I      -13.67583998      31.90155223      14.07089707                           
I      -17.11430817      33.61051340      14.07089707                           
I      -12.44799997      29.77819426      17.15723785                           
I      -12.68755901      33.61022484      17.15707434                           
I      -16.12603027      31.90183902      17.15707434                           
Cr1    -13.75327627      31.76433843       9.03123330                           
Cr1    -17.19176728      33.74771402       9.03123376                           
I      -12.76759229      29.77819248       7.48874545                           
I      -15.96655418      31.90183807       7.48890841                           
I      -19.40502237      33.61022756       7.48890841                           
I      -14.74118796      29.77819426      10.58202506                           
I      -14.97826994      33.61050765      10.57507890                           
I      -18.41674120      31.90155621      10.57507890                           
Cr      12.60710503       1.98615267      15.61475195                           
Cr       9.16861402       3.96948846      15.61475241                           
I       13.59502497      -0.00001318      14.06395847                           
I       10.39359710       2.12334657      14.07089707                           
I        6.95512891       3.83230774      14.07089707                           
I       11.62143710      -0.00001140      17.15723785                           
I       11.38187806       3.83201918      17.15707434                           
I        7.94340680       2.12363336      17.15707434                           
Cr1     10.31616080       1.98613277       9.03123330                           
Cr1      6.87766979       3.96950836       9.03123376                           
I       11.30184479      -0.00001318       7.48874545                           
I        8.10288290       2.12363241       7.48890841                           
I        4.66441471       3.83202190       7.48890841                           
I        9.32824912      -0.00001140      10.58202506                           
I        9.09116714       3.83230199      10.57507890                           
I        5.65269588       2.12335055      10.57507890                           
Cr       9.16861402       7.94179381      15.61475195                           
Cr       5.73012301       9.92512959      15.61475241                           
I       10.15653396       5.95562795      14.06395847                           
I        6.95510609       8.07898770      14.07089707                           
I        3.51663790       9.78794887      14.07089707                           
I        8.18294609       5.95562973      17.15723785                           
I        7.94338705       9.78766031      17.15707434                           
I        4.50491579       8.07927449      17.15707434                           
Cr1      6.87766979       7.94177390       9.03123330                           
Cr1      3.43917878       9.92514949       9.03123376                           
I        7.86335378       5.95562795       7.48874545                           
I        4.66439189       8.07927354       7.48890841                           
I        1.22592370       9.78766304       7.48890841                           
I        5.88975810       5.95562973      10.58202506                           
I        5.65267613       9.78794313      10.57507890                           
I        2.21420487       8.07899168      10.57507890                           
Cr       5.73012301      13.89743494      15.61475195                           
Cr       2.29163200      15.88077072      15.61475241                           
I        6.71804295      11.91126908      14.06395847                           
I        3.51661508      14.03462883      14.07089707                           
I        0.07814689      15.74359001      14.07089707                           
I        4.74445508      11.91127086      17.15723785                           
I        4.50489604      15.74330145      17.15707434                           
I        1.06642478      14.03491562      17.15707434                           
Cr1      3.43917878      13.89741504       9.03123330                           
Cr1      0.00068777      15.88079062       9.03123376                           
I        4.42486276      11.91126908       7.48874545                           
I        1.22590088      14.03491467       7.48890841                           
I       -2.21256731      15.74330417       7.48890841                           
I        2.45126709      11.91127086      10.58202506                           
I        2.21418512      15.74358426      10.57507890                           
I       -1.22428614      14.03463281      10.57507890                           
Cr       2.29163200      19.85307607      15.61475195                           
Cr      -1.14685901      21.83641185      15.61475241                           
I        3.27955194      17.86691022      14.06395847                           
I        0.07812407      19.99026996      14.07089707                           
I       -3.36034412      21.69923114      14.07089707                           
I        1.30596407      17.86691200      17.15723785                           
I        1.06640503      21.69894258      17.15707434                           
I       -2.37206623      19.99055675      17.15707434                           
Cr1      0.00068777      19.85305617       9.03123330                           
Cr1     -3.43780324      21.83643175       9.03123376                           
I        0.98637175      17.86691022       7.48874545                           
I       -2.21259013      19.99055580       7.48890841                           
I       -5.65105832      21.69894530       7.48890841                           
I       -0.98722392      17.86691200      10.58202506                           
I       -1.22430589      21.69922539      10.57507890                           
I       -4.66277715      19.99027394      10.57507890                           
Cr      -1.14685901      25.80871720      15.61475195                           
Cr      -4.58535002      27.79205298      15.61475241                           
I       -0.15893907      23.82255135      14.06395847                           
I       -3.36036694      25.94591110      14.07089707                           
I       -6.79883513      27.65487227      14.07089707                           
I       -2.13252694      23.82255313      17.15723785                           
I       -2.37208598      27.65458371      17.15707434                           
I       -5.81055724      25.94619789      17.15707434                           
Cr1     -3.43780324      25.80869730       9.03123330                           
Cr1     -6.87629425      27.79207289       9.03123376                           
I       -2.45211926      23.82255135       7.48874545                           
I       -5.65108114      25.94619693       7.48890841                           
I       -9.08954933      27.65458643       7.48890841                           
I       -4.42571493      23.82255313      10.58202506                           
I       -4.66279691      27.65486652      10.57507890                           
I       -8.10126817      25.94591507      10.57507890                           
Cr      -4.58535002      31.76435833      15.61475195                           
Cr      -8.02384103      33.74769412      15.61475241                           
I       -3.59743008      29.77819248      14.06395847                           
I       -6.79885795      31.90155223      14.07089707                           
I      -10.23732614      33.61051340      14.07089707                           
I       -5.57101795      29.77819426      17.15723785                           
I       -5.81057699      33.61022484      17.15707434                           
I       -9.24904825      31.90183902      17.15707434                           
Cr1     -6.87629425      31.76433843       9.03123330                           
Cr1    -10.31478526      33.74771402       9.03123376                           
I       -5.89061027      29.77819248       7.48874545                           
I       -9.08957216      31.90183807       7.48890841                           
I      -12.52804035      33.61022756       7.48890841                           
I       -7.86420594      29.77819426      10.58202506                           
I       -8.10128792      33.61050765      10.57507890                           
I      -11.53975918      31.90155621      10.57507890                           
Cr      19.48408705       1.98615267      15.61475195                           
Cr      16.04559604       3.96948846      15.61475241                           
I       20.47200700      -0.00001318      14.06395847                           
I       17.27057912       2.12334657      14.07089707                           
I       13.83211093       3.83230774      14.07089707                           
I       18.49841912      -0.00001140      17.15723785                           
I       18.25886009       3.83201918      17.15707434                           
I       14.82038883       2.12363336      17.15707434                           
Cr1     17.19314283       1.98613277       9.03123330                           
Cr1     13.75465182       3.96950836       9.03123376                           
I       18.17882681      -0.00001318       7.48874545                           
I       14.97986492       2.12363241       7.48890841                           
I       11.54139673       3.83202190       7.48890841                           
I       16.20523114      -0.00001140      10.58202506                           
I       15.96814916       3.83230199      10.57507890                           
I       12.52967790       2.12335055      10.57507890                           
Cr      16.04559604       7.94179381      15.61475195                           
Cr      12.60710503       9.92512959      15.61475241                           
I       17.03351599       5.95562795      14.06395847                           
I       13.83208811       8.07898770      14.07089707                           
I       10.39361992       9.78794887      14.07089707                           
I       15.05992811       5.95562973      17.15723785                           
I       14.82036907       9.78766031      17.15707434                           
I       11.38189781       8.07927449      17.15707434                           
Cr1     13.75465181       7.94177390       9.03123330                           
Cr1     10.31616080       9.92514949       9.03123376                           
I       14.74033580       5.95562795       7.48874545                           
I       11.54137391       8.07927354       7.48890841                           
I        8.10290572       9.78766304       7.48890841                           
I       12.76674013       5.95562973      10.58202506                           
I       12.52965815       9.78794313      10.57507890                           
I        9.09118689       8.07899168      10.57507890                           
Cr      12.60710503      13.89743494      15.61475195                           
Cr       9.16861402      15.88077072      15.61475241                           
I       13.59502497      11.91126908      14.06395847                           
I       10.39359710      14.03462883      14.07089707                           
I        6.95512891      15.74359001      14.07089707                           
I       11.62143710      11.91127086      17.15723785                           
I       11.38187806      15.74330145      17.15707434                           
I        7.94340680      14.03491562      17.15707434                           
Cr1     10.31616080      13.89741504       9.03123330                           
Cr1      6.87766979      15.88079062       9.03123376                           
I       11.30184479      11.91126908       7.48874545                           
I        8.10288290      14.03491467       7.48890841                           
I        4.66441471      15.74330417       7.48890841                           
I        9.32824912      11.91127086      10.58202506                           
I1       9.09116714      15.74358426      10.57507890                           
I        5.65269588      14.03463281      10.57507890                           
Cr2      9.16861402      19.85307607      15.61475195                           
Cr       5.73012301      21.83641185      15.61475241                           
I1       10.15653396      17.86691022      14.06395847                          
I        6.95510609      19.99026996      14.07089707                           
I        3.51663790      21.69923114      14.07089707                           
I        8.18294609      17.86691200      17.15723785                           
I        7.94338705      21.69894258      17.15707434                           
I        4.50491579      19.99055675      17.15707434                           
Cr1      6.87766979      19.85305617       9.03123330                           
Cr1      3.43917878      21.83643175       9.03123376                           
I        7.86335378      17.86691022       7.48874545                           
I        4.66439189      19.99055580       7.48890841                           
I        1.22592370      21.69894530       7.48890841                           
I        5.88975810      17.86691200      10.58202506                           
I        5.65267613      21.69922539      10.57507890                           
I        2.21420487      19.99027394      10.57507890                           
Cr       5.73012301      25.80871720      15.61475195                           
Cr       2.29163200      27.79205298      15.61475241                           
I        6.71804295      23.82255135      14.06395847                           
I        3.51661508      25.94591110      14.07089707                           
I        0.07814689      27.65487227      14.07089707                           
I        4.74445508      23.82255313      17.15723785                           
I        4.50489604      27.65458371      17.15707434                           
I        1.06642478      25.94619789      17.15707434                           
Cr1      3.43917878      25.80869730       9.03123330                           
Cr1      0.00068777      27.79207289       9.03123376                           
I        4.42486276      23.82255135       7.48874545                           
I        1.22590088      25.94619693       7.48890841                           
I       -2.21256731      27.65458643       7.48890841                           
I        2.45126709      23.82255313      10.58202506                           
I        2.21418512      27.65486652      10.57507890                           
I       -1.22428614      25.94591507      10.57507890                           
Cr       2.29163200      31.76435833      15.61475195                           
Cr      -1.14685901      33.74769412      15.61475241                           
I        3.27955194      29.77819248      14.06395847                           
I        0.07812407      31.90155223      14.07089707                           
I       -3.36034412      33.61051340      14.07089707                           
I        1.30596407      29.77819426      17.15723785                           
I        1.06640503      33.61022484      17.15707434                           
I       -2.37206623      31.90183902      17.15707434                           
Cr1      0.00068777      31.76433843       9.03123330                           
Cr1     -3.43780324      33.74771402       9.03123376                           
I        0.98637175      29.77819248       7.48874545                           
I       -2.21259013      31.90183807       7.48890841                           
I       -5.65105832      33.61022756       7.48890841                           
I       -0.98722392      29.77819426      10.58202506                           
I       -1.22430589      33.61050765      10.57507890                           
I       -4.66277715      31.90155621      10.57507890                           
Cr      26.36106908       1.98615267      15.61475195                           
Cr      22.92257807       3.96948846      15.61475241                           
I       27.34898902      -0.00001318      14.06395847                           
I       24.14756114       2.12334657      14.07089707                           
I       20.70909295       3.83230774      14.07089707                           
I       25.37540115      -0.00001140      17.15723785                           
I       25.13584211       3.83201918      17.15707434                           
I       21.69737085       2.12363336      17.15707434                           
Cr1     24.07012485       1.98613277       9.03123330                           
Cr1     20.63163384       3.96950836       9.03123376                           
I       25.05580883      -0.00001318       7.48874545                           
I       21.85684694       2.12363241       7.48890841                           
I       18.41837875       3.83202190       7.48890841                           
I       23.08221316      -0.00001140      10.58202506                           
I       22.84513118       3.83230199      10.57507890                           
I       19.40665992       2.12335055      10.57507890                           
Cr      22.92257806       7.94179381      15.61475195                           
Cr      19.48408705       9.92512959      15.61475241                           
I       23.91049801       5.95562795      14.06395847                           
I       20.70907013       8.07898770      14.07089707                           
I       17.27060194       9.78794887      14.07089707                           
I       21.93691014       5.95562973      17.15723785                           
I       21.69735110       9.78766031      17.15707434                           
I       18.25887984       8.07927449      17.15707434                           
Cr1     20.63163384       7.94177390       9.03123330                           
Cr1     17.19314283       9.92514949       9.03123376                           
I       21.61731782       5.95562795       7.48874545                           
I       18.41835593       8.07927354       7.48890841                           
I       14.97988774       9.78766304       7.48890841                           
I       19.64372215       5.95562973      10.58202506                           
I       19.40664017       9.78794313      10.57507890                           
I       15.96816891       8.07899168      10.57507890                           
Cr      19.48408705      13.89743494      15.61475195                           
Cr      16.04559604      15.88077072      15.61475241                           
I       20.47200700      11.91126908      14.06395847                           
I       17.27057912      14.03462883      14.07089707                           
I       13.83211093      15.74359001      14.07089707                           
I       18.49841912      11.91127086      17.15723785                           
I       18.25886009      15.74330145      17.15707434                           
I       14.82038883      14.03491562      17.15707434                           
Cr1     17.19314283      13.89741504       9.03123330                           
Cr1     13.75465182      15.88079062       9.03123376                           
I       18.17882681      11.91126908       7.48874545                           
I       14.97986492      14.03491467       7.48890841                           
I       11.54139673      15.74330417       7.48890841                           
I       16.20523114      11.91127086      10.58202506                           
I       15.96814916      15.74358426      10.57507890                           
I       12.52967790      14.03463281      10.57507890                           
Cr      16.04559604      19.85307607      15.61475195                           
Cr      12.60710503      21.83641185      15.61475241                           
I       17.03351599      17.86691022      14.06395847                           
I       13.83208811      19.99026996      14.07089707                           
I       10.39361992      21.69923114      14.07089707                           
I       15.05992811      17.86691200      17.15723785                           
I       14.82036907      21.69894258      17.15707434                           
I       11.38189781      19.99055675      17.15707434                           
Cr3     13.75465181      19.85305617       9.03123330                           
Cr1     10.31616080      21.83643175       9.03123376                           
I       14.74033580      17.86691022       7.48874545                           
I       11.54137391      19.99055580       7.48890841                           
I        8.10290572      21.69894530       7.48890841                           
I       12.76674013      17.86691200      10.58202506                           
I       12.52965815      21.69922539      10.57507890                           
I        9.09118689      19.99027394      10.57507890                           
Cr      12.60710503      25.80871720      15.61475195                           
Cr       9.16861402      27.79205298      15.61475241                           
I       13.59502497      23.82255135      14.06395847                           
I       10.39359710      25.94591110      14.07089707                           
I        6.95512891      27.65487227      14.07089707                           
I       11.62143710      23.82255313      17.15723785                           
I       11.38187806      27.65458371      17.15707434                           
I        7.94340680      25.94619789      17.15707434                           
Cr1     10.31616080      25.80869730       9.03123330                           
Cr1      6.87766979      27.79207289       9.03123376                           
I       11.30184479      23.82255135       7.48874545                           
I        8.10288290      25.94619693       7.48890841                           
I        4.66441471      27.65458643       7.48890841                           
I        9.32824912      23.82255313      10.58202506                           
I        9.09116714      27.65486652      10.57507890                           
I        5.65269588      25.94591507      10.57507890                           
Cr       9.16861402      31.76435833      15.61475195                           
Cr       5.73012301      33.74769412      15.61475241                           
I       10.15653396      29.77819248      14.06395847                           
I        6.95510609      31.90155223      14.07089707                           
I        3.51663790      33.61051340      14.07089707                           
I        8.18294609      29.77819426      17.15723785                           
I        7.94338705      33.61022484      17.15707434                           
I        4.50491579      31.90183902      17.15707434                           
Cr1      6.87766979      31.76433843       9.03123330                           
Cr1      3.43917878      33.74771402       9.03123376                           
I        7.86335378      29.77819248       7.48874545                           
I        4.66439189      31.90183807       7.48890841                           
I        1.22592370      33.61022756       7.48890841                           
I        5.88975810      29.77819426      10.58202506                           
I        5.65267613      33.61050765      10.57507890                           
I        2.21420487      31.90155621      10.57507890                           
Cr      33.23805110       1.98615267      15.61475195                           
Cr      29.79956009       3.96948846      15.61475241                           
I       34.22597104      -0.00001318      14.06395847                           
I       31.02454317       2.12334657      14.07089707                           
I       27.58607498       3.83230774      14.07089707                           
I       32.25238317      -0.00001140      17.15723785                           
I       32.01282413       3.83201918      17.15707434                           
I       28.57435287       2.12363336      17.15707434                           
Cr1     30.94710687       1.98613277       9.03123330                           
Cr1     27.50861586       3.96950836       9.03123376                           
I       31.93279085      -0.00001318       7.48874545                           
I       28.73382897       2.12363241       7.48890841                           
I       25.29536078       3.83202190       7.48890841                           
I       29.95919518      -0.00001140      10.58202506                           
I       29.72211320       3.83230199      10.57507890                           
I       26.28364194       2.12335055      10.57507890                           
Cr      29.79956009       7.94179381      15.61475195                           
Cr      26.36106908       9.92512959      15.61475241                           
I       30.78748003       5.95562795      14.06395847                           
I       27.58605216       8.07898770      14.07089707                           
I       24.14758397       9.78794887      14.07089707                           
I       28.81389216       5.95562973      17.15723785                           
I       28.57433312       9.78766031      17.15707434                           
I       25.13586186       8.07927449      17.15707434                           
Cr1     27.50861586       7.94177390       9.03123330                           
Cr1     24.07012485       9.92514949       9.03123376                           
I       28.49429984       5.95562795       7.48874545                           
I       25.29533795       8.07927354       7.48890841                           
I       21.85686976       9.78766304       7.48890841                           
I       26.52070417       5.95562973      10.58202506                           
I       26.28362219       9.78794313      10.57507890                           
I       22.84515093       8.07899168      10.57507890                           
Cr      26.36106908      13.89743494      15.61475195                           
Cr      22.92257807      15.88077072      15.61475241                           
I       27.34898902      11.91126908      14.06395847                           
I       24.14756114      14.03462883      14.07089707                           
I       20.70909295      15.74359001      14.07089707                           
I       25.37540115      11.91127086      17.15723785                           
I       25.13584211      15.74330145      17.15707434                           
I       21.69737085      14.03491562      17.15707434                           
Cr1     24.07012485      13.89741504       9.03123330                           
Cr1     20.63163384      15.88079062       9.03123376                           
I       25.05580883      11.91126908       7.48874545                           
I       21.85684694      14.03491467       7.48890841                           
I       18.41837875      15.74330417       7.48890841                           
I       23.08221316      11.91127086      10.58202506                           
I       22.84513118      15.74358426      10.57507890                           
I       19.40665992      14.03463281      10.57507890                           
Cr      22.92257806      19.85307607      15.61475195                           
Cr      19.48408705      21.83641185      15.61475241                           
I       23.91049801      17.86691022      14.06395847                           
I       20.70907013      19.99026996      14.07089707                           
I       17.27060194      21.69923114      14.07089707                           
I       21.93691014      17.86691200      17.15723785                           
I       21.69735110      21.69894258      17.15707434                           
I       18.25887984      19.99055675      17.15707434                           
Cr1     20.63163384      19.85305617       9.03123330                           
Cr1     17.19314283      21.83643175       9.03123376                           
I       21.61731782      17.86691022       7.48874545                           
I       18.41835593      19.99055580       7.48890841                           
I       14.97988774      21.69894530       7.48890841                           
I       19.64372215      17.86691200      10.58202506                           
I       19.40664017      21.69922539      10.57507890                           
I       15.96816891      19.99027394      10.57507890                           
Cr      19.48408705      25.80871720      15.61475195                           
Cr      16.04559604      27.79205298      15.61475241                           
I       20.47200700      23.82255135      14.06395847                           
I       17.27057912      25.94591110      14.07089707                           
I       13.83211093      27.65487227      14.07089707                           
I       18.49841912      23.82255313      17.15723785                           
I       18.25886009      27.65458371      17.15707434                           
I       14.82038883      25.94619789      17.15707434                           
Cr1     17.19314283      25.80869730       9.03123330                           
Cr1     13.75465182      27.79207289       9.03123376                           
I       18.17882681      23.82255135       7.48874545                           
I       14.97986492      25.94619693       7.48890841                           
I       11.54139673      27.65458643       7.48890841                           
I       16.20523114      23.82255313      10.58202506                           
I       15.96814916      27.65486652      10.57507890                           
I       12.52967790      25.94591507      10.57507890                           
Cr      16.04559604      31.76435833      15.61475195                           
Cr      12.60710503      33.74769412      15.61475241                           
I       17.03351599      29.77819248      14.06395847                           
I       13.83208811      31.90155223      14.07089707                           
I       10.39361992      33.61051340      14.07089707                           
I       15.05992811      29.77819426      17.15723785                           
I       14.82036907      33.61022484      17.15707434                           
I       11.38189781      31.90183902      17.15707434                           
Cr1     13.75465181      31.76433843       9.03123330                           
Cr1     10.31616080      33.74771402       9.03123376                           
I       14.74033580      29.77819248       7.48874545                           
I       11.54137391      31.90183807       7.48890841                           
I        8.10290572      33.61022756       7.48890841                           
I       12.76674013      29.77819426      10.58202506                           
I       12.52965815      33.61050765      10.57507890                           
I        9.09118689      31.90155621      10.57507890                           
Cr      40.11503312       1.98615267      15.61475195                           
Cr      36.67654211       3.96948846      15.61475241                           
I       41.10295306      -0.00001318      14.06395847                           
I       37.90152519       2.12334657      14.07089707                           
I       34.46305700       3.83230774      14.07089707                           
I       39.12936519      -0.00001140      17.15723785                           
I       38.88980615       3.83201918      17.15707434                           
I       35.45133489       2.12363336      17.15707434                           
Cr1     37.82408889       1.98613277       9.03123330                           
Cr1     34.38559788       3.96950836       9.03123376                           
I       38.80977287      -0.00001318       7.48874545                           
I       35.61081099       2.12363241       7.48890841                           
I       32.17234280       3.83202190       7.48890841                           
I       36.83617720      -0.00001140      10.58202506                           
I       36.59909523       3.83230199      10.57507890                           
I       33.16062397       2.12335055      10.57507890                           
Cr      36.67654211       7.94179381      15.61475195                           
Cr      33.23805110       9.92512959      15.61475241                           
I       37.66446205       5.95562795      14.06395847                           
I       34.46303418       8.07898770      14.07089707                           
I       31.02456599       9.78794887      14.07089707                           
I       35.69087418       5.95562973      17.15723785                           
I       35.45131514       9.78766031      17.15707434                           
I       32.01284388       8.07927449      17.15707434                           
Cr1     34.38559788       7.94177390       9.03123330                           
Cr1     30.94710687       9.92514949       9.03123376                           
I       35.37128186       5.95562795       7.48874545                           
I       32.17231998       8.07927354       7.48890841                           
I       28.73385179       9.78766304       7.48890841                           
I       33.39768619       5.95562973      10.58202506                           
I       33.16060422       9.78794313      10.57507890                           
I       29.72213296       8.07899168      10.57507890                           
Cr      33.23805110      13.89743494      15.61475195                           
Cr      29.79956009      15.88077072      15.61475241                           
I       34.22597104      11.91126908      14.06395847                           
I       31.02454317      14.03462883      14.07089707                           
I       27.58607498      15.74359001      14.07089707                           
I       32.25238317      11.91127086      17.15723785                           
I       32.01282413      15.74330145      17.15707434                           
I       28.57435287      14.03491562      17.15707434                           
Cr1     30.94710687      13.89741504       9.03123330                           
Cr1     27.50861586      15.88079062       9.03123376                           
I       31.93279085      11.91126908       7.48874545                           
I       28.73382897      14.03491467       7.48890841                           
I       25.29536078      15.74330417       7.48890841                           
I       29.95919518      11.91127086      10.58202506                           
I       29.72211320      15.74358426      10.57507890                           
I       26.28364194      14.03463281      10.57507890                           
Cr      29.79956009      19.85307607      15.61475195                           
Cr      26.36106908      21.83641185      15.61475241                           
I       30.78748003      17.86691022      14.06395847                           
I       27.58605216      19.99026996      14.07089707                           
I       24.14758397      21.69923114      14.07089707                           
I       28.81389216      17.86691200      17.15723785                           
I       28.57433312      21.69894258      17.15707434                           
I       25.13586186      19.99055675      17.15707434                           
Cr1     27.50861586      19.85305617       9.03123330                           
Cr1     24.07012485      21.83643175       9.03123376                           
I       28.49429984      17.86691022       7.48874545                           
I       25.29533795      19.99055580       7.48890841                           
I       21.85686976      21.69894530       7.48890841                           
I       26.52070417      17.86691200      10.58202506                           
I       26.28362219      21.69922539      10.57507890                           
I       22.84515093      19.99027394      10.57507890                           
Cr      26.36106908      25.80871720      15.61475195                           
Cr      22.92257807      27.79205298      15.61475241                           
I       27.34898902      23.82255135      14.06395847                           
I       24.14756114      25.94591110      14.07089707                           
I       20.70909295      27.65487227      14.07089707                           
I       25.37540115      23.82255313      17.15723785                           
I       25.13584211      27.65458371      17.15707434                           
I       21.69737085      25.94619789      17.15707434                           
Cr1     24.07012485      25.80869730       9.03123330                           
Cr1     20.63163384      27.79207289       9.03123376                           
I       25.05580883      23.82255135       7.48874545                           
I       21.85684694      25.94619693       7.48890841                           
I       18.41837875      27.65458643       7.48890841                           
I       23.08221316      23.82255313      10.58202506                           
I       22.84513118      27.65486652      10.57507890                           
I       19.40665992      25.94591507      10.57507890                           
Cr      22.92257806      31.76435833      15.61475195                           
Cr      19.48408705      33.74769412      15.61475241                           
I       23.91049801      29.77819248      14.06395847                           
I       20.70907013      31.90155223      14.07089707                           
I       17.27060194      33.61051340      14.07089707                           
I       21.93691014      29.77819426      17.15723785                           
I       21.69735110      33.61022484      17.15707434                           
I       18.25887984      31.90183902      17.15707434                           
Cr1     20.63163384      31.76433843       9.03123330                           
Cr1     17.19314283      33.74771402       9.03123376                           
I       21.61731782      29.77819248       7.48874545                           
I       18.41835593      31.90183807       7.48890841                           
I       14.97988774      33.61022756       7.48890841                           
I       19.64372215      29.77819426      10.58202506                           
I       19.40664017      33.61050765      10.57507890                           
I       15.96816891      31.90155621      10.57507890                           
%ENDBLOCK POSITIONS_ABS                                                         
%BLOCK SPECIES                                                                  
Cr Cr 24 -1 15                                                                  
I   I  53 -1 15                                                                 
I1  I  53 -1 15                                                                 
Cr1 Cr 24 -1 15                                                                 
Cr2 Cr 24 -1 15                                                                 
Cr3 Cr 24 -1 15                                                                 
%ENDBLOCK SPECIES                                                               
%BLOCK SPECIES_ATOMIC_SET                                                       
Cr "SOLVE INIT SPIN=3"                                                          
I   "SOLVE"                                                                     
Cr1 "SOLVE INIT SPIN=-3"                                                        
I1   "SOLVE"                                                                    
Cr2 "SOLVE INIT SPIN=3"                                                         
Cr3 "SOLVE INIT SPIN=-3"                                                        
%ENDBLOCK SPECIES_ATOMIC_SET                                                    
%BLOCK SPECIES_LDOS_GROUPS                                                      
Cr                                                                              
I                                                                               
Cr1                                                                             
%ENDBLOCK SPECIES_LDOS_GROUPS                                                   
%BLOCK SPECIES_POT                                                              
Cr  "../../../../Cr.PBE-paw.abinit"                                             
I   "../../../../I.PBE-paw.abinit"                                              
Cr1 "../../../../Cr.PBE-paw.abinit"                                             
I1   "../../../../I.PBE-paw.abinit"                                             
Cr2 "../../../../Cr.PBE-paw.abinit"                                             
Cr3 "../../../../Cr.PBE-paw.abinit"                                             
%ENDBLOCK SPECIES_POT                                                           

--------------------------------------------------------------------------------
-------------------------------- END INPUT FILE --------------------------------
--------------------------------------------------------------------------------


 
 ESDF WARNING(1): "charge" (esdf_physical) has no units. Assume "e".
<<<<<<<<<<<<<<<<<<<<<<<<<<<<<<<<< Full system >>>>>>>>>>>>>>>>>>>>>>>>>>>>>>>>>>
<<<<<<<<<<<<<<<<<<<<<<<<<<< PAW Dataset information >>>>>>>>>>>>>>>>>>>>>>>>>>>
File: ../../../../Cr.PBE-paw.abinit; rc = 2.11 bohr; shape type =  2; rshape = 1.80 bohr;
  Atomic number: 24;  ionic charge: 14.000000
    Partial Wave 1: l = 0
    Partial Wave 2: l = 0
    Partial Wave 3: l = 1
    Partial Wave 4: l = 1
    Partial Wave 5: l = 2
    Partial Wave 6: l = 2
  Core charge supplied for Nonlinear Core Corrections
File: ../../../../I.PBE-paw.abinit; rc = 2.30 bohr; shape type =  2; rshape = 2.11 bohr;
  Atomic number: 53;  ionic charge:  7.000000
    Partial Wave 1: l = 0
    Partial Wave 2: l = 0
    Partial Wave 3: l = 1
    Partial Wave 4: l = 1
  Core charge supplied for Nonlinear Core Corrections
<<<<<<<<<<<<<<<<<<<<<<<<<<<<<<<<<<<<<<< >>>>>>>>>>>>>>>>>>>>>>>>>>>>>>>>>>>>>>>

-------------------------- Atom counting information ---------------------------
Symbol    Natoms    Nngwfs    Nprojs
  Cr       144      1872      2592
  I        432      1728      3456
.......   ......    ......    ......
Totals:    576      3600      6048
--------------------------------------------------------------------------------

=============================== PSINC grid sizes ===============================
                      Simulation cell:  175 x 175 x 117
                              FFT-box:  175 x 175 x 117
                                  PPD:    5 x   5 x   1
Grid space d1=  0.445563862424a0 (KE cutoff=  38.26345Eh =1041.20135eV)
Grid space d2=  0.445563862400a0 (KE cutoff=  38.26345Eh =1041.20135eV)
Grid space d3=  0.444294449711a0 (KE cutoff=  38.48241Eh =1047.15957eV)
================================================================================

********************* Fourier parallelisation information **********************
       Coarse grid (whole simulation cell) dimensions:    175   175   117
          Real-space ('12') slabs/proc (min max mean):      0     1     0
         Recip-space ('23') slabs/proc (min max mean):      0     1     0
********************************************************************************

********************* Fourier parallelisation information **********************
       Double grid (whole simulation cell) dimensions:    350   350   234
          Real-space ('12') slabs/proc (min max mean):      1     2     1
         Recip-space ('23') slabs/proc (min max mean):      1     2     1
********************************************************************************

********************* Fourier parallelisation information **********************
         Fine grid (whole simulation cell) dimensions:    700   700   468
          Real-space ('12') slabs/proc (min max mean):      3     4     3
         Recip-space ('23') slabs/proc (min max mean):      2     3     2
********************************************************************************
energy_and_force_init_cell: WARNING in internal_setup_spin:
        even number of electrons in cell and zero spin
        but continuing with spin-polarised calculation

Atom SCF Calculation for Cr : Z (AE atom) =  24 : Z (PS atom) =  14
Config String: 3s2.0 3p6.0 3d5.0 4s1.0 4p0.0 INIT SPIN=3
Orbitals (num,occ):  5     2.00 6.00 5.00 1.00 0.00
Orbitals   (num,l):  5        0    1    2    0    1
Atom SCF converged after  64 iterations to a total energy of    -87.07044631
Adjusting orbital occupancies:
Orbitals (num,spin,occ):  5  1     1.00 3.00 3.50 1.00 0.00
Orbitals   (num,spin,l):  5  1        0    1    2    0    1
Orbitals (num,spin,occ):  5  2     1.00 3.00 1.00 0.50 0.00
Orbitals   (num,spin,l):  5  2        0    1    2    0    1

Atom SCF Calculation for I  : Z (AE atom) =  53 : Z (PS atom) =   7
Config String: 5s2.0 5p5.0
Orbitals (num,occ):  2     2.00 5.00
Orbitals   (num,l):  2        0    1
Atom SCF converged after  28 iterations to a total energy of    -11.61352964

Atom SCF Calculation for I  : Z (AE atom) =  53 : Z (PS atom) =   7
Config String: 5s2.0 5p5.0
Orbitals (num,occ):  2     2.00 5.00
Orbitals   (num,l):  2        0    1
Atom SCF converged after  28 iterations to a total energy of    -11.61352964

Atom SCF Calculation for Cr : Z (AE atom) =  24 : Z (PS atom) =  14
Config String: 3s2.0 3p6.0 3d5.0 4s1.0 4p0.0 INIT SPIN=-3
Orbitals (num,occ):  5     2.00 6.00 5.00 1.00 0.00
Orbitals   (num,l):  5        0    1    2    0    1
Atom SCF converged after  64 iterations to a total energy of    -87.07044631
Adjusting orbital occupancies:
Orbitals (num,spin,occ):  5  1     1.00 3.00 1.00 0.50 0.00
Orbitals   (num,spin,l):  5  1        0    1    2    0    1
Orbitals (num,spin,occ):  5  2     1.00 3.00 3.50 1.00 0.00
Orbitals   (num,spin,l):  5  2        0    1    2    0    1

Atom SCF Calculation for Cr : Z (AE atom) =  24 : Z (PS atom) =  14
Config String: 3s2.0 3p6.0 3d5.0 4s1.0 4p0.0 INIT SPIN=3
Orbitals (num,occ):  5     2.00 6.00 5.00 1.00 0.00
Orbitals   (num,l):  5        0    1    2    0    1
Atom SCF converged after  64 iterations to a total energy of    -87.07044631
Adjusting orbital occupancies:
Orbitals (num,spin,occ):  5  1     1.00 3.00 3.50 1.00 0.00
Orbitals   (num,spin,l):  5  1        0    1    2    0    1
Orbitals (num,spin,occ):  5  2     1.00 3.00 1.00 0.50 0.00
Orbitals   (num,spin,l):  5  2        0    1    2    0    1

Atom SCF Calculation for Cr : Z (AE atom) =  24 : Z (PS atom) =  14
Config String: 3s2.0 3p6.0 3d5.0 4s1.0 4p0.0 INIT SPIN=-3
Orbitals (num,occ):  5     2.00 6.00 5.00 1.00 0.00
Orbitals   (num,l):  5        0    1    2    0    1
Atom SCF converged after  64 iterations to a total energy of    -87.07044631
Adjusting orbital occupancies:
Orbitals (num,spin,occ):  5  1     1.00 3.00 1.00 0.50 0.00
Orbitals   (num,spin,l):  5  1        0    1    2    0    1
Orbitals (num,spin,occ):  5  2     1.00 3.00 3.50 1.00 0.00
Orbitals   (num,spin,l):  5  2        0    1    2    0    1

Determining parallel strategy ...... done
Calculating Ewald energy ...            31475.177180 Hartree
Basis initialisation ...
... done

============================= Charge Augmentation ==============================
                           Aug box size:   49 x  49 x  45
================================================================================
Sparse matrix initialisation ...
 done

Reading NGWFs from file "Cr2I6_bilayer_HT_AFM_AFM_SP.tightbox_ngwfs" ... done

================================= Core Density =================================
               Core den box size:  125 x 125 x 105
================================================================================

Reading density kernel from file "Cr2I6_bilayer_HT_AFM_AFM_SP.dkn" ... done
Writing NGWF plot files in formats: CUBE ... done

>>> Optimising kernel for current NGWFs:


>>> Density kernel optimised for the current NGWF basis:
     ~~~~~~~~~~~~~~~~~~~~~~~~~~~~~~~~~~~~~~~~~~~~~~~~~~~~~~~~~~~
     Total energy                =  -1.76364717230728E+04  Eh
     Estimated bandgap (UP spin) =   3.9646E-02  Eh
     Estimated bandgap (DN spin) =   3.9818E-02  Eh
     RMS occupancy error         =   1.1221E-15
     [H,K] commutator            =   1.5402E-04
     UP spin occupancy bounds    = [  0.000:  1.000]
     DN spin occupancy bounds    = [  0.000:  1.000]
     ~~~~~~~~~~~~~~~~~~~~~~~~~~~~~~~~~~~~~~~~~~~~~~~~~~~~~~~~~~~




################################################################################
########################### NGWF CG iteration  001 #############################
################################################################################

>>> Checking for convergence of NGWFs:   NOT CONVERGED
  ========================================================================
         NGWF RMS gradient =  6.2038E-06 <  1.0000E+01  | CONVERGED
  ========================================================================

>>> Improving NGWFs using line search:
  ========================================================================
   Predicted total energy    =      -1.76365421164793E+04 Eh
   Predicted gain in energy  =      -7.03934065422800E-02 Eh
  ========================================================================


>>> Optimising kernel for current NGWFs:
   iter  |      energy (Eh)       | rms gradient |  commutator  |   dE (Eh)
    1        -1.763654582659E+04     2.8752E-04     1.4522E-04
Finished density kernel iterations (   1)


>>> Density kernel optimised for the current NGWF basis:
     ~~~~~~~~~~~~~~~~~~~~~~~~~~~~~~~~~~~~~~~~~~~~~~~~~~~~~~~~~~~
     Total energy                =  -1.76365458265870E+04  Eh
     Estimated bandgap (UP spin) =   4.0469E-02  Eh
     Estimated bandgap (DN spin) =   4.0505E-02  Eh
     RMS occupancy error         =   3.8234E-09
     [H,K] commutator            =   1.4522E-04
     UP spin occupancy bounds    = [ -0.000:  1.000]
     DN spin occupancy bounds    = [ -0.000:  1.000]
     ~~~~~~~~~~~~~~~~~~~~~~~~~~~~~~~~~~~~~~~~~~~~~~~~~~~~~~~~~~~


================================================================================
           ---------------- ENERGY COMPONENTS (Eh) ----------------
           | Kinetic                    :     3645.72317810006280 |
           | Core Hartree               :   -95368.30589830760440 |
           | CoreHart (non-coul chg cor):        0.00000000000000
           | Hartree                    :    46408.96952853019320 |
           | Exchange-correlation       :    -2499.67631874939889 |
           | Ewald                      :    31475.17718035518920 |
           | Dij0                       :    -1111.14599757748692 |
           | Dijhartree                 :      496.56577948051148 |
           | Exc [AE core]              :   -84833.42141766657010 |
           | Exc DC [AE core]           :    -3281.39235923690194 |
           | Exc [PS core]              :    -2067.08826773962664 |
           | Exc DC [PS core]           :    -1967.98509957149463 |
           | Exc [Core]                 :   -82082.47987150846170 |
           | Total [Sphere]             :    -1298.43349651545577 |
           | Total                      :   -17636.54582658701840 |
           --------------------------------------------------------
           Integrated compensation chrg.:      377.36762721610194
           Integrated density           :     5039.99987231085652
           Integrated spin density      :       -0.00000000014788
           Integrated |spin density|    :      593.71415895367159
================================================================================

WARNING: maximum number of NGWF CG iterations (   1) exceeded!

                        <<<<< CALCULATION SUMMARY >>>>>                         
|ITER|    RMS GRADIENT   |     TOTAL ENERGY    |   step   |     Epredicted              
   0     0.00000620381680 -17636.54582658701470  <-- CG                                 

======================== Writing density and potential =========================
Writing "Cr2I6_bilayer_HT_AFM_AFM_SP_ps_density.cube" ... done
Writing "Cr2I6_bilayer_HT_AFM_AFM_SP_ps_spindensity.cube" ... done
Writing "Cr2I6_bilayer_HT_AFM_AFM_SP_ae_density.cube" ... done
Writing "Cr2I6_bilayer_HT_AFM_AFM_SP_ae_spindensity.cube" ... done
Writing "Cr2I6_bilayer_HT_AFM_AFM_SP_potential.cube" ... done
Writing "Cr2I6_bilayer_HT_AFM_AFM_SP_electrostatic_potential.cube" ... done
================================================================================

    Mulliken Atomic Populations
    ---------------------------
Species  Ion    Total   Charge (e)    Spin (hbar)
=================================================
  Cr     1      13.854      0.146      1.92
  Cr     2      13.854      0.146      1.92
  I      3       7.052     -0.052     -0.13
  I      4       7.043     -0.043     -0.14
  I      5       7.043     -0.043     -0.14
  I      6       7.052     -0.052     -0.14
  I      7       7.051     -0.051     -0.14
  I      8       7.051     -0.051     -0.14
  Cr     9      13.854      0.146     -1.92
  Cr    10      13.854      0.146     -1.92
  I     11       7.052     -0.052      0.14
  I     12       7.051     -0.051      0.14
  I     13       7.051     -0.051      0.14
  I     14       7.052     -0.052      0.13
  I     15       7.043     -0.043      0.14
  I     16       7.043     -0.043      0.14
  Cr    17      13.854      0.146      1.92
  Cr    18      13.854      0.146      1.92
  I     19       7.052     -0.052     -0.13
  I     20       7.043     -0.043     -0.14
  I     21       7.043     -0.043     -0.14
  I     22       7.052     -0.052     -0.14
  I     23       7.051     -0.051     -0.14
  I     24       7.051     -0.051     -0.14
  Cr    25      13.854      0.146     -1.92
  Cr    26      13.854      0.146     -1.92
  I     27       7.052     -0.052      0.14
  I     28       7.051     -0.051      0.14
  I     29       7.051     -0.051      0.14
  I     30       7.052     -0.052      0.13
  I     31       7.043     -0.043      0.14
  I     32       7.043     -0.043      0.14
  Cr    33      13.854      0.146      1.92
  Cr    34      13.854      0.146      1.92
  I     35       7.052     -0.052     -0.13
  I     36       7.043     -0.043     -0.14
  I     37       7.043     -0.043     -0.14
  I     38       7.052     -0.052     -0.14
  I     39       7.051     -0.051     -0.14
  I     40       7.051     -0.051     -0.14
  Cr    41      13.854      0.146     -1.92
  Cr    42      13.854      0.146     -1.92
  I     43       7.052     -0.052      0.14
  I     44       7.051     -0.051      0.14
  I     45       7.051     -0.051      0.14
  I     46       7.052     -0.052      0.13
  I     47       7.043     -0.043      0.14
  I     48       7.043     -0.043      0.14
  Cr    49      13.854      0.146      1.92
  Cr    50      13.854      0.146      1.92
  I     51       7.052     -0.052     -0.13
  I     52       7.043     -0.043     -0.14
  I     53       7.043     -0.043     -0.14
  I     54       7.052     -0.052     -0.14
  I     55       7.051     -0.051     -0.14
  I     56       7.051     -0.051     -0.14
  Cr    57      13.854      0.146     -1.92
  Cr    58      13.854      0.146     -1.92
  I     59       7.052     -0.052      0.14
  I     60       7.051     -0.051      0.14
  I     61       7.051     -0.051      0.14
  I     62       7.052     -0.052      0.13
  I     63       7.043     -0.043      0.14
  I     64       7.043     -0.043      0.14
  Cr    65      13.854      0.146      1.92
  Cr    66      13.854      0.146      1.92
  I     67       7.052     -0.052     -0.13
  I     68       7.043     -0.043     -0.14
  I     69       7.043     -0.043     -0.14
  I     70       7.052     -0.052     -0.14
  I     71       7.051     -0.051     -0.14
  I     72       7.051     -0.051     -0.14
  Cr    73      13.854      0.146     -1.92
  Cr    74      13.854      0.146     -1.92
  I     75       7.052     -0.052      0.14
  I     76       7.051     -0.051      0.14
  I     77       7.051     -0.051      0.14
  I     78       7.052     -0.052      0.13
  I     79       7.043     -0.043      0.14
  I     80       7.043     -0.043      0.14
  Cr    81      13.854      0.146      1.92
  Cr    82      13.854      0.146      1.92
  I     83       7.052     -0.052     -0.13
  I     84       7.043     -0.043     -0.14
  I     85       7.043     -0.043     -0.14
  I     86       7.052     -0.052     -0.14
  I     87       7.051     -0.051     -0.14
  I     88       7.051     -0.051     -0.14
  Cr    89      13.854      0.146     -1.92
  Cr    90      13.854      0.146     -1.92
  I     91       7.052     -0.052      0.14
  I     92       7.051     -0.051      0.14
  I     93       7.051     -0.051      0.14
  I     94       7.052     -0.052      0.13
  I     95       7.043     -0.043      0.14
  I     96       7.043     -0.043      0.14
  Cr    97      13.854      0.146      1.92
  Cr    98      13.854      0.146      1.92
  I     99       7.052     -0.052     -0.13
  I    100       7.043     -0.043     -0.14
  I    101       7.043     -0.043     -0.14
  I    102       7.052     -0.052     -0.14
  I    103       7.051     -0.051     -0.14
  I    104       7.051     -0.051     -0.14
  Cr   105      13.854      0.146     -1.92
  Cr   106      13.854      0.146     -1.92
  I    107       7.052     -0.052      0.14
  I    108       7.051     -0.051      0.14
  I    109       7.051     -0.051      0.14
  I    110       7.052     -0.052      0.13
  I    111       7.043     -0.043      0.14
  I    112       7.043     -0.043      0.14
  Cr   113      13.854      0.146      1.92
  Cr   114      13.854      0.146      1.92
  I    115       7.052     -0.052     -0.13
  I    116       7.043     -0.043     -0.14
  I    117       7.043     -0.043     -0.14
  I    118       7.052     -0.052     -0.14
  I    119       7.051     -0.051     -0.14
  I    120       7.051     -0.051     -0.14
  Cr   121      13.854      0.146     -1.92
  Cr   122      13.854      0.146     -1.92
  I    123       7.052     -0.052      0.14
  I    124       7.051     -0.051      0.14
  I    125       7.051     -0.051      0.14
  I    126       7.052     -0.052      0.13
  I    127       7.043     -0.043      0.14
  I    128       7.043     -0.043      0.14
  Cr   129      13.854      0.146      1.92
  Cr   130      13.854      0.146      1.92
  I    131       7.052     -0.052     -0.13
  I    132       7.043     -0.043     -0.14
  I    133       7.043     -0.043     -0.14
  I    134       7.052     -0.052     -0.14
  I    135       7.051     -0.051     -0.14
  I    136       7.051     -0.051     -0.14
  Cr   137      13.854      0.146     -1.92
  Cr   138      13.854      0.146     -1.92
  I    139       7.052     -0.052      0.14
  I    140       7.051     -0.051      0.14
  I    141       7.051     -0.051      0.14
  I    142       7.052     -0.052      0.13
  I    143       7.043     -0.043      0.14
  I    144       7.043     -0.043      0.14
  Cr   145      13.854      0.146      1.92
  Cr   146      13.854      0.146      1.92
  I    147       7.052     -0.052     -0.13
  I    148       7.043     -0.043     -0.14
  I    149       7.043     -0.043     -0.14
  I    150       7.052     -0.052     -0.14
  I    151       7.051     -0.051     -0.14
  I    152       7.051     -0.051     -0.14
  Cr   153      13.854      0.146     -1.92
  Cr   154      13.854      0.146     -1.92
  I    155       7.052     -0.052      0.14
  I    156       7.051     -0.051      0.14
  I    157       7.051     -0.051      0.14
  I    158       7.052     -0.052      0.13
  I    159       7.043     -0.043      0.14
  I    160       7.043     -0.043      0.14
  Cr   161      13.854      0.146      1.92
  Cr   162      13.854      0.146      1.92
[...]
*    Cr    409      0.00000504  -0.00013424  -0.00002190 *
*    Cr    410      0.00004062   0.00015149  -0.00002175 *
*    I     411      0.00411413   0.00000447  -0.00756748 *
*    I     412     -0.00203387  -0.00362332  -0.00757988 *
*    I     413     -0.00204640   0.00363937  -0.00757516 *
*    I     414     -0.00399798  -0.00000448   0.00574607 *
*    I     415      0.00221285   0.00365602   0.00494378 *
*    I     416      0.00221846  -0.00368369   0.00493989 *
*    Cr    417      0.00007002  -0.00011424   0.00002477 *
*    Cr    418     -0.00003234   0.00017572   0.00002008 *
*    I     419      0.00399306   0.00001152  -0.00574675 *
*    I     420     -0.00221596  -0.00365746  -0.00494428 *
*    I     421     -0.00222418   0.00368365  -0.00493988 *
*    I     422     -0.00411887   0.00000002   0.00756735 *
*    I     423      0.00203421   0.00362370   0.00758191 *
*    I     424      0.00203609  -0.00364122   0.00757624 *
*    Cr    425      0.00002820  -0.00015567  -0.00002195 *
*    Cr    426      0.00001929   0.00017673  -0.00002049 *
*    I     427      0.00411206   0.00000219  -0.00756735 *
*    I     428     -0.00203399  -0.00362442  -0.00757992 *
*    I     429     -0.00204645   0.00363903  -0.00757615 *
*    I     430     -0.00399790  -0.00000502   0.00574694 *
*    I     431      0.00221429   0.00365652   0.00494554 *
*    I     432      0.00221827  -0.00368249   0.00493904 *
*    Cr    433      0.00007690  -0.00012657   0.00002393 *
*    Cr    434     -0.00003643   0.00015337   0.00002314 *
*    I     435      0.00399197   0.00000826  -0.00574611 *
*    I     436     -0.00221437  -0.00365796  -0.00494400 *
*    I     437     -0.00222617   0.00368024  -0.00493877 *
*    I     438     -0.00411796  -0.00000159   0.00756856 *
*    I     439      0.00203307   0.00362490   0.00758244 *
*    I     440      0.00203615  -0.00364401   0.00757762 *
*    Cr    441      0.00002957  -0.00017710  -0.00002133 *
*    Cr    442      0.00001119   0.00014746  -0.00001949 *
*    I     443      0.00411216   0.00000462  -0.00756604 *
*    I     444     -0.00203263  -0.00362366  -0.00757939 *
*    I     445     -0.00204413   0.00363812  -0.00757446 *
*    I     446     -0.00399791  -0.00000755   0.00574628 *
*    I     447      0.00221469   0.00365774   0.00494368 *
*    I     448      0.00221677  -0.00368582   0.00494030 *
*    Cr    449      0.00007301  -0.00010848   0.00002544 *
*    Cr    450     -0.00003923   0.00015269   0.00002079 *
*    I     451      0.00399277   0.00000918  -0.00574605 *
*    I     452     -0.00221494  -0.00365726  -0.00494497 *
*    I     453     -0.00222637   0.00368056  -0.00493886 *
*    I     454     -0.00411790  -0.00000169   0.00756833 *
*    I     455      0.00203330   0.00362446   0.00758232 *
*    I     456      0.00203659  -0.00364329   0.00757668 *
*    Cr    457      0.00002550  -0.00015666  -0.00002312 *
*    Cr    458      0.00001783   0.00015152  -0.00002641 *
*    I     459      0.00411329   0.00000740  -0.00756793 *
*    I     460     -0.00203406  -0.00362345  -0.00757968 *
*    I     461     -0.00204248   0.00364207  -0.00757560 *
*    I     462     -0.00399832  -0.00000709   0.00574717 *
*    I     463      0.00221347   0.00365689   0.00494437 *
*    I     464      0.00221942  -0.00368204   0.00493885 *
*    Cr    465      0.00006939  -0.00010717   0.00002511 *
*    Cr    466      0.00006765   0.00009456   0.00002138 *
*    I     467      0.00399426   0.00001199  -0.00574614 *
*    I     468     -0.00221356  -0.00365808  -0.00494561 *
*    I     469     -0.00222416   0.00368331  -0.00493938 *
*    I     470     -0.00411952  -0.00000490   0.00756946 *
*    I     471      0.00203391   0.00362425   0.00758319 *
*    I     472      0.00203570  -0.00364631   0.00757858 *
*    Cr    473      0.00002958  -0.00015813  -0.00002155 *
*    Cr    474      0.00000979   0.00016245  -0.00002269 *
*    I     475      0.00411517   0.00000834  -0.00756808 *
*    I     476     -0.00203417  -0.00362342  -0.00758074 *
*    I     477     -0.00204190   0.00364399  -0.00757530 *
*    I     478     -0.00399658  -0.00000527   0.00574566 *
*    I     479      0.00221355   0.00365638   0.00494487 *
*    I     480      0.00221999  -0.00368019   0.00493807 *
*    Cr    481     -0.00003283  -0.00015925   0.00001724 *
*    Cr    482      0.00007373   0.00008751   0.00002221 *
*    I     483      0.00399565   0.00001120  -0.00574662 *
*    I     484     -0.00221446  -0.00365644  -0.00494614 *
*    I     485     -0.00222496   0.00368301  -0.00494001 *
*    I     486     -0.00411840  -0.00000101   0.00756642 *
*    I     487      0.00203232   0.00362164   0.00758123 *
*    I     488      0.00203856  -0.00364215   0.00757836 *
*    Cr    489      0.00002798  -0.00015213  -0.00001950 *
*    Cr    490      0.00001569   0.00016634  -0.00002031 *
*    I     491      0.00411265   0.00000396  -0.00756667 *
*    I     492     -0.00203343  -0.00362305  -0.00757987 *
*    I     493     -0.00204507   0.00363979  -0.00757566 *
*    I     494     -0.00399564  -0.00000591   0.00574562 *
*    I     495      0.00221405   0.00365606   0.00494434 *
*    I     496      0.00221834  -0.00368353   0.00493927 *
*    Cr    497     -0.00002151  -0.00016114   0.00002149 *
*    Cr    498     -0.00003446   0.00015590   0.00002136 *
*    I     499      0.00399382   0.00000902  -0.00574649 *
*    I     500     -0.00221424  -0.00365858  -0.00494476 *
*    I     501     -0.00222671   0.00368225  -0.00493968 *
*    I     502     -0.00411770  -0.00000050   0.00756801 *
*    I     503      0.00203225   0.00362158   0.00758146 *
*    I     504      0.00203557  -0.00364304   0.00757395 *
*    Cr    505      0.00002721  -0.00013999  -0.00002649 *
*    Cr    506      0.00000921   0.00016748  -0.00002017 *
*    I     507      0.00411350   0.00000315  -0.00756765 *
*    I     508     -0.00203338  -0.00362284  -0.00758053 *
*    I     509     -0.00204587   0.00363890  -0.00757473 *
*    I     510     -0.00399785  -0.00000665   0.00574602 *
*    I     511      0.00221391   0.00365520   0.00494477 *
*    I     512      0.00221931  -0.00368316   0.00493879 *
*    Cr    513     -0.00001800  -0.00016854   0.00002309 *
*    Cr    514     -0.00003784   0.00016915   0.00002036 *
*    I     515      0.00399175   0.00000908  -0.00574326 *
*    I     516     -0.00221449  -0.00365814  -0.00494450 *
*    I     517     -0.00222819   0.00367990  -0.00493953 *
*    I     518     -0.00411921  -0.00000233   0.00756870 *
*    I     519      0.00203235   0.00362340   0.00758105 *
*    I     520      0.00203485  -0.00364503   0.00757795 *
*    Cr    521      0.00001323  -0.00013807  -0.00001933 *
*    Cr    522      0.00004073   0.00016149  -0.00002506 *
*    I     523      0.00411238   0.00000456  -0.00756721 *
*    I     524     -0.00203429  -0.00362300  -0.00758112 *
*    I     525     -0.00204600   0.00364041  -0.00757479 *
*    I     526     -0.00399927  -0.00000891   0.00574734 *
*    I     527      0.00221294   0.00365626   0.00494499 *
*    I     528      0.00221773  -0.00368559   0.00493960 *
*    Cr    529     -0.00002454  -0.00019139   0.00002181 *
*    Cr    530     -0.00004212   0.00014619   0.00001793 *
*    I     531      0.00399045   0.00000854  -0.00574567 *
*    I     532     -0.00221474  -0.00365768  -0.00494523 *
*    I     533     -0.00222678   0.00368054  -0.00494050 *
*    I     534     -0.00411821  -0.00000249   0.00756953 *
*    I     535      0.00203261   0.00362289   0.00758271 *
*    I     536      0.00203448  -0.00364419   0.00757707 *
*    Cr    537      0.00003332  -0.00017315  -0.00002098 *
*    Cr    538      0.00002277   0.00015121  -0.00002565 *
*    I     539      0.00411554   0.00000635  -0.00756839 *
*    I     540     -0.00203325  -0.00362353  -0.00758000 *
*    I     541     -0.00204323   0.00364377  -0.00757611 *
*    I     542     -0.00399904  -0.00000798   0.00574810 *
*    I     543      0.00221318   0.00365588   0.00494352 *
*    I     544      0.00221721  -0.00368408   0.00493811 *
*    Cr    545     -0.00002444  -0.00017241   0.00002046 *
*    Cr    546     -0.00004325   0.00014705   0.00001702 *
*    I     547      0.00399301   0.00001240  -0.00574686 *
*    I     548     -0.00221616  -0.00365644  -0.00494476 *
*    I     549     -0.00222546   0.00368136  -0.00493945 *
*    I     550     -0.00412011  -0.00000533   0.00757004 *
*    I     551      0.00203323   0.00362370   0.00758220 *
*    I     552      0.00203309  -0.00364653   0.00757796 *
*    Cr    553      0.00003786  -0.00015798  -0.00002286 *
*    Cr    554      0.00001478   0.00015216  -0.00001879 *
*    I     555      0.00411485   0.00000906  -0.00756766 *
*    I     556     -0.00203404  -0.00362335  -0.00758089 *
*    I     557     -0.00204263   0.00364417  -0.00757610 *
*    I     558     -0.00399600  -0.00000359   0.00574497 *
*    I     559      0.00221318   0.00365623   0.00494484 *
*    I     560      0.00221847  -0.00368169   0.00493746 *
*    Cr    561     -0.00002908  -0.00016232   0.00001464 *
*    Cr    562     -0.00004528   0.00014997   0.00001800 *
*    I     563      0.00399365   0.00001214  -0.00574633 *
*    I     564     -0.00221521  -0.00365657  -0.00494510 *
*    I     565     -0.00222484   0.00368496  -0.00494169 *
*    I     566     -0.00411819  -0.00000338   0.00756787 *
*    I     567      0.00203239   0.00362306   0.00758175 *
*    I     568      0.00203639  -0.00364228   0.00757629 *
*    Cr    569      0.00003385  -0.00015496  -0.00001854 *
*    Cr    570      0.00001462   0.00016213  -0.00001940 *
*    I     571      0.00411230   0.00000675  -0.00756725 *
*    I     572     -0.00203345  -0.00362213  -0.00758014 *
*    I     573     -0.00204278   0.00364039  -0.00757496 *
*    I     574     -0.00399679  -0.00000441   0.00574688 *
*    I     575      0.00221393   0.00365753   0.00494358 *
*    I     576      0.00222006  -0.00368124   0.00493900 *
*                                                        *
**********************************************************
* TOTAL:           -0.00000000   0.00000000   0.00000000 *
**********************************************************
 
 
***********************************************************
********** Summary of Forces (values in Eh/a) *************
*                                                         *
* ---------------------- Minimum ------------------------ *
* Atom:       354, |F|min =    0.00011366                 *
* Components:     Fx|min       Fy|min       Fz|min        *
*               0.00006188   0.00009339   0.00001915      *
*                                                         *
* ---------------------- Maximum ------------------------ *
* Atom:       216, |F|max =    0.00865320                 *
* Components:     Fx|max       Fy|max       Fz|max        *
*               0.00203429  -0.00364799   0.00757838      *
*                                                         *
* ---------------- Root Mean Square Force --------------- *
*                  |F|rms =    0.00669346                 *
* Components:     Fx|rms       Fy|rms       Fz|rms        *
*               0.00252586   0.00258302   0.00563476      *
***********************************************************
 

------------------------------ TIMING INFORMATION ------------------------------
AVERAGE TIME:    1838.986s on    150 proc(s)                                    
TOTAL TIME:      1838.986s on    150 proc(s)                                    
==================== AVERAGE TIMINGS FROM ALL PROCS (CUMULATIVE) =====================
|| TAG                                         #calls     cpu time   %total  Gflops ||
|| hash_table_free                            :     4        0.00s   0.000%  ------ ||
|| density_fftbox_interp_mult_imbal           :   500        0.00s   0.000%  ------ ||
|| sw_bessel_init_cpu                         :     1        0.01s   0.000%  ------ || (1 procs only)
|| onetep.F90 main loop imbalance             :     1        0.00s   0.000%  ------ ||
|| ewald_calculate_forces_realspace           :     1        0.00s   0.000%  ------ ||
|| onetep.F90 final imbalance                 :     1        0.00s   0.000%  ------ ||
|| paw_dij_hartree                            :     9        0.00s   0.000%  ------ ||
|| sparse_set_to_garbage                      :    30        0.00s   0.000%  ------ ||
|| sparse_spam3toblacs_real_fast_imbal        :     8        0.00s   0.000%  ------ ||
|| sparse_blacstospam3_real_fast_imbal        :    24        0.01s   0.001%  ------ ||
|| sparse_spam3toblacs_real_fast_B2           :  1200        0.02s   0.001%  ------ ||
|| linalg_dgemv                               :    29        0.02s   0.001%  ------ ||
|| ewald_calculate_energy                     :     1        0.04s   0.002%  ------ ||
|| ewald_calculate_forces_recipspace          :     1        0.06s   0.003%  ------ ||
|| ewald_calculate_forces                     :     1        0.06s   0.003%  ------ ||
|| basis_extract_function_from_box            :   216        0.06s   0.003%  ------ ||
|| sw_init                                    :    18        0.08s   0.004%  ------ ||
|| pseudo_make_structure_factor               :     1        0.15s   0.008%  ------ ||
|| augmentation_density_forces                :     1        0.23s   0.012%  ------ ||
|| lnv_gradient_norm                          :     1        0.31s   0.017%  ------ ||
|| restart_kernel_read                        :     1        0.37s   0.020%  ------ ||
|| sparse_trace                               :   205        0.38s   0.021%  ------ ||
|| fourier_filter_cell                        :    10        0.43s   0.024% 410.106 ||
|| paw_tcore_hartree_on_grid                  :     1        0.49s   0.027%  ------ ||
|| sparse_spam3toblacs_real_fast_B1           :  1200        0.55s   0.030%  ------ ||
|| hartree_on_grid_single                     :     8        0.56s   0.030%  ------ ||
|| paw_tcore_hartree_calc_forces              :     1        0.61s   0.033%  ------ ||
|| sparse_spam3toblacs_real_fast              :     8        0.61s   0.033%  ------ ||
|| kernel_fix                                 :     1        0.76s   0.042%  ------ ||
|| sparse_embed_array_hotelling_invert        :     4        0.92s   0.050%  ------ ||
|| fourier_interpolate_cell                   :    20        0.94s   0.051% 378.970 ||
|| paw_nlcc_calculate_forces                  :     1        1.18s   0.064%  ------ ||
|| kernel_purify                              :     8        1.18s   0.064%  ------ ||
|| dense_eigensolve                           :     2        1.20s   0.065%  ------ ||
|| paw_tcore_density                          :     1        1.22s   0.066%  ------ ||
|| aug_nonlocal_mat_spam3_embed_array         :     6        1.34s   0.073%  ------ ||
|| augmentation_screen_dij_spam3              :     7        1.40s   0.076%  ------ ||
|| paw_dataset_init                           :     2        1.51s   0.082%  ------ ||
|| paw_sphere_density_on_grid                 :     1        1.52s   0.082%  ------ ||
|| ngwf_gradient_coeffs                       :     2        1.54s   0.084%  ------ ||
|| paw_dij_xc                                 :     9        1.80s   0.098%  ------ ||
|| sparse_init                                :     1        1.83s   0.100%  ------ ||
|| basis_copy_function_to_box                 :  1320        2.09s   0.114%  ------ ||
|| fourier_apply_cell_forward                 :    73        2.62s   0.142% 445.005 ||
|| fourier_apply_box_pair                     :   254        2.80s   0.152%  5.313k ||
|| fourier_apply_cell_backward                :    73        2.95s   0.160% 395.153 ||
|| sparse_blacstospam3_real_fast              :    24        3.56s   0.193%  ------ ||
|| restart_ngwfs_tightbox_input               :     1        4.32s   0.235%  ------ ||
|| aug_density_on_grid_spam3                  :    10        4.76s   0.259%  ------ ||
|| xc_energy_potential                        :     8        5.27s   0.286%  ------ ||
|| paw_species_calc_proj_prec_mat             :     1        5.95s   0.323%  ------ ||
|| sparse_product                             :   502        6.83s   0.372%  ------ ||
|| fourier_filter                             :   170        7.96s   0.433%  ------ ||
|| projectors_init_fftbox_recip               :    24        8.51s   0.463%  ------ ||
|| energy_and_force_init_cell                 :     1        9.44s   0.513%  ------ ||
|| fourier_interpolate                        :   170       12.91s   0.702%  ------ ||
|| integrals_grad_spam3                       :     1       13.95s   0.759%  ------ ||
|| nonsc_forces_ngwfs_calc                    :     1       13.95s   0.759%  ------ ||
|| function_ops_brappd_ketppd_spam3           :     4       14.12s   0.768%  ------ ||
|| cell_grid_deposit_box_real                 :  1238       14.93s   0.812%  ------ ||
|| projectors_func_grad_ovlp_box_spam3        :     3       18.20s   0.990%  ------ ||
|| aug_nl_calculate_forces                    :     1       19.04s   1.036%  ------ ||
|| density_fftbox_deposit_to_cell             :   500       22.75s   1.237%  ------ ||
|| projectors_func_ovlp_box_spam3             :     4       22.96s   1.248%  ------ ||
|| basis_dot_function_with_box                : 461.5k      34.83s   1.894%  ------ ||
|| eigenstates_calculate                      :     1       36.54s   1.987%  ------ ||
|| potential_apply_to_ngwf_batch              :    12       38.65s   2.102%  ------ ||
|| hamiltonian_energy_components              :     1       38.95s   2.118%  ------ ||
|| integrals_kinetic_spam3                    :     4       43.00s   2.338%  ------ ||
|| integrals_locpot_mat_els_batch             :    12       57.28s   3.115%  ------ ||
|| projectors_gradient_batch                  :     8       71.67s   3.897%  ------ ||
|| lnv_denskernel_optimise_cg                 :     1       72.04s   3.917%  ------ ||
|| fourier_apply_box                          :  2877       91.49s   4.975%  5.863k ||
|| fourier_interpolate_product                :   480       95.76s   5.207%  ------ ||
|| integrals_locpot_dbl_grid                  :     6       95.97s   5.219%  ------ ||
|| forces_calculate                           :     1       97.02s   5.276%  ------ ||
|| density_fftbox_interpolate_multiply        :   500      100.07s   5.442%  ------ ||
|| basis_add_function_to_box                  : 1.482M     146.27s   7.954%  ------ ||
|| cell_grid_extract_box_real                 :   394      176.57s   9.602%  ------ ||
|| density_batch_interp_deposit               :    40      177.51s   9.653%  ------ ||
|| density_batch_row_sums                     :    40      188.08s  10.227%  ------ ||
|| hamiltonian_lhxc_calculate                 :     6      230.57s  12.538%  ------ ||
|| density_on_dbl_grid                        :    20      367.33s  19.975%  ------ ||
|| projectors_grad_precond_batch              :     8      432.93s  23.542%  ------ ||
|| properties_calculate                       :     1      504.22s  27.418%  ------ ||
|| ngwf_gradient_build_batch                  :     8      544.49s  29.608%  ------ ||
|| ngwf_gradient_batch                        :     8      791.44s  43.037%  ------ ||
|| ngwf_gradient_lnv                          :     2      815.53s  44.347%  ------ ||
|| ngwf_cg_optimise                           :     1     1176.64s  63.983%  ------ ||
|| energy_and_forces                          :     1     1828.28s  99.418%  ------ ||
|| total_time                                 :     1     1838.99s 100.000%  ------ ||
======================================================================================
Overhead of generating timer report: 
- 0 ms averaging over threads,
- 8 ms ensuring consistency across MPI ranks,
- 0 ms printing in order.

Job completed: 31-05-2025 10:20 (+0100)

onetep_launcher: ONETEP seems to have finished correctly (zero exit code).
                 Brought to you by PID 96338 on nid001586.
