==================================================================================
It's Fri 30 May 2025 10:24:13 PM BST.
*** Starting onetep_launcher (node nid002855, PIDs 32898 32899 32900 32901 32902 32903)...
    - ONETEP arguments: Cr2I6_bilayer_HT_AFM_AFM_SP.dat
    - Current directory: /mnt/lustre/a2fs-work3/work/e89/e89/phsmea/CrI3_onetep_U/U_2.97/HT_AFM/HT_AFM_AFM_J/sp
    - Launcher executable directory: /mnt/lustre/a2fs-work3/work/e89/e89/phsmea/CrI3_onetep_U/U_2.97/HT_AFM/HT_AFM_AFM_J/sp
    - (-e) ONETEP executable specified through command-line: /work/e89/e89/phsmea/onetep.archer2_2024_cray_3
      ... trying /work/e89/e89/phsmea/onetep.archer2_2024_cray_3
          -> looks OK
*** Setting up environment...
    - (-s) Process stack size: unlimited
    - (-t) OMP_NUM_THREADS: 16
    - (-o) OMP_STACKSIZE: 64M
    - (-c) Maximum core file size: 2048000
    - (-d) decfort_dump_flag: n
    - (-m) I_MPI_OFA_TRANSLATION_CACHE: 0
    - (-m) I_MPI_DAPL_TRANSLATION_CACHE: 0
    - (-m) I_MPI_DAPL_UD_TRANSLATION_CACHE: 0
*** Starting ONETEP...
    - /work/e89/e89/phsmea/onetep.archer2_2024_cray_3 Cr2I6_bilayer_HT_AFM_AFM_SP.dat
=================================================================================
_________________________________________________________________________________
 +---------------------------------------------------------------+
 |                                                               |
 |        ####### #     # ####### ####### ####### ######         |
 |        #     # ##    # #          #    #       #     #        |
 |        #     # # #   # #          #    #       #     #        |
 |        #     # #  #  # #####      #    #####   ######         |
 |        #     # #   # # #          #    #       #              |
 |        #     # #    ## #          #    #       #              |
 |        ####### #     # #######    #    ####### #              |
 |                                                               |
 |        Linear-Scaling Ab Initio Total Energy Program          |
 |                                                               |
 |          Release for academic collaborators of ODG            |
 |                                             Version 7.3.0     |
 | Remote: git@github.com:Miesaz/onetep_mea.git                  |
 | Local branch: master                                          |
 | Commit ID: 4af45e89288c8df5499704252eec3e032ee3d0c8           |
 | Date: Tue Aug 6 11:28:44 2024 +0100                           |
 | Locally modified files:                                       |
 |   src/hubbard_build_mod.F90                                   |
 |   src/services_mod.F90                                        |
 |                                                               |
 +---------------------------------------------------------------+
 |                                                               |
 |  Authors:                                                     |
 |  Jacek Dziedzic, Peter D. Haynes, Nicholas D. M. Hine,        |
 |  Arash A. Mostofi, Mike C. Payne and Chris-Kriton Skylaris    |
 |                                                               |
 |  Contributors:                                                |
 |  J. Aarons, L. Andrinopoulos, P. W. Avraam, R. A. Bell,       |
 |  A. Bhandari, G. A. Bramley, R. J. Charlton, S. J. Clark,     |
 |  R. J. Clements, G. C. Constantinescu, F. Corsetti,           |
 |  N. Corsini, O. Dieguez, S. M. M. Dubois, K. K. B. Duff,      |
 |  J. M. Escartin, M. Escobar Azor, A. Greco,                   |
 |  H. Helal, Q. O. Hill, L. P. Lee, J.-H. Li,                   |
 |  T. Li, E. B. Linscott, G. Moynihan, D. D. O`Regan,           |
 |  O. K. Okan, E. Parkinson, M. J. S. Phipps,                   |
 |  C. J. Pickard, J. C. A. Prentice, M. I. J. Probert,          |
 |  L. E. Ratcliff, M. Robinson, A. Ruiz Serrano,                |
 |  M. dos Santos Dias, J. S. Spencer, E. W. Tait,               |
 |  G. Teobaldi, D. Turban, V. Vitale, K. A. Wilkinson,          |
 |  C. Weber, J. C. Womack, Chengcheng Xiao, N. Yeung,           |
 |  and T. J. Zuehlsdorff.                                       |
 |                                                               |
 |                                   Copyright (c) 2004-2025     |
 |                                                               |
 |  Please cite:                                                 |
 |  "The ONETEP linear-scaling density functional theory program"|
 |   J. Chem. Phys. 152(17) 174111 (2020)                        |
 |                                                               |
 |          in all publications arising from your use of ONETEP. |
 |                                                               |
 +---------------------------------------------------------------+
 |                                                               |
 |   ONETEP is based on developments described in the following  |
 |   publications:                                               |
 |                                                               |
 |  "Nonorthogonal generalized Wannier function pseudopotential  |
 |   plane-wave method".                                         |
 |   C.-K. Skylaris, A. A. Mostofi, P. D. Haynes, O. Dieguez,    |
 |   M. C. Payne.                                                |
 |   Phys. Rev. B 66 035119 (2002).                              |
 |                                                               |
 |  "Preconditioned iterative minimization for linear-scaling    |
 |   electronic structure calculations".                         |
 |   A. A. Mostofi, P. D. Haynes, C.-K. Skylaris, M. C. Payne.   |
 |   J. Chem. Phys. 119(17), pp.8842-8848 (2003).                |
 |                                                               |
 |  "Total-energy calculations on a real space grid with         |
 |   localized functions and a plane-wave basis".                |
 |   A. A. Mostofi, C.-K. Skylaris, P. D. Haynes, M. C. Payne.   |
 |   Comput. Phys. Commun. 147, pp.788-802 (2002).               |
 |                                                               |
 |  "Accurate kinetic energy evaluation in electronic structure  |
 |   calculations with localized functions on real space grids"  |
 |   C.-K. Skylaris, A. A. Mostofi, P. D. Haynes, C. J. Pickard, |
 |   M. C. Payne.                                                |
 |   Comput. Phys. Commun. 140, pp.315-322 (2001).               |
 |                                                               |
 |  "Accurate ionic forces and geometry optimization in linear-  |
 |   scaling density-functional theory with local orbitals"      |
 |   N. D. M. Hine, M. Robinson, P. D. Haynes, C.-K. Skylaris,   |
 |   M. C. Payne, and A. A. Mostofi.                             |
 |   Phys. Rev. B 83 195102 (2011).                              |
 |                                                               |
 +---------------------------------------------------------------+

Job started: 30-05-2025 22:24 (+0100)
 
Reading parameters from file "Cr2I6_bilayer_HT_AFM_AFM_SP.dat" ...... done

If your calculation crashes here, before "Checking processes and threads..."
is displayed, then your stack size is insufficient.
If so, use "ulimit -s unlimited" at runtime.
You can disable this check with "check_stack_size F".

Checking processes and threads...
      Default threads: 16
   Running with 150 MPI processes.
   There are 6 MPI processes running on the same node as the root process.
   Each MPI process is using: 
               1 threads for simulation cell FFTs.
               1 threads for threaded FFT box operations.
              16 threads for loops over batched FFT box operations.
              16 threads in other parallel regions.
   MPI Interface: S1 (use mpi_f08) (-DMPI -DUSE_MPI_F08).
   MPI_ASYNC_PROTECTS_NONBLOCKING: Yes. MPI_SUBARRAYS_SUPPORTED: Yes.
   FFTW Interface: OMP-capable and MODERN. (-DUSE_MODERN_FFTW specified).
   GPU Interface: None.
   GPU FFT Backend: None.
... done

Basic input checks...... done

Reading geometry and species blocks from file "Cr2I6_bilayer_HT_AFM_AFM_SP.dat" ...... done


--------------------------------------------------------------------------------
---------------------------------- INPUT FILE ----------------------------------
--------------------------------------------------------------------------------

charge : 0                                                                      
cube_format   : T                                                               
cutoff_energy : 1000 eV                                                         
delta_e_conv : F                                                                
do_properties : T                                                               
edft : F                                                                        
edft_init_maxit : 0                                                             
elec_energy_tol : 1e-07 Ha                                                      
fine_grid_scale : 4                                                             
forces_output_detail : VERBOSE                                                  
MAXIT_LNV     : 1                                                               
MINIT_LNV     : 1                                                               
maxit_ngwf_cg : 1                                                               
ngwf_threshold_orig : 10                                                        
ngwfs_spin_polarized : T                                                        
output_detail : NORMAL                                                          
paw : T                                                                         
read_denskern : T                                                               
read_hamiltonian : T                                                            
read_tightbox_ngwfs : T                                                         
spin : 0                                                                        
spin_polarized : T                                                              
task : SinglePoint                                                              
write_denskern : F                                                              
write_forces : T                                                                
write_hamiltonian : F                                                           
write_ngwf_plot : T                                                             
write_tightbox_ngwfs : F                                                        
xc_functional : PBE                                                             
%BLOCK LATTICE_CART                                                             
ang                                                                             
41.261892132       0.000000000000000        0.000000000000000                   
-20.630946066       35.733846792             0.000000000000000                  
0.000000000000000   0.0000000000000000       27.507928088                       
%ENDBLOCK LATTICE_CART                                                          
%block species_ngwf_plot                                                        
Cr2                                                                             
Cr3                                                                             
I1                                                                              
%endblock species_ngwf_plot                                                     
%BLOCK POSITIONS_ABS                                                            
ang                                                                             
Cr       5.73012301       1.98615267      15.61475195                           
Cr       2.29163200       3.96948846      15.61475241                           
I        6.71804295      -0.00001318      14.06395847                           
I        3.51661508       2.12334657      14.07089707                           
I        0.07814689       3.83230774      14.07089707                           
I        4.74445508      -0.00001140      17.15723785                           
I        4.50489604       3.83201918      17.15707434                           
I        1.06642478       2.12363336      17.15707434                           
Cr1      3.43917878       1.98613277       9.03123330                           
Cr1      0.00068777       3.96950836       9.03123376                           
I        4.42486276      -0.00001318       7.48874545                           
I        1.22590088       2.12363241       7.48890841                           
I       -2.21256731       3.83202190       7.48890841                           
I        2.45126709      -0.00001140      10.58202506                           
I        2.21418512       3.83230199      10.57507890                           
I       -1.22428614       2.12335055      10.57507890                           
Cr       2.29163200       7.94179381      15.61475195                           
Cr      -1.14685901       9.92512959      15.61475241                           
I        3.27955194       5.95562795      14.06395847                           
I        0.07812407       8.07898770      14.07089707                           
I       -3.36034412       9.78794887      14.07089707                           
I        1.30596407       5.95562973      17.15723785                           
I        1.06640503       9.78766031      17.15707434                           
I       -2.37206623       8.07927449      17.15707434                           
Cr1      0.00068777       7.94177390       9.03123330                           
Cr1     -3.43780324       9.92514949       9.03123376                           
I        0.98637175       5.95562795       7.48874545                           
I       -2.21259013       8.07927354       7.48890841                           
I       -5.65105832       9.78766304       7.48890841                           
I       -0.98722392       5.95562973      10.58202506                           
I       -1.22430589       9.78794313      10.57507890                           
I       -4.66277715       8.07899168      10.57507890                           
Cr      -1.14685901      13.89743494      15.61475195                           
Cr      -4.58535002      15.88077072      15.61475241                           
I       -0.15893907      11.91126908      14.06395847                           
I       -3.36036694      14.03462883      14.07089707                           
I       -6.79883513      15.74359001      14.07089707                           
I       -2.13252694      11.91127086      17.15723785                           
I       -2.37208598      15.74330145      17.15707434                           
I       -5.81055724      14.03491562      17.15707434                           
Cr1     -3.43780324      13.89741504       9.03123330                           
Cr1     -6.87629425      15.88079062       9.03123376                           
I       -2.45211926      11.91126908       7.48874545                           
I       -5.65108114      14.03491467       7.48890841                           
I       -9.08954933      15.74330417       7.48890841                           
I       -4.42571493      11.91127086      10.58202506                           
I       -4.66279691      15.74358426      10.57507890                           
I       -8.10126817      14.03463281      10.57507890                           
Cr      -4.58535002      19.85307607      15.61475195                           
Cr      -8.02384103      21.83641185      15.61475241                           
I       -3.59743008      17.86691022      14.06395847                           
I       -6.79885795      19.99026996      14.07089707                           
I      -10.23732614      21.69923114      14.07089707                           
I       -5.57101795      17.86691200      17.15723785                           
I       -5.81057699      21.69894258      17.15707434                           
I       -9.24904825      19.99055675      17.15707434                           
Cr1     -6.87629425      19.85305617       9.03123330                           
Cr1    -10.31478526      21.83643175       9.03123376                           
I       -5.89061027      17.86691022       7.48874545                           
I       -9.08957216      19.99055580       7.48890841                           
I      -12.52804035      21.69894530       7.48890841                           
I       -7.86420594      17.86691200      10.58202506                           
I       -8.10128792      21.69922539      10.57507890                           
I      -11.53975918      19.99027394      10.57507890                           
Cr      -8.02384103      25.80871720      15.61475195                           
Cr     -11.46233204      27.79205298      15.61475241                           
I       -7.03592109      23.82255135      14.06395847                           
I      -10.23734897      25.94591110      14.07089707                           
I      -13.67581716      27.65487227      14.07089707                           
I       -9.00950896      23.82255313      17.15723785                           
I       -9.24906800      27.65458371      17.15707434                           
I      -12.68753926      25.94619789      17.15707434                           
Cr1    -10.31478526      25.80869730       9.03123330                           
Cr1    -13.75327627      27.79207289       9.03123376                           
I       -9.32910128      23.82255135       7.48874545                           
I      -12.52806317      25.94619693       7.48890841                           
I      -15.96653136      27.65458643       7.48890841                           
I      -11.30269695      23.82255313      10.58202506                           
I      -11.53977893      27.65486652      10.57507890                           
I      -14.97825019      25.94591507      10.57507890                           
Cr     -11.46233205      31.76435833      15.61475195                           
Cr     -14.90082306      33.74769412      15.61475241                           
I      -10.47441210      29.77819248      14.06395847                           
I      -13.67583998      31.90155223      14.07089707                           
I      -17.11430817      33.61051340      14.07089707                           
I      -12.44799997      29.77819426      17.15723785                           
I      -12.68755901      33.61022484      17.15707434                           
I      -16.12603027      31.90183902      17.15707434                           
Cr1    -13.75327627      31.76433843       9.03123330                           
Cr1    -17.19176728      33.74771402       9.03123376                           
I      -12.76759229      29.77819248       7.48874545                           
I      -15.96655418      31.90183807       7.48890841                           
I      -19.40502237      33.61022756       7.48890841                           
I      -14.74118796      29.77819426      10.58202506                           
I      -14.97826994      33.61050765      10.57507890                           
I      -18.41674120      31.90155621      10.57507890                           
Cr      12.60710503       1.98615267      15.61475195                           
Cr       9.16861402       3.96948846      15.61475241                           
I       13.59502497      -0.00001318      14.06395847                           
I       10.39359710       2.12334657      14.07089707                           
I        6.95512891       3.83230774      14.07089707                           
I       11.62143710      -0.00001140      17.15723785                           
I       11.38187806       3.83201918      17.15707434                           
I        7.94340680       2.12363336      17.15707434                           
Cr1     10.31616080       1.98613277       9.03123330                           
Cr1      6.87766979       3.96950836       9.03123376                           
I       11.30184479      -0.00001318       7.48874545                           
I        8.10288290       2.12363241       7.48890841                           
I        4.66441471       3.83202190       7.48890841                           
I        9.32824912      -0.00001140      10.58202506                           
I        9.09116714       3.83230199      10.57507890                           
I        5.65269588       2.12335055      10.57507890                           
Cr       9.16861402       7.94179381      15.61475195                           
Cr       5.73012301       9.92512959      15.61475241                           
I       10.15653396       5.95562795      14.06395847                           
I        6.95510609       8.07898770      14.07089707                           
I        3.51663790       9.78794887      14.07089707                           
I        8.18294609       5.95562973      17.15723785                           
I        7.94338705       9.78766031      17.15707434                           
I        4.50491579       8.07927449      17.15707434                           
Cr1      6.87766979       7.94177390       9.03123330                           
Cr1      3.43917878       9.92514949       9.03123376                           
I        7.86335378       5.95562795       7.48874545                           
I        4.66439189       8.07927354       7.48890841                           
I        1.22592370       9.78766304       7.48890841                           
I        5.88975810       5.95562973      10.58202506                           
I        5.65267613       9.78794313      10.57507890                           
I        2.21420487       8.07899168      10.57507890                           
Cr       5.73012301      13.89743494      15.61475195                           
Cr       2.29163200      15.88077072      15.61475241                           
I        6.71804295      11.91126908      14.06395847                           
I        3.51661508      14.03462883      14.07089707                           
I        0.07814689      15.74359001      14.07089707                           
I        4.74445508      11.91127086      17.15723785                           
I        4.50489604      15.74330145      17.15707434                           
I        1.06642478      14.03491562      17.15707434                           
Cr1      3.43917878      13.89741504       9.03123330                           
Cr1      0.00068777      15.88079062       9.03123376                           
I        4.42486276      11.91126908       7.48874545                           
I        1.22590088      14.03491467       7.48890841                           
I       -2.21256731      15.74330417       7.48890841                           
I        2.45126709      11.91127086      10.58202506                           
I        2.21418512      15.74358426      10.57507890                           
I       -1.22428614      14.03463281      10.57507890                           
Cr       2.29163200      19.85307607      15.61475195                           
Cr      -1.14685901      21.83641185      15.61475241                           
I        3.27955194      17.86691022      14.06395847                           
I        0.07812407      19.99026996      14.07089707                           
I       -3.36034412      21.69923114      14.07089707                           
I        1.30596407      17.86691200      17.15723785                           
I        1.06640503      21.69894258      17.15707434                           
I       -2.37206623      19.99055675      17.15707434                           
Cr1      0.00068777      19.85305617       9.03123330                           
Cr1     -3.43780324      21.83643175       9.03123376                           
I        0.98637175      17.86691022       7.48874545                           
I       -2.21259013      19.99055580       7.48890841                           
I       -5.65105832      21.69894530       7.48890841                           
I       -0.98722392      17.86691200      10.58202506                           
I       -1.22430589      21.69922539      10.57507890                           
I       -4.66277715      19.99027394      10.57507890                           
Cr      -1.14685901      25.80871720      15.61475195                           
Cr      -4.58535002      27.79205298      15.61475241                           
I       -0.15893907      23.82255135      14.06395847                           
I       -3.36036694      25.94591110      14.07089707                           
I       -6.79883513      27.65487227      14.07089707                           
I       -2.13252694      23.82255313      17.15723785                           
I       -2.37208598      27.65458371      17.15707434                           
I       -5.81055724      25.94619789      17.15707434                           
Cr1     -3.43780324      25.80869730       9.03123330                           
Cr1     -6.87629425      27.79207289       9.03123376                           
I       -2.45211926      23.82255135       7.48874545                           
I       -5.65108114      25.94619693       7.48890841                           
I       -9.08954933      27.65458643       7.48890841                           
I       -4.42571493      23.82255313      10.58202506                           
I       -4.66279691      27.65486652      10.57507890                           
I       -8.10126817      25.94591507      10.57507890                           
Cr      -4.58535002      31.76435833      15.61475195                           
Cr      -8.02384103      33.74769412      15.61475241                           
I       -3.59743008      29.77819248      14.06395847                           
I       -6.79885795      31.90155223      14.07089707                           
I      -10.23732614      33.61051340      14.07089707                           
I       -5.57101795      29.77819426      17.15723785                           
I       -5.81057699      33.61022484      17.15707434                           
I       -9.24904825      31.90183902      17.15707434                           
Cr1     -6.87629425      31.76433843       9.03123330                           
Cr1    -10.31478526      33.74771402       9.03123376                           
I       -5.89061027      29.77819248       7.48874545                           
I       -9.08957216      31.90183807       7.48890841                           
I      -12.52804035      33.61022756       7.48890841                           
I       -7.86420594      29.77819426      10.58202506                           
I       -8.10128792      33.61050765      10.57507890                           
I      -11.53975918      31.90155621      10.57507890                           
Cr      19.48408705       1.98615267      15.61475195                           
Cr      16.04559604       3.96948846      15.61475241                           
I       20.47200700      -0.00001318      14.06395847                           
I       17.27057912       2.12334657      14.07089707                           
I       13.83211093       3.83230774      14.07089707                           
I       18.49841912      -0.00001140      17.15723785                           
I       18.25886009       3.83201918      17.15707434                           
I       14.82038883       2.12363336      17.15707434                           
Cr1     17.19314283       1.98613277       9.03123330                           
Cr1     13.75465182       3.96950836       9.03123376                           
I       18.17882681      -0.00001318       7.48874545                           
I       14.97986492       2.12363241       7.48890841                           
I       11.54139673       3.83202190       7.48890841                           
I       16.20523114      -0.00001140      10.58202506                           
I       15.96814916       3.83230199      10.57507890                           
I       12.52967790       2.12335055      10.57507890                           
Cr      16.04559604       7.94179381      15.61475195                           
Cr      12.60710503       9.92512959      15.61475241                           
I       17.03351599       5.95562795      14.06395847                           
I       13.83208811       8.07898770      14.07089707                           
I       10.39361992       9.78794887      14.07089707                           
I       15.05992811       5.95562973      17.15723785                           
I       14.82036907       9.78766031      17.15707434                           
I       11.38189781       8.07927449      17.15707434                           
Cr1     13.75465181       7.94177390       9.03123330                           
Cr1     10.31616080       9.92514949       9.03123376                           
I       14.74033580       5.95562795       7.48874545                           
I       11.54137391       8.07927354       7.48890841                           
I        8.10290572       9.78766304       7.48890841                           
I       12.76674013       5.95562973      10.58202506                           
I       12.52965815       9.78794313      10.57507890                           
I        9.09118689       8.07899168      10.57507890                           
Cr      12.60710503      13.89743494      15.61475195                           
Cr       9.16861402      15.88077072      15.61475241                           
I       13.59502497      11.91126908      14.06395847                           
I       10.39359710      14.03462883      14.07089707                           
I        6.95512891      15.74359001      14.07089707                           
I       11.62143710      11.91127086      17.15723785                           
I       11.38187806      15.74330145      17.15707434                           
I        7.94340680      14.03491562      17.15707434                           
Cr1     10.31616080      13.89741504       9.03123330                           
Cr1      6.87766979      15.88079062       9.03123376                           
I       11.30184479      11.91126908       7.48874545                           
I        8.10288290      14.03491467       7.48890841                           
I        4.66441471      15.74330417       7.48890841                           
I        9.32824912      11.91127086      10.58202506                           
I1       9.09116714      15.74358426      10.57507890                           
I        5.65269588      14.03463281      10.57507890                           
Cr2      9.16861402      19.85307607      15.61475195                           
Cr       5.73012301      21.83641185      15.61475241                           
I1       10.15653396      17.86691022      14.06395847                          
I        6.95510609      19.99026996      14.07089707                           
I        3.51663790      21.69923114      14.07089707                           
I        8.18294609      17.86691200      17.15723785                           
I        7.94338705      21.69894258      17.15707434                           
I        4.50491579      19.99055675      17.15707434                           
Cr1      6.87766979      19.85305617       9.03123330                           
Cr1      3.43917878      21.83643175       9.03123376                           
I        7.86335378      17.86691022       7.48874545                           
I        4.66439189      19.99055580       7.48890841                           
I        1.22592370      21.69894530       7.48890841                           
I        5.88975810      17.86691200      10.58202506                           
I        5.65267613      21.69922539      10.57507890                           
I        2.21420487      19.99027394      10.57507890                           
Cr       5.73012301      25.80871720      15.61475195                           
Cr       2.29163200      27.79205298      15.61475241                           
I        6.71804295      23.82255135      14.06395847                           
I        3.51661508      25.94591110      14.07089707                           
I        0.07814689      27.65487227      14.07089707                           
I        4.74445508      23.82255313      17.15723785                           
I        4.50489604      27.65458371      17.15707434                           
I        1.06642478      25.94619789      17.15707434                           
Cr1      3.43917878      25.80869730       9.03123330                           
Cr1      0.00068777      27.79207289       9.03123376                           
I        4.42486276      23.82255135       7.48874545                           
I        1.22590088      25.94619693       7.48890841                           
I       -2.21256731      27.65458643       7.48890841                           
I        2.45126709      23.82255313      10.58202506                           
I        2.21418512      27.65486652      10.57507890                           
I       -1.22428614      25.94591507      10.57507890                           
Cr       2.29163200      31.76435833      15.61475195                           
Cr      -1.14685901      33.74769412      15.61475241                           
I        3.27955194      29.77819248      14.06395847                           
I        0.07812407      31.90155223      14.07089707                           
I       -3.36034412      33.61051340      14.07089707                           
I        1.30596407      29.77819426      17.15723785                           
I        1.06640503      33.61022484      17.15707434                           
I       -2.37206623      31.90183902      17.15707434                           
Cr1      0.00068777      31.76433843       9.03123330                           
Cr1     -3.43780324      33.74771402       9.03123376                           
I        0.98637175      29.77819248       7.48874545                           
I       -2.21259013      31.90183807       7.48890841                           
I       -5.65105832      33.61022756       7.48890841                           
I       -0.98722392      29.77819426      10.58202506                           
I       -1.22430589      33.61050765      10.57507890                           
I       -4.66277715      31.90155621      10.57507890                           
Cr      26.36106908       1.98615267      15.61475195                           
Cr      22.92257807       3.96948846      15.61475241                           
I       27.34898902      -0.00001318      14.06395847                           
I       24.14756114       2.12334657      14.07089707                           
I       20.70909295       3.83230774      14.07089707                           
I       25.37540115      -0.00001140      17.15723785                           
I       25.13584211       3.83201918      17.15707434                           
I       21.69737085       2.12363336      17.15707434                           
Cr1     24.07012485       1.98613277       9.03123330                           
Cr1     20.63163384       3.96950836       9.03123376                           
I       25.05580883      -0.00001318       7.48874545                           
I       21.85684694       2.12363241       7.48890841                           
I       18.41837875       3.83202190       7.48890841                           
I       23.08221316      -0.00001140      10.58202506                           
I       22.84513118       3.83230199      10.57507890                           
I       19.40665992       2.12335055      10.57507890                           
Cr      22.92257806       7.94179381      15.61475195                           
Cr      19.48408705       9.92512959      15.61475241                           
I       23.91049801       5.95562795      14.06395847                           
I       20.70907013       8.07898770      14.07089707                           
I       17.27060194       9.78794887      14.07089707                           
I       21.93691014       5.95562973      17.15723785                           
I       21.69735110       9.78766031      17.15707434                           
I       18.25887984       8.07927449      17.15707434                           
Cr1     20.63163384       7.94177390       9.03123330                           
Cr1     17.19314283       9.92514949       9.03123376                           
I       21.61731782       5.95562795       7.48874545                           
I       18.41835593       8.07927354       7.48890841                           
I       14.97988774       9.78766304       7.48890841                           
I       19.64372215       5.95562973      10.58202506                           
I       19.40664017       9.78794313      10.57507890                           
I       15.96816891       8.07899168      10.57507890                           
Cr      19.48408705      13.89743494      15.61475195                           
Cr      16.04559604      15.88077072      15.61475241                           
I       20.47200700      11.91126908      14.06395847                           
I       17.27057912      14.03462883      14.07089707                           
I       13.83211093      15.74359001      14.07089707                           
I       18.49841912      11.91127086      17.15723785                           
I       18.25886009      15.74330145      17.15707434                           
I       14.82038883      14.03491562      17.15707434                           
Cr1     17.19314283      13.89741504       9.03123330                           
Cr1     13.75465182      15.88079062       9.03123376                           
I       18.17882681      11.91126908       7.48874545                           
I       14.97986492      14.03491467       7.48890841                           
I       11.54139673      15.74330417       7.48890841                           
I       16.20523114      11.91127086      10.58202506                           
I       15.96814916      15.74358426      10.57507890                           
I       12.52967790      14.03463281      10.57507890                           
Cr      16.04559604      19.85307607      15.61475195                           
Cr      12.60710503      21.83641185      15.61475241                           
I       17.03351599      17.86691022      14.06395847                           
I       13.83208811      19.99026996      14.07089707                           
I       10.39361992      21.69923114      14.07089707                           
I       15.05992811      17.86691200      17.15723785                           
I       14.82036907      21.69894258      17.15707434                           
I       11.38189781      19.99055675      17.15707434                           
Cr3     13.75465181      19.85305617       9.03123330                           
Cr1     10.31616080      21.83643175       9.03123376                           
I       14.74033580      17.86691022       7.48874545                           
I       11.54137391      19.99055580       7.48890841                           
I        8.10290572      21.69894530       7.48890841                           
I       12.76674013      17.86691200      10.58202506                           
I       12.52965815      21.69922539      10.57507890                           
I        9.09118689      19.99027394      10.57507890                           
Cr      12.60710503      25.80871720      15.61475195                           
Cr       9.16861402      27.79205298      15.61475241                           
I       13.59502497      23.82255135      14.06395847                           
I       10.39359710      25.94591110      14.07089707                           
I        6.95512891      27.65487227      14.07089707                           
I       11.62143710      23.82255313      17.15723785                           
I       11.38187806      27.65458371      17.15707434                           
I        7.94340680      25.94619789      17.15707434                           
Cr1     10.31616080      25.80869730       9.03123330                           
Cr1      6.87766979      27.79207289       9.03123376                           
I       11.30184479      23.82255135       7.48874545                           
I        8.10288290      25.94619693       7.48890841                           
I        4.66441471      27.65458643       7.48890841                           
I        9.32824912      23.82255313      10.58202506                           
I        9.09116714      27.65486652      10.57507890                           
I        5.65269588      25.94591507      10.57507890                           
Cr       9.16861402      31.76435833      15.61475195                           
Cr       5.73012301      33.74769412      15.61475241                           
I       10.15653396      29.77819248      14.06395847                           
I        6.95510609      31.90155223      14.07089707                           
I        3.51663790      33.61051340      14.07089707                           
I        8.18294609      29.77819426      17.15723785                           
I        7.94338705      33.61022484      17.15707434                           
I        4.50491579      31.90183902      17.15707434                           
Cr1      6.87766979      31.76433843       9.03123330                           
Cr1      3.43917878      33.74771402       9.03123376                           
I        7.86335378      29.77819248       7.48874545                           
I        4.66439189      31.90183807       7.48890841                           
I        1.22592370      33.61022756       7.48890841                           
I        5.88975810      29.77819426      10.58202506                           
I        5.65267613      33.61050765      10.57507890                           
I        2.21420487      31.90155621      10.57507890                           
Cr      33.23805110       1.98615267      15.61475195                           
Cr      29.79956009       3.96948846      15.61475241                           
I       34.22597104      -0.00001318      14.06395847                           
I       31.02454317       2.12334657      14.07089707                           
I       27.58607498       3.83230774      14.07089707                           
I       32.25238317      -0.00001140      17.15723785                           
I       32.01282413       3.83201918      17.15707434                           
I       28.57435287       2.12363336      17.15707434                           
Cr1     30.94710687       1.98613277       9.03123330                           
Cr1     27.50861586       3.96950836       9.03123376                           
I       31.93279085      -0.00001318       7.48874545                           
I       28.73382897       2.12363241       7.48890841                           
I       25.29536078       3.83202190       7.48890841                           
I       29.95919518      -0.00001140      10.58202506                           
I       29.72211320       3.83230199      10.57507890                           
I       26.28364194       2.12335055      10.57507890                           
Cr      29.79956009       7.94179381      15.61475195                           
Cr      26.36106908       9.92512959      15.61475241                           
I       30.78748003       5.95562795      14.06395847                           
I       27.58605216       8.07898770      14.07089707                           
I       24.14758397       9.78794887      14.07089707                           
I       28.81389216       5.95562973      17.15723785                           
I       28.57433312       9.78766031      17.15707434                           
I       25.13586186       8.07927449      17.15707434                           
Cr1     27.50861586       7.94177390       9.03123330                           
Cr1     24.07012485       9.92514949       9.03123376                           
I       28.49429984       5.95562795       7.48874545                           
I       25.29533795       8.07927354       7.48890841                           
I       21.85686976       9.78766304       7.48890841                           
I       26.52070417       5.95562973      10.58202506                           
I       26.28362219       9.78794313      10.57507890                           
I       22.84515093       8.07899168      10.57507890                           
Cr      26.36106908      13.89743494      15.61475195                           
Cr      22.92257807      15.88077072      15.61475241                           
I       27.34898902      11.91126908      14.06395847                           
I       24.14756114      14.03462883      14.07089707                           
I       20.70909295      15.74359001      14.07089707                           
I       25.37540115      11.91127086      17.15723785                           
I       25.13584211      15.74330145      17.15707434                           
I       21.69737085      14.03491562      17.15707434                           
Cr1     24.07012485      13.89741504       9.03123330                           
Cr1     20.63163384      15.88079062       9.03123376                           
I       25.05580883      11.91126908       7.48874545                           
I       21.85684694      14.03491467       7.48890841                           
I       18.41837875      15.74330417       7.48890841                           
I       23.08221316      11.91127086      10.58202506                           
I       22.84513118      15.74358426      10.57507890                           
I       19.40665992      14.03463281      10.57507890                           
Cr      22.92257806      19.85307607      15.61475195                           
Cr      19.48408705      21.83641185      15.61475241                           
I       23.91049801      17.86691022      14.06395847                           
I       20.70907013      19.99026996      14.07089707                           
I       17.27060194      21.69923114      14.07089707                           
I       21.93691014      17.86691200      17.15723785                           
I       21.69735110      21.69894258      17.15707434                           
I       18.25887984      19.99055675      17.15707434                           
Cr1     20.63163384      19.85305617       9.03123330                           
Cr1     17.19314283      21.83643175       9.03123376                           
I       21.61731782      17.86691022       7.48874545                           
I       18.41835593      19.99055580       7.48890841                           
I       14.97988774      21.69894530       7.48890841                           
I       19.64372215      17.86691200      10.58202506                           
I       19.40664017      21.69922539      10.57507890                           
I       15.96816891      19.99027394      10.57507890                           
Cr      19.48408705      25.80871720      15.61475195                           
Cr      16.04559604      27.79205298      15.61475241                           
I       20.47200700      23.82255135      14.06395847                           
I       17.27057912      25.94591110      14.07089707                           
I       13.83211093      27.65487227      14.07089707                           
I       18.49841912      23.82255313      17.15723785                           
I       18.25886009      27.65458371      17.15707434                           
I       14.82038883      25.94619789      17.15707434                           
Cr1     17.19314283      25.80869730       9.03123330                           
Cr1     13.75465182      27.79207289       9.03123376                           
I       18.17882681      23.82255135       7.48874545                           
I       14.97986492      25.94619693       7.48890841                           
I       11.54139673      27.65458643       7.48890841                           
I       16.20523114      23.82255313      10.58202506                           
I       15.96814916      27.65486652      10.57507890                           
I       12.52967790      25.94591507      10.57507890                           
Cr      16.04559604      31.76435833      15.61475195                           
Cr      12.60710503      33.74769412      15.61475241                           
I       17.03351599      29.77819248      14.06395847                           
I       13.83208811      31.90155223      14.07089707                           
I       10.39361992      33.61051340      14.07089707                           
I       15.05992811      29.77819426      17.15723785                           
I       14.82036907      33.61022484      17.15707434                           
I       11.38189781      31.90183902      17.15707434                           
Cr1     13.75465181      31.76433843       9.03123330                           
Cr1     10.31616080      33.74771402       9.03123376                           
I       14.74033580      29.77819248       7.48874545                           
I       11.54137391      31.90183807       7.48890841                           
I        8.10290572      33.61022756       7.48890841                           
I       12.76674013      29.77819426      10.58202506                           
I       12.52965815      33.61050765      10.57507890                           
I        9.09118689      31.90155621      10.57507890                           
Cr      40.11503312       1.98615267      15.61475195                           
Cr      36.67654211       3.96948846      15.61475241                           
I       41.10295306      -0.00001318      14.06395847                           
I       37.90152519       2.12334657      14.07089707                           
I       34.46305700       3.83230774      14.07089707                           
I       39.12936519      -0.00001140      17.15723785                           
I       38.88980615       3.83201918      17.15707434                           
I       35.45133489       2.12363336      17.15707434                           
Cr1     37.82408889       1.98613277       9.03123330                           
Cr1     34.38559788       3.96950836       9.03123376                           
I       38.80977287      -0.00001318       7.48874545                           
I       35.61081099       2.12363241       7.48890841                           
I       32.17234280       3.83202190       7.48890841                           
I       36.83617720      -0.00001140      10.58202506                           
I       36.59909523       3.83230199      10.57507890                           
I       33.16062397       2.12335055      10.57507890                           
Cr      36.67654211       7.94179381      15.61475195                           
Cr      33.23805110       9.92512959      15.61475241                           
I       37.66446205       5.95562795      14.06395847                           
I       34.46303418       8.07898770      14.07089707                           
I       31.02456599       9.78794887      14.07089707                           
I       35.69087418       5.95562973      17.15723785                           
I       35.45131514       9.78766031      17.15707434                           
I       32.01284388       8.07927449      17.15707434                           
Cr1     34.38559788       7.94177390       9.03123330                           
Cr1     30.94710687       9.92514949       9.03123376                           
I       35.37128186       5.95562795       7.48874545                           
I       32.17231998       8.07927354       7.48890841                           
I       28.73385179       9.78766304       7.48890841                           
I       33.39768619       5.95562973      10.58202506                           
I       33.16060422       9.78794313      10.57507890                           
I       29.72213296       8.07899168      10.57507890                           
Cr      33.23805110      13.89743494      15.61475195                           
Cr      29.79956009      15.88077072      15.61475241                           
I       34.22597104      11.91126908      14.06395847                           
I       31.02454317      14.03462883      14.07089707                           
I       27.58607498      15.74359001      14.07089707                           
I       32.25238317      11.91127086      17.15723785                           
I       32.01282413      15.74330145      17.15707434                           
I       28.57435287      14.03491562      17.15707434                           
Cr1     30.94710687      13.89741504       9.03123330                           
Cr1     27.50861586      15.88079062       9.03123376                           
I       31.93279085      11.91126908       7.48874545                           
I       28.73382897      14.03491467       7.48890841                           
I       25.29536078      15.74330417       7.48890841                           
I       29.95919518      11.91127086      10.58202506                           
I       29.72211320      15.74358426      10.57507890                           
I       26.28364194      14.03463281      10.57507890                           
Cr      29.79956009      19.85307607      15.61475195                           
Cr      26.36106908      21.83641185      15.61475241                           
I       30.78748003      17.86691022      14.06395847                           
I       27.58605216      19.99026996      14.07089707                           
I       24.14758397      21.69923114      14.07089707                           
I       28.81389216      17.86691200      17.15723785                           
I       28.57433312      21.69894258      17.15707434                           
I       25.13586186      19.99055675      17.15707434                           
Cr1     27.50861586      19.85305617       9.03123330                           
Cr1     24.07012485      21.83643175       9.03123376                           
I       28.49429984      17.86691022       7.48874545                           
I       25.29533795      19.99055580       7.48890841                           
I       21.85686976      21.69894530       7.48890841                           
I       26.52070417      17.86691200      10.58202506                           
I       26.28362219      21.69922539      10.57507890                           
I       22.84515093      19.99027394      10.57507890                           
Cr      26.36106908      25.80871720      15.61475195                           
Cr      22.92257807      27.79205298      15.61475241                           
I       27.34898902      23.82255135      14.06395847                           
I       24.14756114      25.94591110      14.07089707                           
I       20.70909295      27.65487227      14.07089707                           
I       25.37540115      23.82255313      17.15723785                           
I       25.13584211      27.65458371      17.15707434                           
I       21.69737085      25.94619789      17.15707434                           
Cr1     24.07012485      25.80869730       9.03123330                           
Cr1     20.63163384      27.79207289       9.03123376                           
I       25.05580883      23.82255135       7.48874545                           
I       21.85684694      25.94619693       7.48890841                           
I       18.41837875      27.65458643       7.48890841                           
I       23.08221316      23.82255313      10.58202506                           
I       22.84513118      27.65486652      10.57507890                           
I       19.40665992      25.94591507      10.57507890                           
Cr      22.92257806      31.76435833      15.61475195                           
Cr      19.48408705      33.74769412      15.61475241                           
I       23.91049801      29.77819248      14.06395847                           
I       20.70907013      31.90155223      14.07089707                           
I       17.27060194      33.61051340      14.07089707                           
I       21.93691014      29.77819426      17.15723785                           
I       21.69735110      33.61022484      17.15707434                           
I       18.25887984      31.90183902      17.15707434                           
Cr1     20.63163384      31.76433843       9.03123330                           
Cr1     17.19314283      33.74771402       9.03123376                           
I       21.61731782      29.77819248       7.48874545                           
I       18.41835593      31.90183807       7.48890841                           
I       14.97988774      33.61022756       7.48890841                           
I       19.64372215      29.77819426      10.58202506                           
I       19.40664017      33.61050765      10.57507890                           
I       15.96816891      31.90155621      10.57507890                           
%ENDBLOCK POSITIONS_ABS                                                         
%BLOCK SPECIES                                                                  
Cr Cr 24 -1 15                                                                  
I   I  53 -1 15                                                                 
I1  I  53 -1 15                                                                 
Cr1 Cr 24 -1 15                                                                 
Cr2 Cr 24 -1 15                                                                 
Cr3 Cr 24 -1 15                                                                 
%ENDBLOCK SPECIES                                                               
%BLOCK SPECIES_ATOMIC_SET                                                       
Cr "SOLVE INIT SPIN=3"                                                          
I   "SOLVE"                                                                     
Cr1 "SOLVE INIT SPIN=-3"                                                        
I1   "SOLVE"                                                                    
Cr2 "SOLVE INIT SPIN=3"                                                         
Cr3 "SOLVE INIT SPIN=-3"                                                        
%ENDBLOCK SPECIES_ATOMIC_SET                                                    
%BLOCK SPECIES_LDOS_GROUPS                                                      
Cr                                                                              
I                                                                               
Cr1                                                                             
%ENDBLOCK SPECIES_LDOS_GROUPS                                                   
%BLOCK SPECIES_POT                                                              
Cr  "../../../../Cr.PBE-paw.abinit"                                             
I   "../../../../I.PBE-paw.abinit"                                              
Cr1 "../../../../Cr.PBE-paw.abinit"                                             
I1   "../../../../I.PBE-paw.abinit"                                             
Cr2 "../../../../Cr.PBE-paw.abinit"                                             
Cr3 "../../../../Cr.PBE-paw.abinit"                                             
%ENDBLOCK SPECIES_POT                                                           

--------------------------------------------------------------------------------
-------------------------------- END INPUT FILE --------------------------------
--------------------------------------------------------------------------------


 
 ESDF WARNING(1): "charge" (esdf_physical) has no units. Assume "e".
<<<<<<<<<<<<<<<<<<<<<<<<<<<<<<<<< Full system >>>>>>>>>>>>>>>>>>>>>>>>>>>>>>>>>>
<<<<<<<<<<<<<<<<<<<<<<<<<<< PAW Dataset information >>>>>>>>>>>>>>>>>>>>>>>>>>>
File: ../../../../Cr.PBE-paw.abinit; rc = 2.11 bohr; shape type =  2; rshape = 1.80 bohr;
  Atomic number: 24;  ionic charge: 14.000000
    Partial Wave 1: l = 0
    Partial Wave 2: l = 0
    Partial Wave 3: l = 1
    Partial Wave 4: l = 1
    Partial Wave 5: l = 2
    Partial Wave 6: l = 2
  Core charge supplied for Nonlinear Core Corrections
File: ../../../../I.PBE-paw.abinit; rc = 2.30 bohr; shape type =  2; rshape = 2.11 bohr;
  Atomic number: 53;  ionic charge:  7.000000
    Partial Wave 1: l = 0
    Partial Wave 2: l = 0
    Partial Wave 3: l = 1
    Partial Wave 4: l = 1
  Core charge supplied for Nonlinear Core Corrections
<<<<<<<<<<<<<<<<<<<<<<<<<<<<<<<<<<<<<<< >>>>>>>>>>>>>>>>>>>>>>>>>>>>>>>>>>>>>>>

-------------------------- Atom counting information ---------------------------
Symbol    Natoms    Nngwfs    Nprojs
  Cr       144      1872      2592
  I        432      1728      3456
.......   ......    ......    ......
Totals:    576      3600      6048
--------------------------------------------------------------------------------

=============================== PSINC grid sizes ===============================
                      Simulation cell:  175 x 175 x 117
                              FFT-box:  175 x 175 x 117
                                  PPD:    5 x   5 x   1
Grid space d1=  0.445563862424a0 (KE cutoff=  38.26345Eh =1041.20135eV)
Grid space d2=  0.445563862400a0 (KE cutoff=  38.26345Eh =1041.20135eV)
Grid space d3=  0.444294449711a0 (KE cutoff=  38.48241Eh =1047.15957eV)
================================================================================

********************* Fourier parallelisation information **********************
       Coarse grid (whole simulation cell) dimensions:    175   175   117
          Real-space ('12') slabs/proc (min max mean):      0     1     0
         Recip-space ('23') slabs/proc (min max mean):      0     1     0
********************************************************************************

********************* Fourier parallelisation information **********************
       Double grid (whole simulation cell) dimensions:    350   350   234
          Real-space ('12') slabs/proc (min max mean):      1     2     1
         Recip-space ('23') slabs/proc (min max mean):      1     2     1
********************************************************************************

********************* Fourier parallelisation information **********************
         Fine grid (whole simulation cell) dimensions:    700   700   468
          Real-space ('12') slabs/proc (min max mean):      3     4     3
         Recip-space ('23') slabs/proc (min max mean):      2     3     2
********************************************************************************
energy_and_force_init_cell: WARNING in internal_setup_spin:
        even number of electrons in cell and zero spin
        but continuing with spin-polarised calculation

Atom SCF Calculation for Cr : Z (AE atom) =  24 : Z (PS atom) =  14
Config String: 3s2.0 3p6.0 3d5.0 4s1.0 4p0.0 INIT SPIN=3
Orbitals (num,occ):  5     2.00 6.00 5.00 1.00 0.00
Orbitals   (num,l):  5        0    1    2    0    1
Atom SCF converged after  64 iterations to a total energy of    -87.07044631
Adjusting orbital occupancies:
Orbitals (num,spin,occ):  5  1     1.00 3.00 3.50 1.00 0.00
Orbitals   (num,spin,l):  5  1        0    1    2    0    1
Orbitals (num,spin,occ):  5  2     1.00 3.00 1.00 0.50 0.00
Orbitals   (num,spin,l):  5  2        0    1    2    0    1

Atom SCF Calculation for I  : Z (AE atom) =  53 : Z (PS atom) =   7
Config String: 5s2.0 5p5.0
Orbitals (num,occ):  2     2.00 5.00
Orbitals   (num,l):  2        0    1
Atom SCF converged after  28 iterations to a total energy of    -11.61352964

Atom SCF Calculation for I  : Z (AE atom) =  53 : Z (PS atom) =   7
Config String: 5s2.0 5p5.0
Orbitals (num,occ):  2     2.00 5.00
Orbitals   (num,l):  2        0    1
Atom SCF converged after  28 iterations to a total energy of    -11.61352964

Atom SCF Calculation for Cr : Z (AE atom) =  24 : Z (PS atom) =  14
Config String: 3s2.0 3p6.0 3d5.0 4s1.0 4p0.0 INIT SPIN=-3
Orbitals (num,occ):  5     2.00 6.00 5.00 1.00 0.00
Orbitals   (num,l):  5        0    1    2    0    1
Atom SCF converged after  64 iterations to a total energy of    -87.07044631
Adjusting orbital occupancies:
Orbitals (num,spin,occ):  5  1     1.00 3.00 1.00 0.50 0.00
Orbitals   (num,spin,l):  5  1        0    1    2    0    1
Orbitals (num,spin,occ):  5  2     1.00 3.00 3.50 1.00 0.00
Orbitals   (num,spin,l):  5  2        0    1    2    0    1

Atom SCF Calculation for Cr : Z (AE atom) =  24 : Z (PS atom) =  14
Config String: 3s2.0 3p6.0 3d5.0 4s1.0 4p0.0 INIT SPIN=3
Orbitals (num,occ):  5     2.00 6.00 5.00 1.00 0.00
Orbitals   (num,l):  5        0    1    2    0    1
Atom SCF converged after  64 iterations to a total energy of    -87.07044631
Adjusting orbital occupancies:
Orbitals (num,spin,occ):  5  1     1.00 3.00 3.50 1.00 0.00
Orbitals   (num,spin,l):  5  1        0    1    2    0    1
Orbitals (num,spin,occ):  5  2     1.00 3.00 1.00 0.50 0.00
Orbitals   (num,spin,l):  5  2        0    1    2    0    1

Atom SCF Calculation for Cr : Z (AE atom) =  24 : Z (PS atom) =  14
Config String: 3s2.0 3p6.0 3d5.0 4s1.0 4p0.0 INIT SPIN=-3
Orbitals (num,occ):  5     2.00 6.00 5.00 1.00 0.00
Orbitals   (num,l):  5        0    1    2    0    1
Atom SCF converged after  64 iterations to a total energy of    -87.07044631
Adjusting orbital occupancies:
Orbitals (num,spin,occ):  5  1     1.00 3.00 1.00 0.50 0.00
Orbitals   (num,spin,l):  5  1        0    1    2    0    1
Orbitals (num,spin,occ):  5  2     1.00 3.00 3.50 1.00 0.00
Orbitals   (num,spin,l):  5  2        0    1    2    0    1

Determining parallel strategy ...... done
Calculating Ewald energy ...            31475.177180 Hartree
Basis initialisation ...
... done

============================= Charge Augmentation ==============================
                           Aug box size:   49 x  49 x  45
================================================================================
Sparse matrix initialisation ...
 done

Reading NGWFs from file "Cr2I6_bilayer_HT_AFM_AFM_SP.tightbox_ngwfs" ... done

================================= Core Density =================================
               Core den box size:  125 x 125 x 105
================================================================================

Reading density kernel from file "Cr2I6_bilayer_HT_AFM_AFM_SP.dkn" ... done
Writing NGWF plot files in formats: CUBE ... done
Writing NGWF plot files in formats: CUBE ... done

>>> Optimising kernel for current NGWFs:


>>> Density kernel optimised for the current NGWF basis:
     ~~~~~~~~~~~~~~~~~~~~~~~~~~~~~~~~~~~~~~~~~~~~~~~~~~~~~~~~~~~
     Total energy                =  -1.76367284804558E+04  Eh
     Estimated bandgap (UP spin) =   4.1146E-02  Eh
     Estimated bandgap (DN spin) =   4.1346E-02  Eh
     RMS occupancy error         =   6.2325E-15
     [H,K] commutator            =   1.5298E-04
     UP spin occupancy bounds    = [  0.000:  1.000]
     DN spin occupancy bounds    = [  0.000:  1.000]
     ~~~~~~~~~~~~~~~~~~~~~~~~~~~~~~~~~~~~~~~~~~~~~~~~~~~~~~~~~~~




################################################################################
########################### NGWF CG iteration  001 #############################
################################################################################

>>> Checking for convergence of NGWFs:   NOT CONVERGED
  ========================================================================
         NGWF RMS gradient =  1.0425E-05 <  1.0000E+01  | CONVERGED
  ========================================================================

>>> Improving NGWFs using line search:
  ========================================================================
   Predicted total energy    =      -1.76371854901363E+04 Eh
   Predicted gain in energy  =      -4.57009680452757E-01 Eh
  ========================================================================


>>> Optimising kernel for current NGWFs:
   iter  |      energy (Eh)       | rms gradient |  commutator  |   dE (Eh)
    1        -1.763717952297E+04     2.3097E-04     1.1666E-04
Finished density kernel iterations (   1)


>>> Density kernel optimised for the current NGWF basis:
     ~~~~~~~~~~~~~~~~~~~~~~~~~~~~~~~~~~~~~~~~~~~~~~~~~~~~~~~~~~~
     Total energy                =  -1.76371795229694E+04  Eh
     Estimated bandgap (UP spin) =   4.2559E-02  Eh
     Estimated bandgap (DN spin) =   4.2565E-02  Eh
     RMS occupancy error         =   4.0899E-10
     [H,K] commutator            =   1.1666E-04
     UP spin occupancy bounds    = [ -0.000:  1.000]
     DN spin occupancy bounds    = [ -0.000:  1.000]
     ~~~~~~~~~~~~~~~~~~~~~~~~~~~~~~~~~~~~~~~~~~~~~~~~~~~~~~~~~~~


================================================================================
           ---------------- ENERGY COMPONENTS (Eh) ----------------
           | Kinetic                    :     3654.39872816901698 |
           | Core Hartree               :   -95411.36964126129170 |
           | CoreHart (non-coul chg cor):        0.00000000000000
           | Hartree                    :    46445.43406754778700 |
           | Exchange-correlation       :    -2500.11937766182837 |
           | Ewald                      :    31475.17718035518920 |
           | Dij0                       :    -1115.20529448688694 |
           | Dijhartree                 :      499.74988671076972 |
           | Exc [AE core]              :   -84835.49887883273190 |
           | Exc DC [AE core]           :    -3284.17422007225832 |
           | Exc [PS core]              :    -2067.77393498216315 |
           | Exc DC [PS core]           :    -1968.96735487334809 |
           | Exc [Core]                 :   -82082.47987150846170 |
           | Total [Sphere]             :    -1300.70048011823383 |
           | Total                      :   -17637.17952296935980 |
           --------------------------------------------------------
           Integrated compensation chrg.:      378.40940708878526
           Integrated density           :     5039.99987187372335
           Integrated spin density      :        0.00000002522961
           Integrated |spin density|    :      581.47325379333836
================================================================================

WARNING: maximum number of NGWF CG iterations (   1) exceeded!

                        <<<<< CALCULATION SUMMARY >>>>>                         
|ITER|    RMS GRADIENT   |     TOTAL ENERGY    |   step   |     Epredicted              
   0     0.00001042493251 -17637.17952296938170  <-- CG                                 

======================== Writing density and potential =========================
Writing "Cr2I6_bilayer_HT_AFM_AFM_SP_ps_density.cube" ... done
Writing "Cr2I6_bilayer_HT_AFM_AFM_SP_ps_spindensity.cube" ... done
Writing "Cr2I6_bilayer_HT_AFM_AFM_SP_ae_density.cube" ... done
Writing "Cr2I6_bilayer_HT_AFM_AFM_SP_ae_spindensity.cube" ... done
Writing "Cr2I6_bilayer_HT_AFM_AFM_SP_potential.cube" ... done
Writing "Cr2I6_bilayer_HT_AFM_AFM_SP_electrostatic_potential.cube" ... done
================================================================================

    Mulliken Atomic Populations
    ---------------------------
Species  Ion    Total   Charge (e)    Spin (hbar)
=================================================
  Cr     1      13.783      0.217      1.90
  Cr     2      13.784      0.216      1.90
  I      3       7.078     -0.078     -0.13
  I      4       7.069     -0.069     -0.13
  I      5       7.069     -0.069     -0.13
  I      6       7.073     -0.073     -0.13
  I      7       7.072     -0.072     -0.13
  I      8       7.072     -0.072     -0.13
  Cr     9      13.783      0.217     -1.90
  Cr    10      13.784      0.216     -1.90
  I     11       7.073     -0.073      0.13
  I     12       7.072     -0.072      0.13
  I     13       7.072     -0.072      0.13
  I     14       7.078     -0.078      0.13
  I     15       7.069     -0.069      0.13
  I     16       7.069     -0.069      0.13
  Cr    17      13.783      0.217      1.90
  Cr    18      13.781      0.219      1.90
  I     19       7.078     -0.078     -0.13
  I     20       7.070     -0.070     -0.13
  I     21       7.069     -0.069     -0.13
  I     22       7.073     -0.073     -0.13
  I     23       7.072     -0.072     -0.13
  I     24       7.072     -0.072     -0.13
  Cr    25      13.783      0.217     -1.90
  Cr    26      13.784      0.216     -1.90
  I     27       7.073     -0.073      0.13
  I     28       7.072     -0.072      0.13
  I     29       7.072     -0.072      0.13
  I     30       7.078     -0.078      0.13
  I     31       7.069     -0.069      0.13
  I     32       7.069     -0.069      0.13
  Cr    33      13.783      0.217      1.90
  Cr    34      13.783      0.217      1.90
  I     35       7.078     -0.078     -0.13
  I     36       7.069     -0.069     -0.13
  I     37       7.069     -0.069     -0.13
  I     38       7.074     -0.074     -0.13
  I     39       7.072     -0.072     -0.13
  I     40       7.072     -0.072     -0.13
  Cr    41      13.783      0.217     -1.90
  Cr    42      13.783      0.217     -1.90
  I     43       7.073     -0.073      0.13
  I     44       7.072     -0.072      0.13
  I     45       7.072     -0.072      0.13
  I     46       7.078     -0.078      0.13
  I     47       7.069     -0.069      0.13
  I     48       7.069     -0.069      0.13
  Cr    49      13.783      0.217      1.90
  Cr    50      13.784      0.216      1.90
  I     51       7.078     -0.078     -0.13
  I     52       7.069     -0.069     -0.13
  I     53       7.069     -0.069     -0.13
  I     54       7.073     -0.073     -0.13
  I     55       7.072     -0.072     -0.13
  I     56       7.072     -0.072     -0.13
  Cr    57      13.783      0.217     -1.90
  Cr    58      13.783      0.217     -1.90
  I     59       7.073     -0.073      0.13
  I     60       7.072     -0.072      0.13
  I     61       7.072     -0.072      0.13
  I     62       7.078     -0.078      0.13
  I     63       7.069     -0.069      0.13
  I     64       7.069     -0.069      0.13
  Cr    65      13.783      0.217      1.90
  Cr    66      13.784      0.216      1.90
  I     67       7.078     -0.078     -0.13
  I     68       7.069     -0.069     -0.13
  I     69       7.069     -0.069     -0.13
  I     70       7.073     -0.073     -0.13
  I     71       7.072     -0.072     -0.13
  I     72       7.072     -0.072     -0.13
  Cr    73      13.783      0.217     -1.90
  Cr    74      13.783      0.217     -1.90
  I     75       7.073     -0.073      0.13
  I     76       7.072     -0.072      0.13
  I     77       7.072     -0.072      0.13
  I     78       7.078     -0.078      0.13
  I     79       7.069     -0.069      0.13
  I     80       7.069     -0.069      0.13
  Cr    81      13.783      0.217      1.90
  Cr    82      13.783      0.217      1.90
  I     83       7.078     -0.078     -0.13
  I     84       7.069     -0.069     -0.13
  I     85       7.069     -0.069     -0.13
  I     86       7.073     -0.073     -0.13
  I     87       7.072     -0.072     -0.13
  I     88       7.072     -0.072     -0.13
  Cr    89      13.783      0.217     -1.90
  Cr    90      13.784      0.216     -1.90
  I     91       7.073     -0.073      0.13
  I     92       7.072     -0.072      0.13
  I     93       7.072     -0.072      0.13
  I     94       7.078     -0.078      0.13
  I     95       7.069     -0.069      0.13
  I     96       7.069     -0.069      0.13
  Cr    97      13.783      0.217      1.90
  Cr    98      13.784      0.216      1.90
  I     99       7.078     -0.078     -0.13
  I    100       7.069     -0.069     -0.13
  I    101       7.069     -0.069     -0.13
  I    102       7.073     -0.073     -0.13
  I    103       7.072     -0.072     -0.13
  I    104       7.072     -0.072     -0.13
  Cr   105      13.783      0.217     -1.90
  Cr   106      13.783      0.217     -1.90
  I    107       7.073     -0.073      0.13
  I    108       7.072     -0.072      0.13
  I    109       7.072     -0.072      0.13
  I    110       7.078     -0.078      0.13
  I    111       7.069     -0.069      0.13
  I    112       7.069     -0.069      0.13
  Cr   113      13.783      0.217      1.90
  Cr   114      13.783      0.217      1.90
  I    115       7.078     -0.078     -0.13
  I    116       7.069     -0.069     -0.13
  I    117       7.069     -0.069     -0.13
  I    118       7.073     -0.073     -0.13
  I    119       7.072     -0.072     -0.13
  I    120       7.072     -0.072     -0.13
  Cr   121      13.783      0.217     -1.90
  Cr   122      13.784      0.216     -1.90
  I    123       7.073     -0.073      0.13
  I    124       7.072     -0.072      0.13
  I    125       7.072     -0.072      0.13
  I    126       7.078     -0.078      0.13
  I    127       7.069     -0.069      0.13
  I    128       7.069     -0.069      0.13
  Cr   129      13.783      0.217      1.90
  Cr   130      13.781      0.219      1.90
  I    131       7.078     -0.078     -0.13
  I    132       7.070     -0.070     -0.13
  I    133       7.070     -0.070     -0.13
  I    134       7.073     -0.073     -0.13
  I    135       7.072     -0.072     -0.13
  I    136       7.072     -0.072     -0.13
  Cr   137      13.783      0.217     -1.90
  Cr   138      13.784      0.216     -1.90
  I    139       7.073     -0.073      0.13
  I    140       7.072     -0.072      0.13
  I    141       7.072     -0.072      0.13
  I    142       7.078     -0.078      0.13
  I    143       7.069     -0.069      0.13
  I    144       7.069     -0.069      0.13
  Cr   145      13.783      0.217      1.90
  Cr   146      13.784      0.216      1.90
  I    147       7.078     -0.078     -0.13
  I    148       7.069     -0.069     -0.13
  I    149       7.069     -0.069     -0.13
  I    150       7.074     -0.074     -0.13
  I    151       7.072     -0.072     -0.13
  I    152       7.072     -0.072     -0.13
  Cr   153      13.783      0.217     -1.90
  Cr   154      13.784      0.216     -1.90
  I    155       7.073     -0.073      0.13
  I    156       7.072     -0.072      0.13
  I    157       7.072     -0.072      0.13
  I    158       7.078     -0.078      0.13
  I    159       7.069     -0.069      0.13
  I    160       7.069     -0.069      0.13
  Cr   161      13.783      0.217      1.90
[...]
*    Cr    409      0.00002241  -0.00014030   0.00008139 *
*    Cr    410      0.00000220   0.00015452   0.00008717 *
*    I     411      0.00400067  -0.00001900  -0.00734806 *
*    I     412     -0.00202058  -0.00348909  -0.00735141 *
*    I     413     -0.00197850   0.00352752  -0.00730388 *
*    I     414     -0.00385801  -0.00004564   0.00530525 *
*    I     415      0.00206551   0.00352724   0.00446983 *
*    I     416      0.00210034  -0.00352031   0.00442510 *
*    Cr    417      0.00022951  -0.00000849  -0.00008759 *
*    Cr    418     -0.00003192   0.00013066  -0.00009459 *
*    I     419      0.00380134   0.00009723  -0.00523858 *
*    I     420     -0.00205327  -0.00349842  -0.00440765 *
*    I     421     -0.00215443   0.00349281  -0.00441478 *
*    I     422     -0.00397489   0.00006901   0.00728715 *
*    I     423      0.00200087   0.00345375   0.00728722 *
*    I     424      0.00191080  -0.00354355   0.00729437 *
*    Cr    425      0.00002856  -0.00014134   0.00009182 *
*    Cr    426      0.00000443   0.00014243   0.00008838 *
*    I     427      0.00395781   0.00001332  -0.00728346 *
*    I     428     -0.00196176  -0.00349627  -0.00730497 *
*    I     429     -0.00197540   0.00352307  -0.00730194 *
*    I     430     -0.00381994  -0.00000759   0.00524572 *
*    I     431      0.00209835   0.00347595   0.00442646 *
*    I     432      0.00209761  -0.00352215   0.00442703 *
*    Cr    433      0.00038059   0.00007552  -0.00007201 *
*    Cr    434     -0.00004088   0.00014304  -0.00009447 *
*    I     435      0.00381839   0.00001865  -0.00527055 *
*    I     436     -0.00212994  -0.00348317  -0.00444225 *
*    I     437     -0.00209014   0.00356647  -0.00446557 *
*    I     438     -0.00399675  -0.00001146   0.00732238 *
*    I     439      0.00194830   0.00350976   0.00732209 *
*    I     440      0.00201334  -0.00352867   0.00735096 *
*    Cr    441      0.00002551  -0.00014013   0.00008450 *
*    Cr    442     -0.00000597   0.00014119   0.00009117 *
*    I     443      0.00397906  -0.00002684  -0.00732212 *
*    I     444     -0.00199729  -0.00350942  -0.00735700 *
*    I     445     -0.00197169   0.00356278  -0.00735211 *
*    I     446     -0.00383886  -0.00005526   0.00528170 *
*    I     447      0.00209428   0.00351847   0.00447625 *
*    I     448      0.00213189  -0.00354288   0.00447615 *
*    Cr    449      0.00045583   0.00011412  -0.00007489 *
*    Cr    450     -0.00004183   0.00015995  -0.00009221 *
*    I     451      0.00380478   0.00001648  -0.00524627 *
*    I     452     -0.00211471  -0.00347902  -0.00443548 *
*    I     453     -0.00209125   0.00356666  -0.00446283 *
*    I     454     -0.00397965  -0.00001614   0.00729706 *
*    I     455      0.00195404   0.00349497   0.00731136 *
*    I     456      0.00200977  -0.00352825   0.00735006 *
*    Cr    457      0.00002124  -0.00014045   0.00008716 *
*    Cr    458      0.00000568   0.00015495   0.00008749 *
*    I     459      0.00399190  -0.00000777  -0.00734038 *
*    I     460     -0.00200542  -0.00348792  -0.00734313 *
*    I     461     -0.00195083   0.00356632  -0.00733972 *
*    I     462     -0.00384801  -0.00003829   0.00529739 *
*    I     463      0.00207326   0.00351786   0.00446361 *
*    I     464      0.00214486  -0.00351786   0.00446022 *
*    Cr    465      0.00041267   0.00009286  -0.00008215 *
*    Cr    466      0.00029905  -0.00004331  -0.00009360 *
*    I     467      0.00378316   0.00006830  -0.00520631 *
*    I     468     -0.00205643  -0.00347906  -0.00438784 *
*    I     469     -0.00210871   0.00353170  -0.00443071 *
*    I     470     -0.00395820   0.00002974   0.00725572 *
*    I     471      0.00197884   0.00344481   0.00726504 *
*    I     472      0.00197288  -0.00352763   0.00731197 *
*    Cr    473      0.00003112  -0.00014345   0.00008785 *
*    Cr    474      0.00000948   0.00015576   0.00009381 *
*    I     475      0.00395540   0.00003092  -0.00727810 *
*    I     476     -0.00194394  -0.00349557  -0.00730255 *
*    I     477     -0.00195300   0.00356676  -0.00734586 *
*    I     478     -0.00380916   0.00000331   0.00523587 *
*    I     479      0.00211250   0.00346416   0.00442249 *
*    I     480      0.00214319  -0.00352106   0.00446216 *
*    Cr    481     -0.00002159  -0.00016024  -0.00009145 *
*    Cr    482      0.00044220  -0.00014360  -0.00008883 *
*    I     483      0.00383394  -0.00001844  -0.00528055 *
*    I     484     -0.00214979  -0.00348185  -0.00446562 *
*    I     485     -0.00215393   0.00347776  -0.00439676 *
*    I     486     -0.00400219  -0.00004714   0.00732068 *
*    I     487      0.00193689   0.00352822   0.00734988 *
*    I     488      0.00190744  -0.00353102   0.00727427 *
*    Cr    489      0.00003165  -0.00014094   0.00009233 *
*    Cr    490      0.00000809   0.00014043   0.00009153 *
*    I     491      0.00398723   0.00004183  -0.00733516 *
*    I     492     -0.00197529  -0.00349091  -0.00731624 *
*    I     493     -0.00198283   0.00350672  -0.00729185 *
*    I     494     -0.00384401   0.00001630   0.00529220 *
*    I     495      0.00208977   0.00348974   0.00443907 *
*    I     496      0.00208024  -0.00352214   0.00441535 *
*    Cr    497     -0.00002078  -0.00015745  -0.00009306 *
*    Cr    498     -0.00004357   0.00014136  -0.00009570 *
*    I     499      0.00381097   0.00002349  -0.00525172 *
*    I     500     -0.00210998  -0.00348832  -0.00443201 *
*    I     501     -0.00214574   0.00347480  -0.00439248 *
*    I     502     -0.00398888  -0.00000142   0.00729954 *
*    I     503      0.00195753   0.00349122   0.00731614 *
*    I     504      0.00190368  -0.00353260   0.00727470 *
*    Cr    505      0.00002489  -0.00013531   0.00008608 *
*    Cr    506      0.00000254   0.00016083   0.00009009 *
*    I     507      0.00398333  -0.00002891  -0.00732396 *
*    I     508     -0.00199930  -0.00350835  -0.00735874 *
*    I     509     -0.00196618   0.00357455  -0.00736286 *
*    I     510     -0.00383913  -0.00005262   0.00528225 *
*    I     511      0.00209251   0.00351480   0.00447798 *
*    I     512      0.00214853  -0.00353662   0.00448455 *
*    Cr    513     -0.00003207  -0.00014918  -0.00008502 *
*    Cr    514     -0.00005146   0.00013859  -0.00009357 *
*    I     515      0.00383371  -0.00002847  -0.00529419 *
*    I     516     -0.00216266  -0.00349624  -0.00448027 *
*    I     517     -0.00215983   0.00347473  -0.00439575 *
*    I     518     -0.00401073  -0.00006208   0.00734250 *
*    I     519      0.00193688   0.00354579   0.00736671 *
*    I     520      0.00189839  -0.00354201   0.00727871 *
*    Cr    521      0.00003302  -0.00013050   0.00008573 *
*    Cr    522      0.00000556   0.00013999   0.00007897 *
*    I     523      0.00399506  -0.00001110  -0.00733837 *
*    I     524     -0.00198607  -0.00353242  -0.00737734 *
*    I     525     -0.00202598   0.00352243  -0.00733344 *
*    I     526     -0.00385437  -0.00003747   0.00529698 *
*    I     527      0.00211512   0.00351800   0.00449427 *
*    I     528      0.00207332  -0.00356766   0.00445924 *
*    Cr    529     -0.00002318  -0.00016080  -0.00008727 *
*    Cr    530     -0.00003844   0.00014592  -0.00009695 *
*    I     531      0.00383679  -0.00002238  -0.00529643 *
*    I     532     -0.00216514  -0.00348862  -0.00447294 *
*    I     533     -0.00211504   0.00353398  -0.00444002 *
*    I     534     -0.00401222  -0.00004891   0.00734446 *
*    I     535      0.00192941   0.00354402   0.00736174 *
*    I     536      0.00196794  -0.00353145   0.00732370 *
*    Cr    537      0.00003030  -0.00013904   0.00007707 *
*    Cr    538      0.00001657   0.00014264   0.00008381 *
*    I     539      0.00401227   0.00000167  -0.00736851 *
*    I     540     -0.00201274  -0.00350829  -0.00736728 *
*    I     541     -0.00197045   0.00356792  -0.00735523 *
*    I     542     -0.00387468  -0.00002650   0.00532655 *
*    I     543      0.00208481   0.00353012   0.00448474 *
*    I     544      0.00213425  -0.00353814   0.00447407 *
*    Cr    545     -0.00002109  -0.00016185  -0.00009581 *
*    Cr    546     -0.00003141   0.00014937  -0.00010088 *
*    I     547      0.00379015   0.00005804  -0.00522581 *
*    I     548     -0.00207346  -0.00348228  -0.00440165 *
*    I     549     -0.00211381   0.00351932  -0.00442344 *
*    I     550     -0.00396725   0.00002286   0.00727240 *
*    I     551      0.00197108   0.00346423   0.00728418 *
*    I     552      0.00195548  -0.00352817   0.00730952 *
*    Cr    553      0.00002834  -0.00014484   0.00008768 *
*    Cr    554      0.00000143   0.00015561   0.00009265 *
*    I     555      0.00399047  -0.00000464  -0.00733970 *
*    I     556     -0.00200632  -0.00349124  -0.00734459 *
*    I     557     -0.00195135   0.00356704  -0.00734120 *
*    I     558     -0.00384767  -0.00003296   0.00529465 *
*    I     559      0.00207478   0.00351805   0.00446464 *
*    I     560      0.00214157  -0.00351820   0.00446005 *
*    Cr    561     -0.00002760  -0.00015156  -0.00010365 *
*    Cr    562     -0.00004691   0.00013492  -0.00009556 *
*    I     563      0.00378863   0.00005503  -0.00521988 *
*    I     564     -0.00207224  -0.00348292  -0.00440164 *
*    I     565     -0.00214712   0.00347702  -0.00438614 *
*    I     566     -0.00396072   0.00002010   0.00726352 *
*    I     567      0.00197456   0.00346240   0.00728462 *
*    I     568      0.00190295  -0.00353094   0.00726498 *
*    Cr    569      0.00002893  -0.00013390   0.00008646 *
*    Cr    570      0.00000101   0.00015829   0.00008427 *
*    I     571      0.00398371  -0.00002610  -0.00732502 *
*    I     572     -0.00198601  -0.00352981  -0.00738139 *
*    I     573     -0.00203039   0.00350910  -0.00732830 *
*    I     574     -0.00383983  -0.00004922   0.00528384 *
*    I     575      0.00212167   0.00351881   0.00449762 *
*    I     576      0.00206005  -0.00355777   0.00445163 *
*                                                        *
**********************************************************
* TOTAL:            0.00000000  -0.00000000  -0.00000000 *
**********************************************************
 
 
***********************************************************
********** Summary of Forces (values in Eh/a) *************
*                                                         *
* ---------------------- Minimum ------------------------ *
* Atom:       233, |F|min =    0.00015373                 *
* Components:     Fx|min       Fy|min       Fz|min        *
*               0.00002987  -0.00012142   0.00008944      *
*                                                         *
* ---------------------- Maximum ------------------------ *
* Atom:       301, |F|max =    0.00844162                 *
* Components:     Fx|max       Fy|max       Fz|max        *
*              -0.00199096   0.00357694  -0.00738258      *
*                                                         *
* ---------------- Root Mean Square Force --------------- *
*                  |F|rms =    0.00637533                 *
* Components:     Fx|rms       Fy|rms       Fz|rms        *
*               0.00242989   0.00248875   0.00534290      *
***********************************************************
 

------------------------------ TIMING INFORMATION ------------------------------
AVERAGE TIME:    1942.650s on    150 proc(s)                                    
TOTAL TIME:      1942.651s on    150 proc(s)                                    
==================== AVERAGE TIMINGS FROM ALL PROCS (CUMULATIVE) =====================
|| TAG                                         #calls     cpu time   %total  Gflops ||
|| hash_table_free                            :     4        0.00s   0.000%  ------ ||
|| density_fftbox_interp_mult_imbal           :   500        0.00s   0.000%  ------ ||
|| sw_bessel_init_cpu                         :     1        0.01s   0.000%  ------ || (1 procs only)
|| onetep.F90 main loop imbalance             :     1        0.00s   0.000%  ------ ||
|| ewald_calculate_forces_realspace           :     1        0.00s   0.000%  ------ ||
|| paw_dij_hartree                            :     9        0.00s   0.000%  ------ ||
|| sparse_spam3toblacs_real_fast_imbal        :     8        0.00s   0.000%  ------ ||
|| sparse_set_to_garbage                      :    42        0.00s   0.000%  ------ ||
|| sparse_blacstospam3_real_fast_imbal        :    24        0.01s   0.001%  ------ ||
|| sparse_spam3toblacs_real_fast_B2           :  1200        0.02s   0.001%  ------ ||
|| linalg_dgemv                               :    29        0.02s   0.001%  ------ ||
|| ewald_calculate_energy                     :     1        0.04s   0.002%  ------ ||
|| ewald_calculate_forces_recipspace          :     1        0.05s   0.003%  ------ ||
|| ewald_calculate_forces                     :     1        0.06s   0.003%  ------ ||
|| onetep.F90 final imbalance                 :     1        0.08s   0.004%  ------ ||
|| sw_init                                    :    18        0.08s   0.004%  ------ ||
|| basis_extract_function_from_box            :   240        0.09s   0.005%  ------ ||
|| pseudo_make_structure_factor               :     1        0.15s   0.008%  ------ ||
|| augmentation_density_forces                :     1        0.23s   0.012%  ------ ||
|| lnv_gradient_norm                          :     1        0.32s   0.016%  ------ ||
|| sparse_trace                               :   208        0.39s   0.020%  ------ ||
|| restart_kernel_read                        :     1        0.40s   0.021%  ------ ||
|| fourier_filter_cell                        :    10        0.43s   0.022% 412.796 ||
|| paw_tcore_hartree_on_grid                  :     1        0.51s   0.026%  ------ ||
|| sparse_spam3toblacs_real_fast_B1           :  1200        0.57s   0.029%  ------ ||
|| hartree_on_grid_single                     :     8        0.57s   0.029%  ------ ||
|| paw_tcore_hartree_calc_forces              :     1        0.61s   0.031%  ------ ||
|| sparse_spam3toblacs_real_fast              :     8        0.62s   0.032%  ------ ||
|| kernel_fix                                 :     1        0.78s   0.040%  ------ ||
|| kernel_purify                              :     8        0.90s   0.046%  ------ ||
|| fourier_interpolate_cell                   :    20        0.94s   0.049% 376.051 ||
|| paw_nlcc_calculate_forces                  :     1        1.20s   0.062%  ------ ||
|| paw_tcore_density                          :     1        1.25s   0.064%  ------ ||
|| dense_eigensolve                           :     2        1.27s   0.065%  ------ ||
|| aug_nonlocal_mat_spam3_embed_array         :     6        1.35s   0.069%  ------ ||
|| augmentation_screen_dij_spam3              :     7        1.40s   0.072%  ------ ||
|| paw_dataset_init                           :     2        1.51s   0.078%  ------ ||
|| paw_sphere_density_on_grid                 :     1        1.52s   0.078%  ------ ||
|| ngwf_gradient_coeffs                       :     2        1.56s   0.080%  ------ ||
|| paw_dij_xc                                 :     9        1.80s   0.093%  ------ ||
|| sparse_init                                :     1        1.84s   0.095%  ------ ||
|| sparse_embed_array_hotelling_invert        :     4        1.88s   0.097%  ------ ||
|| basis_copy_function_to_box                 :  1440        2.18s   0.112%  ------ ||
|| fourier_apply_cell_forward                 :    73        2.68s   0.138% 433.890 ||
|| fourier_apply_cell_backward                :    73        2.96s   0.152% 393.143 ||
|| fourier_apply_box_pair                     :   316        3.21s   0.165%  5.783k ||
|| sparse_blacstospam3_real_fast              :    24        3.55s   0.183%  ------ ||
|| aug_density_on_grid_spam3                  :    10        4.76s   0.245%  ------ ||
|| xc_energy_potential                        :     8        5.32s   0.274%  ------ ||
|| paw_species_calc_proj_prec_mat             :     1        5.94s   0.306%  ------ ||
|| sparse_product                             :   578        7.58s   0.390%  ------ ||
|| fourier_filter                             :   170        7.91s   0.407%  ------ ||
|| restart_ngwfs_tightbox_input               :     1        9.06s   0.466%  ------ ||
|| energy_and_force_init_cell                 :     1        9.52s   0.490%  ------ ||
|| projectors_init_fftbox_recip               :    31       11.01s   0.567%  ------ ||
|| fourier_interpolate                        :   170       12.82s   0.660%  ------ ||
|| cell_grid_deposit_box_real                 :  1238       15.18s   0.781%  ------ ||
|| integrals_grad_spam3                       :     2       16.19s   0.834%  ------ ||
|| nonsc_forces_ngwfs_calc                    :     1       16.19s   0.834%  ------ ||
|| density_fftbox_deposit_to_cell             :   500       22.98s   1.183%  ------ ||
|| function_ops_brappd_ketppd_spam3           :     8       26.04s   1.341%  ------ ||
|| projectors_func_grad_ovlp_box_spam3        :     6       36.13s   1.860%  ------ ||
|| aug_nl_calculate_forces                    :     1       36.98s   1.904%  ------ ||
|| eigenstates_calculate                      :     1       37.05s   1.907%  ------ ||
|| hamiltonian_energy_components              :     1       38.82s   1.998%  ------ ||
|| potential_apply_to_ngwf_batch              :    12       38.87s   2.001%  ------ ||
|| projectors_func_ovlp_box_spam3             :     8       46.21s   2.379%  ------ ||
|| basis_dot_function_with_box                : 676.0k      51.38s   2.645%  ------ ||
|| integrals_locpot_mat_els_batch             :    12       56.69s   2.918%  ------ ||
|| projectors_gradient_batch                  :     8       71.51s   3.681%  ------ ||
|| lnv_denskernel_optimise_cg                 :     1       71.91s   3.701%  ------ ||
|| integrals_kinetic_spam3                    :     8       86.33s   4.444%  ------ ||
|| fourier_apply_box                          :  3247       94.57s   4.868%  5.900k ||
|| fourier_interpolate_product                :   480       95.52s   4.917%  ------ ||
|| integrals_locpot_dbl_grid                  :     6       95.60s   4.921%  ------ ||
|| density_fftbox_interpolate_multiply        :   500       99.82s   5.138%  ------ ||
|| forces_calculate                           :     1      115.18s   5.929%  ------ ||
|| basis_add_function_to_box                  : 1.482M     146.05s   7.518%  ------ ||
|| cell_grid_extract_box_real                 :   394      174.29s   8.972%  ------ ||
|| density_batch_interp_deposit               :    40      177.47s   9.136%  ------ ||
|| density_batch_row_sums                     :    40      188.03s   9.679%  ------ ||
|| hamiltonian_lhxc_calculate                 :     6      230.70s  11.875%  ------ ||
|| density_on_dbl_grid                        :    20      367.17s  18.901%  ------ ||
|| projectors_grad_precond_batch              :     8      431.67s  22.220%  ------ ||
|| properties_calculate                       :     1      501.12s  25.796%  ------ ||
|| ngwf_gradient_build_batch                  :     8      542.98s  27.950%  ------ ||
|| ngwf_gradient_batch                        :     8      787.74s  40.550%  ------ ||
|| ngwf_gradient_lnv                          :     2      811.22s  41.758%  ------ ||
|| ngwf_cg_optimise                           :     1     1241.23s  63.894%  ------ ||
|| energy_and_forces                          :     1     1931.74s  99.438%  ------ ||
|| total_time                                 :     1     1942.65s 100.000%  ------ ||
======================================================================================
Overhead of generating timer report: 
- 0 ms averaging over threads,
- 8 ms ensuring consistency across MPI ranks,
- 0 ms printing in order.

Job completed: 30-05-2025 22:56 (+0100)

onetep_launcher: ONETEP seems to have finished correctly (zero exit code).
                 Brought to you by PID 113902 on nid001931.
