==================================================================================
It's Sat 26 Apr 2025 10:13:59 AM BST.
*** Starting onetep_launcher (node nid001930, PIDs 24041 24042 24043 24044 24045 24046)...
    - ONETEP arguments: Cr2I6_bilayer_HT_AFM_FM_SP.dat
    - Current directory: /mnt/lustre/a2fs-work3/work/e89/e89/phsmea/CrI3_onetep_U/U_2.97/HT_AFM/HT_AFM_FM_J/sp
    - Launcher executable directory: /mnt/lustre/a2fs-work3/work/e89/e89/phsmea/CrI3_onetep_U/U_2.97/HT_AFM/HT_AFM_FM_J/sp
    - (-e) ONETEP executable specified through command-line: /work/e89/e89/phsmea/onetep.archer2_2024_cray_2
      ... trying /work/e89/e89/phsmea/onetep.archer2_2024_cray_2
          -> looks OK
*** Setting up environment...
    - (-s) Process stack size: unlimited
    - (-t) OMP_NUM_THREADS: 16
    - (-o) OMP_STACKSIZE: 64M
    - (-c) Maximum core file size: 2048000
    - (-d) decfort_dump_flag: n
    - (-m) I_MPI_OFA_TRANSLATION_CACHE: 0
    - (-m) I_MPI_DAPL_TRANSLATION_CACHE: 0
    - (-m) I_MPI_DAPL_UD_TRANSLATION_CACHE: 0
*** Starting ONETEP...
    - /work/e89/e89/phsmea/onetep.archer2_2024_cray_2 Cr2I6_bilayer_HT_AFM_FM_SP.dat
=================================================================================
_________________________________________________________________________________
 +---------------------------------------------------------------+
 |                                                               |
 |        ####### #     # ####### ####### ####### ######         |
 |        #     # ##    # #          #    #       #     #        |
 |        #     # # #   # #          #    #       #     #        |
 |        #     # #  #  # #####      #    #####   ######         |
 |        #     # #   # # #          #    #       #              |
 |        #     # #    ## #          #    #       #              |
 |        ####### #     # #######    #    ####### #              |
 |                                                               |
 |        Linear-Scaling Ab Initio Total Energy Program          |
 |                                                               |
 |          Release for academic collaborators of ODG            |
 |                                             Version 7.3.0     |
 | Remote: git@github.com:Miesaz/onetep_mea.git                  |
 | Local branch: master                                          |
 | Commit ID: 4af45e89288c8df5499704252eec3e032ee3d0c8           |
 | Date: Tue Aug 6 11:28:44 2024 +0100                           |
 | Locally modified files:                                       |
 |   src/hubbard_build_mod.F90                                   |
 |   src/services_mod.F90                                        |
 |                                                               |
 +---------------------------------------------------------------+
 |                                                               |
 |  Authors:                                                     |
 |  Jacek Dziedzic, Peter D. Haynes, Nicholas D. M. Hine,        |
 |  Arash A. Mostofi, Mike C. Payne and Chris-Kriton Skylaris    |
 |                                                               |
 |  Contributors:                                                |
 |  J. Aarons, L. Andrinopoulos, P. W. Avraam, R. A. Bell,       |
 |  A. Bhandari, G. A. Bramley, R. J. Charlton, S. J. Clark,     |
 |  R. J. Clements, G. C. Constantinescu, F. Corsetti,           |
 |  N. Corsini, O. Dieguez, S. M. M. Dubois, K. K. B. Duff,      |
 |  J. M. Escartin, M. Escobar Azor, A. Greco,                   |
 |  H. Helal, Q. O. Hill, L. P. Lee, J.-H. Li,                   |
 |  T. Li, E. B. Linscott, G. Moynihan, D. D. O`Regan,           |
 |  O. K. Okan, E. Parkinson, M. J. S. Phipps,                   |
 |  C. J. Pickard, J. C. A. Prentice, M. I. J. Probert,          |
 |  L. E. Ratcliff, M. Robinson, A. Ruiz Serrano,                |
 |  M. dos Santos Dias, J. S. Spencer, E. W. Tait,               |
 |  G. Teobaldi, D. Turban, V. Vitale, K. A. Wilkinson,          |
 |  C. Weber, J. C. Womack, Chengcheng Xiao, N. Yeung,           |
 |  and T. J. Zuehlsdorff.                                       |
 |                                                               |
 |                                   Copyright (c) 2004-2025     |
 |                                                               |
 |  Please cite:                                                 |
 |  "The ONETEP linear-scaling density functional theory program"|
 |   J. Chem. Phys. 152(17) 174111 (2020)                        |
 |                                                               |
 |          in all publications arising from your use of ONETEP. |
 |                                                               |
 +---------------------------------------------------------------+
 |                                                               |
 |   ONETEP is based on developments described in the following  |
 |   publications:                                               |
 |                                                               |
 |  "Nonorthogonal generalized Wannier function pseudopotential  |
 |   plane-wave method".                                         |
 |   C.-K. Skylaris, A. A. Mostofi, P. D. Haynes, O. Dieguez,    |
 |   M. C. Payne.                                                |
 |   Phys. Rev. B 66 035119 (2002).                              |
 |                                                               |
 |  "Preconditioned iterative minimization for linear-scaling    |
 |   electronic structure calculations".                         |
 |   A. A. Mostofi, P. D. Haynes, C.-K. Skylaris, M. C. Payne.   |
 |   J. Chem. Phys. 119(17), pp.8842-8848 (2003).                |
 |                                                               |
 |  "Total-energy calculations on a real space grid with         |
 |   localized functions and a plane-wave basis".                |
 |   A. A. Mostofi, C.-K. Skylaris, P. D. Haynes, M. C. Payne.   |
 |   Comput. Phys. Commun. 147, pp.788-802 (2002).               |
 |                                                               |
 |  "Accurate kinetic energy evaluation in electronic structure  |
 |   calculations with localized functions on real space grids"  |
 |   C.-K. Skylaris, A. A. Mostofi, P. D. Haynes, C. J. Pickard, |
 |   M. C. Payne.                                                |
 |   Comput. Phys. Commun. 140, pp.315-322 (2001).               |
 |                                                               |
 |  "Accurate ionic forces and geometry optimization in linear-  |
 |   scaling density-functional theory with local orbitals"      |
 |   N. D. M. Hine, M. Robinson, P. D. Haynes, C.-K. Skylaris,   |
 |   M. C. Payne, and A. A. Mostofi.                             |
 |   Phys. Rev. B 83 195102 (2011).                              |
 |                                                               |
 +---------------------------------------------------------------+

Job started: 26-04-2025 10:14 (+0100)
 
Reading parameters from file "Cr2I6_bilayer_HT_AFM_FM_SP.dat" ...... done

If your calculation crashes here, before "Checking processes and threads..."
is displayed, then your stack size is insufficient.
If so, use "ulimit -s unlimited" at runtime.
You can disable this check with "check_stack_size F".

Checking processes and threads...
      Default threads: 16
   Running with 150 MPI processes.
   There are 6 MPI processes running on the same node as the root process.
   Each MPI process is using: 
               1 threads for simulation cell FFTs.
               1 threads for threaded FFT box operations.
              16 threads for loops over batched FFT box operations.
              16 threads in other parallel regions.
   MPI Interface: S1 (use mpi_f08) (-DMPI -DUSE_MPI_F08).
   MPI_ASYNC_PROTECTS_NONBLOCKING: Yes. MPI_SUBARRAYS_SUPPORTED: Yes.
   FFTW Interface: OMP-capable and MODERN. (-DUSE_MODERN_FFTW specified).
   GPU Interface: None.
   GPU FFT Backend: None.
... done

Basic input checks...... done

Reading geometry and species blocks from file "Cr2I6_bilayer_HT_AFM_FM_SP.dat" ...... done


--------------------------------------------------------------------------------
---------------------------------- INPUT FILE ----------------------------------
--------------------------------------------------------------------------------

charge : 0                                                                      
cutoff_energy : 1000 eV                                                         
delta_e_conv : F                                                                
do_properties : T                                                               
edft : F                                                                        
edft_init_maxit : 15                                                            
elec_energy_tol : 1e-07 Ha                                                      
fine_grid_scale : 4                                                             
forces_output_detail : VERBOSE                                                  
MAXIT_LNV     : 15                                                              
MINIT_LNV     : 5                                                               
maxit_ngwf_cg : 100                                                             
ngwf_threshold_orig : 1e-06                                                     
ngwfs_spin_polarized : T                                                        
output_detail : NORMAL                                                          
paw : T                                                                         
read_denskern : F                                                               
read_hamiltonian : F                                                            
read_tightbox_ngwfs : F                                                         
spin : 432                                                                      
spin_polarized : T                                                              
task : SinglePoint                                                              
write_denskern : T                                                              
write_forces : T                                                                
write_hamiltonian : T                                                           
write_tightbox_ngwfs : T                                                        
xc_functional : PBE                                                             
%BLOCK LATTICE_CART                                                             
ang                                                                             
41.261892132       0.000000000000000        0.000000000000000                   
-20.630946066       35.733846792             0.000000000000000                  
0.000000000000000   0.0000000000000000       27.507928088                       
%ENDBLOCK LATTICE_CART                                                          
%BLOCK POSITIONS_ABS                                                            
ang                                                                             
Cr       5.73012301       1.98615267      15.61475195                           
Cr       2.29163200       3.96948846      15.61475241                           
I        6.71804295      -0.00001318      14.06395847                           
I        3.51661508       2.12334657      14.07089707                           
I        0.07814689       3.83230774      14.07089707                           
I        4.74445508      -0.00001140      17.15723785                           
I        4.50489604       3.83201918      17.15707434                           
I        1.06642478       2.12363336      17.15707434                           
Cr      3.43917878       1.98613277       9.03123330                            
Cr      0.00068777       3.96950836       9.03123376                            
I        4.42486276      -0.00001318       7.48874545                           
I        1.22590088       2.12363241       7.48890841                           
I       -2.21256731       3.83202190       7.48890841                           
I        2.45126709      -0.00001140      10.58202506                           
I        2.21418512       3.83230199      10.57507890                           
I       -1.22428614       2.12335055      10.57507890                           
Cr       2.29163200       7.94179381      15.61475195                           
Cr      -1.14685901       9.92512959      15.61475241                           
I        3.27955194       5.95562795      14.06395847                           
I        0.07812407       8.07898770      14.07089707                           
I       -3.36034412       9.78794887      14.07089707                           
I        1.30596407       5.95562973      17.15723785                           
I        1.06640503       9.78766031      17.15707434                           
I       -2.37206623       8.07927449      17.15707434                           
Cr      0.00068777       7.94177390       9.03123330                            
Cr     -3.43780324       9.92514949       9.03123376                            
I        0.98637175       5.95562795       7.48874545                           
I       -2.21259013       8.07927354       7.48890841                           
I       -5.65105832       9.78766304       7.48890841                           
I       -0.98722392       5.95562973      10.58202506                           
I       -1.22430589       9.78794313      10.57507890                           
I       -4.66277715       8.07899168      10.57507890                           
Cr      -1.14685901      13.89743494      15.61475195                           
Cr      -4.58535002      15.88077072      15.61475241                           
I       -0.15893907      11.91126908      14.06395847                           
I       -3.36036694      14.03462883      14.07089707                           
I       -6.79883513      15.74359001      14.07089707                           
I       -2.13252694      11.91127086      17.15723785                           
I       -2.37208598      15.74330145      17.15707434                           
I       -5.81055724      14.03491562      17.15707434                           
Cr     -3.43780324      13.89741504       9.03123330                            
Cr     -6.87629425      15.88079062       9.03123376                            
I       -2.45211926      11.91126908       7.48874545                           
I       -5.65108114      14.03491467       7.48890841                           
I       -9.08954933      15.74330417       7.48890841                           
I       -4.42571493      11.91127086      10.58202506                           
I       -4.66279691      15.74358426      10.57507890                           
I       -8.10126817      14.03463281      10.57507890                           
Cr      -4.58535002      19.85307607      15.61475195                           
Cr      -8.02384103      21.83641185      15.61475241                           
I       -3.59743008      17.86691022      14.06395847                           
I       -6.79885795      19.99026996      14.07089707                           
I      -10.23732614      21.69923114      14.07089707                           
I       -5.57101795      17.86691200      17.15723785                           
I       -5.81057699      21.69894258      17.15707434                           
I       -9.24904825      19.99055675      17.15707434                           
Cr     -6.87629425      19.85305617       9.03123330                            
Cr    -10.31478526      21.83643175       9.03123376                            
I       -5.89061027      17.86691022       7.48874545                           
I       -9.08957216      19.99055580       7.48890841                           
I      -12.52804035      21.69894530       7.48890841                           
I       -7.86420594      17.86691200      10.58202506                           
I       -8.10128792      21.69922539      10.57507890                           
I      -11.53975918      19.99027394      10.57507890                           
Cr      -8.02384103      25.80871720      15.61475195                           
Cr     -11.46233204      27.79205298      15.61475241                           
I       -7.03592109      23.82255135      14.06395847                           
I      -10.23734897      25.94591110      14.07089707                           
I      -13.67581716      27.65487227      14.07089707                           
I       -9.00950896      23.82255313      17.15723785                           
I       -9.24906800      27.65458371      17.15707434                           
I      -12.68753926      25.94619789      17.15707434                           
Cr    -10.31478526      25.80869730       9.03123330                            
Cr    -13.75327627      27.79207289       9.03123376                            
I       -9.32910128      23.82255135       7.48874545                           
I      -12.52806317      25.94619693       7.48890841                           
I      -15.96653136      27.65458643       7.48890841                           
I      -11.30269695      23.82255313      10.58202506                           
I      -11.53977893      27.65486652      10.57507890                           
I      -14.97825019      25.94591507      10.57507890                           
Cr     -11.46233205      31.76435833      15.61475195                           
Cr     -14.90082306      33.74769412      15.61475241                           
I      -10.47441210      29.77819248      14.06395847                           
I      -13.67583998      31.90155223      14.07089707                           
I      -17.11430817      33.61051340      14.07089707                           
I      -12.44799997      29.77819426      17.15723785                           
I      -12.68755901      33.61022484      17.15707434                           
I      -16.12603027      31.90183902      17.15707434                           
Cr    -13.75327627      31.76433843       9.03123330                            
Cr    -17.19176728      33.74771402       9.03123376                            
I      -12.76759229      29.77819248       7.48874545                           
I      -15.96655418      31.90183807       7.48890841                           
I      -19.40502237      33.61022756       7.48890841                           
I      -14.74118796      29.77819426      10.58202506                           
I      -14.97826994      33.61050765      10.57507890                           
I      -18.41674120      31.90155621      10.57507890                           
Cr      12.60710503       1.98615267      15.61475195                           
Cr       9.16861402       3.96948846      15.61475241                           
I       13.59502497      -0.00001318      14.06395847                           
I       10.39359710       2.12334657      14.07089707                           
I        6.95512891       3.83230774      14.07089707                           
I       11.62143710      -0.00001140      17.15723785                           
I       11.38187806       3.83201918      17.15707434                           
I        7.94340680       2.12363336      17.15707434                           
Cr     10.31616080       1.98613277       9.03123330                            
Cr      6.87766979       3.96950836       9.03123376                            
I       11.30184479      -0.00001318       7.48874545                           
I        8.10288290       2.12363241       7.48890841                           
I        4.66441471       3.83202190       7.48890841                           
I        9.32824912      -0.00001140      10.58202506                           
I        9.09116714       3.83230199      10.57507890                           
I        5.65269588       2.12335055      10.57507890                           
Cr       9.16861402       7.94179381      15.61475195                           
Cr       5.73012301       9.92512959      15.61475241                           
I       10.15653396       5.95562795      14.06395847                           
I        6.95510609       8.07898770      14.07089707                           
I        3.51663790       9.78794887      14.07089707                           
I        8.18294609       5.95562973      17.15723785                           
I        7.94338705       9.78766031      17.15707434                           
I        4.50491579       8.07927449      17.15707434                           
Cr      6.87766979       7.94177390       9.03123330                            
Cr      3.43917878       9.92514949       9.03123376                            
I        7.86335378       5.95562795       7.48874545                           
I        4.66439189       8.07927354       7.48890841                           
I        1.22592370       9.78766304       7.48890841                           
I        5.88975810       5.95562973      10.58202506                           
I        5.65267613       9.78794313      10.57507890                           
I        2.21420487       8.07899168      10.57507890                           
Cr       5.73012301      13.89743494      15.61475195                           
Cr       2.29163200      15.88077072      15.61475241                           
I        6.71804295      11.91126908      14.06395847                           
I        3.51661508      14.03462883      14.07089707                           
I        0.07814689      15.74359001      14.07089707                           
I        4.74445508      11.91127086      17.15723785                           
I        4.50489604      15.74330145      17.15707434                           
I        1.06642478      14.03491562      17.15707434                           
Cr      3.43917878      13.89741504       9.03123330                            
Cr      0.00068777      15.88079062       9.03123376                            
I        4.42486276      11.91126908       7.48874545                           
I        1.22590088      14.03491467       7.48890841                           
I       -2.21256731      15.74330417       7.48890841                           
I        2.45126709      11.91127086      10.58202506                           
I        2.21418512      15.74358426      10.57507890                           
I       -1.22428614      14.03463281      10.57507890                           
Cr       2.29163200      19.85307607      15.61475195                           
Cr      -1.14685901      21.83641185      15.61475241                           
I        3.27955194      17.86691022      14.06395847                           
I        0.07812407      19.99026996      14.07089707                           
I       -3.36034412      21.69923114      14.07089707                           
I        1.30596407      17.86691200      17.15723785                           
I        1.06640503      21.69894258      17.15707434                           
I       -2.37206623      19.99055675      17.15707434                           
Cr      0.00068777      19.85305617       9.03123330                            
Cr     -3.43780324      21.83643175       9.03123376                            
I        0.98637175      17.86691022       7.48874545                           
I       -2.21259013      19.99055580       7.48890841                           
I       -5.65105832      21.69894530       7.48890841                           
I       -0.98722392      17.86691200      10.58202506                           
I       -1.22430589      21.69922539      10.57507890                           
I       -4.66277715      19.99027394      10.57507890                           
Cr      -1.14685901      25.80871720      15.61475195                           
Cr      -4.58535002      27.79205298      15.61475241                           
I       -0.15893907      23.82255135      14.06395847                           
I       -3.36036694      25.94591110      14.07089707                           
I       -6.79883513      27.65487227      14.07089707                           
I       -2.13252694      23.82255313      17.15723785                           
I       -2.37208598      27.65458371      17.15707434                           
I       -5.81055724      25.94619789      17.15707434                           
Cr     -3.43780324      25.80869730       9.03123330                            
Cr     -6.87629425      27.79207289       9.03123376                            
I       -2.45211926      23.82255135       7.48874545                           
I       -5.65108114      25.94619693       7.48890841                           
I       -9.08954933      27.65458643       7.48890841                           
I       -4.42571493      23.82255313      10.58202506                           
I       -4.66279691      27.65486652      10.57507890                           
I       -8.10126817      25.94591507      10.57507890                           
Cr      -4.58535002      31.76435833      15.61475195                           
Cr      -8.02384103      33.74769412      15.61475241                           
I       -3.59743008      29.77819248      14.06395847                           
I       -6.79885795      31.90155223      14.07089707                           
I      -10.23732614      33.61051340      14.07089707                           
I       -5.57101795      29.77819426      17.15723785                           
I       -5.81057699      33.61022484      17.15707434                           
I       -9.24904825      31.90183902      17.15707434                           
Cr     -6.87629425      31.76433843       9.03123330                            
Cr    -10.31478526      33.74771402       9.03123376                            
I       -5.89061027      29.77819248       7.48874545                           
I       -9.08957216      31.90183807       7.48890841                           
I      -12.52804035      33.61022756       7.48890841                           
I       -7.86420594      29.77819426      10.58202506                           
I       -8.10128792      33.61050765      10.57507890                           
I      -11.53975918      31.90155621      10.57507890                           
Cr      19.48408705       1.98615267      15.61475195                           
Cr      16.04559604       3.96948846      15.61475241                           
I       20.47200700      -0.00001318      14.06395847                           
I       17.27057912       2.12334657      14.07089707                           
I       13.83211093       3.83230774      14.07089707                           
I       18.49841912      -0.00001140      17.15723785                           
I       18.25886009       3.83201918      17.15707434                           
I       14.82038883       2.12363336      17.15707434                           
Cr     17.19314283       1.98613277       9.03123330                            
Cr     13.75465182       3.96950836       9.03123376                            
I       18.17882681      -0.00001318       7.48874545                           
I       14.97986492       2.12363241       7.48890841                           
I       11.54139673       3.83202190       7.48890841                           
I       16.20523114      -0.00001140      10.58202506                           
I       15.96814916       3.83230199      10.57507890                           
I       12.52967790       2.12335055      10.57507890                           
Cr      16.04559604       7.94179381      15.61475195                           
Cr      12.60710503       9.92512959      15.61475241                           
I       17.03351599       5.95562795      14.06395847                           
I       13.83208811       8.07898770      14.07089707                           
I       10.39361992       9.78794887      14.07089707                           
I       15.05992811       5.95562973      17.15723785                           
I       14.82036907       9.78766031      17.15707434                           
I       11.38189781       8.07927449      17.15707434                           
Cr     13.75465181       7.94177390       9.03123330                            
Cr     10.31616080       9.92514949       9.03123376                            
I       14.74033580       5.95562795       7.48874545                           
I       11.54137391       8.07927354       7.48890841                           
I        8.10290572       9.78766304       7.48890841                           
I       12.76674013       5.95562973      10.58202506                           
I       12.52965815       9.78794313      10.57507890                           
I        9.09118689       8.07899168      10.57507890                           
Cr      12.60710503      13.89743494      15.61475195                           
Cr       9.16861402      15.88077072      15.61475241                           
I       13.59502497      11.91126908      14.06395847                           
I       10.39359710      14.03462883      14.07089707                           
I        6.95512891      15.74359001      14.07089707                           
I       11.62143710      11.91127086      17.15723785                           
I       11.38187806      15.74330145      17.15707434                           
I        7.94340680      14.03491562      17.15707434                           
Cr     10.31616080      13.89741504       9.03123330                            
Cr      6.87766979      15.88079062       9.03123376                            
I       11.30184479      11.91126908       7.48874545                           
I        8.10288290      14.03491467       7.48890841                           
I        4.66441471      15.74330417       7.48890841                           
I        9.32824912      11.91127086      10.58202506                           
I        9.09116714      15.74358426      10.57507890                           
I        5.65269588      14.03463281      10.57507890                           
Cr       9.16861402      19.85307607      15.61475195                           
Cr       5.73012301      21.83641185      15.61475241                           
I       10.15653396      17.86691022      14.06395847                           
I        6.95510609      19.99026996      14.07089707                           
I        3.51663790      21.69923114      14.07089707                           
I        8.18294609      17.86691200      17.15723785                           
I        7.94338705      21.69894258      17.15707434                           
I        4.50491579      19.99055675      17.15707434                           
Cr      6.87766979      19.85305617       9.03123330                            
Cr      3.43917878      21.83643175       9.03123376                            
I        7.86335378      17.86691022       7.48874545                           
I        4.66439189      19.99055580       7.48890841                           
I        1.22592370      21.69894530       7.48890841                           
I        5.88975810      17.86691200      10.58202506                           
I        5.65267613      21.69922539      10.57507890                           
I        2.21420487      19.99027394      10.57507890                           
Cr       5.73012301      25.80871720      15.61475195                           
Cr       2.29163200      27.79205298      15.61475241                           
I        6.71804295      23.82255135      14.06395847                           
I        3.51661508      25.94591110      14.07089707                           
I        0.07814689      27.65487227      14.07089707                           
I        4.74445508      23.82255313      17.15723785                           
I        4.50489604      27.65458371      17.15707434                           
I        1.06642478      25.94619789      17.15707434                           
Cr      3.43917878      25.80869730       9.03123330                            
Cr      0.00068777      27.79207289       9.03123376                            
I        4.42486276      23.82255135       7.48874545                           
I        1.22590088      25.94619693       7.48890841                           
I       -2.21256731      27.65458643       7.48890841                           
I        2.45126709      23.82255313      10.58202506                           
I        2.21418512      27.65486652      10.57507890                           
I       -1.22428614      25.94591507      10.57507890                           
Cr       2.29163200      31.76435833      15.61475195                           
Cr      -1.14685901      33.74769412      15.61475241                           
I        3.27955194      29.77819248      14.06395847                           
I        0.07812407      31.90155223      14.07089707                           
I       -3.36034412      33.61051340      14.07089707                           
I        1.30596407      29.77819426      17.15723785                           
I        1.06640503      33.61022484      17.15707434                           
I       -2.37206623      31.90183902      17.15707434                           
Cr      0.00068777      31.76433843       9.03123330                            
Cr     -3.43780324      33.74771402       9.03123376                            
I        0.98637175      29.77819248       7.48874545                           
I       -2.21259013      31.90183807       7.48890841                           
I       -5.65105832      33.61022756       7.48890841                           
I       -0.98722392      29.77819426      10.58202506                           
I       -1.22430589      33.61050765      10.57507890                           
I       -4.66277715      31.90155621      10.57507890                           
Cr      26.36106908       1.98615267      15.61475195                           
Cr      22.92257807       3.96948846      15.61475241                           
I       27.34898902      -0.00001318      14.06395847                           
I       24.14756114       2.12334657      14.07089707                           
I       20.70909295       3.83230774      14.07089707                           
I       25.37540115      -0.00001140      17.15723785                           
I       25.13584211       3.83201918      17.15707434                           
I       21.69737085       2.12363336      17.15707434                           
Cr     24.07012485       1.98613277       9.03123330                            
Cr     20.63163384       3.96950836       9.03123376                            
I       25.05580883      -0.00001318       7.48874545                           
I       21.85684694       2.12363241       7.48890841                           
I       18.41837875       3.83202190       7.48890841                           
I       23.08221316      -0.00001140      10.58202506                           
I       22.84513118       3.83230199      10.57507890                           
I       19.40665992       2.12335055      10.57507890                           
Cr      22.92257806       7.94179381      15.61475195                           
Cr      19.48408705       9.92512959      15.61475241                           
I       23.91049801       5.95562795      14.06395847                           
I       20.70907013       8.07898770      14.07089707                           
I       17.27060194       9.78794887      14.07089707                           
I       21.93691014       5.95562973      17.15723785                           
I       21.69735110       9.78766031      17.15707434                           
I       18.25887984       8.07927449      17.15707434                           
Cr     20.63163384       7.94177390       9.03123330                            
Cr     17.19314283       9.92514949       9.03123376                            
I       21.61731782       5.95562795       7.48874545                           
I       18.41835593       8.07927354       7.48890841                           
I       14.97988774       9.78766304       7.48890841                           
I       19.64372215       5.95562973      10.58202506                           
I       19.40664017       9.78794313      10.57507890                           
I       15.96816891       8.07899168      10.57507890                           
Cr      19.48408705      13.89743494      15.61475195                           
Cr      16.04559604      15.88077072      15.61475241                           
I       20.47200700      11.91126908      14.06395847                           
I       17.27057912      14.03462883      14.07089707                           
I       13.83211093      15.74359001      14.07089707                           
I       18.49841912      11.91127086      17.15723785                           
I       18.25886009      15.74330145      17.15707434                           
I       14.82038883      14.03491562      17.15707434                           
Cr     17.19314283      13.89741504       9.03123330                            
Cr     13.75465182      15.88079062       9.03123376                            
I       18.17882681      11.91126908       7.48874545                           
I       14.97986492      14.03491467       7.48890841                           
I       11.54139673      15.74330417       7.48890841                           
I       16.20523114      11.91127086      10.58202506                           
I       15.96814916      15.74358426      10.57507890                           
I       12.52967790      14.03463281      10.57507890                           
Cr      16.04559604      19.85307607      15.61475195                           
Cr      12.60710503      21.83641185      15.61475241                           
I       17.03351599      17.86691022      14.06395847                           
I       13.83208811      19.99026996      14.07089707                           
I       10.39361992      21.69923114      14.07089707                           
I       15.05992811      17.86691200      17.15723785                           
I       14.82036907      21.69894258      17.15707434                           
I       11.38189781      19.99055675      17.15707434                           
Cr     13.75465181      19.85305617       9.03123330                            
Cr     10.31616080      21.83643175       9.03123376                            
I       14.74033580      17.86691022       7.48874545                           
I       11.54137391      19.99055580       7.48890841                           
I        8.10290572      21.69894530       7.48890841                           
I       12.76674013      17.86691200      10.58202506                           
I       12.52965815      21.69922539      10.57507890                           
I        9.09118689      19.99027394      10.57507890                           
Cr      12.60710503      25.80871720      15.61475195                           
Cr       9.16861402      27.79205298      15.61475241                           
I       13.59502497      23.82255135      14.06395847                           
I       10.39359710      25.94591110      14.07089707                           
I        6.95512891      27.65487227      14.07089707                           
I       11.62143710      23.82255313      17.15723785                           
I       11.38187806      27.65458371      17.15707434                           
I        7.94340680      25.94619789      17.15707434                           
Cr     10.31616080      25.80869730       9.03123330                            
Cr      6.87766979      27.79207289       9.03123376                            
I       11.30184479      23.82255135       7.48874545                           
I        8.10288290      25.94619693       7.48890841                           
I        4.66441471      27.65458643       7.48890841                           
I        9.32824912      23.82255313      10.58202506                           
I        9.09116714      27.65486652      10.57507890                           
I        5.65269588      25.94591507      10.57507890                           
Cr       9.16861402      31.76435833      15.61475195                           
Cr       5.73012301      33.74769412      15.61475241                           
I       10.15653396      29.77819248      14.06395847                           
I        6.95510609      31.90155223      14.07089707                           
I        3.51663790      33.61051340      14.07089707                           
I        8.18294609      29.77819426      17.15723785                           
I        7.94338705      33.61022484      17.15707434                           
I        4.50491579      31.90183902      17.15707434                           
Cr      6.87766979      31.76433843       9.03123330                            
Cr      3.43917878      33.74771402       9.03123376                            
I        7.86335378      29.77819248       7.48874545                           
I        4.66439189      31.90183807       7.48890841                           
I        1.22592370      33.61022756       7.48890841                           
I        5.88975810      29.77819426      10.58202506                           
I        5.65267613      33.61050765      10.57507890                           
I        2.21420487      31.90155621      10.57507890                           
Cr      33.23805110       1.98615267      15.61475195                           
Cr      29.79956009       3.96948846      15.61475241                           
I       34.22597104      -0.00001318      14.06395847                           
I       31.02454317       2.12334657      14.07089707                           
I       27.58607498       3.83230774      14.07089707                           
I       32.25238317      -0.00001140      17.15723785                           
I       32.01282413       3.83201918      17.15707434                           
I       28.57435287       2.12363336      17.15707434                           
Cr     30.94710687       1.98613277       9.03123330                            
Cr     27.50861586       3.96950836       9.03123376                            
I       31.93279085      -0.00001318       7.48874545                           
I       28.73382897       2.12363241       7.48890841                           
I       25.29536078       3.83202190       7.48890841                           
I       29.95919518      -0.00001140      10.58202506                           
I       29.72211320       3.83230199      10.57507890                           
I       26.28364194       2.12335055      10.57507890                           
Cr      29.79956009       7.94179381      15.61475195                           
Cr      26.36106908       9.92512959      15.61475241                           
I       30.78748003       5.95562795      14.06395847                           
I       27.58605216       8.07898770      14.07089707                           
I       24.14758397       9.78794887      14.07089707                           
I       28.81389216       5.95562973      17.15723785                           
I       28.57433312       9.78766031      17.15707434                           
I       25.13586186       8.07927449      17.15707434                           
Cr     27.50861586       7.94177390       9.03123330                            
Cr     24.07012485       9.92514949       9.03123376                            
I       28.49429984       5.95562795       7.48874545                           
I       25.29533795       8.07927354       7.48890841                           
I       21.85686976       9.78766304       7.48890841                           
I       26.52070417       5.95562973      10.58202506                           
I       26.28362219       9.78794313      10.57507890                           
I       22.84515093       8.07899168      10.57507890                           
Cr      26.36106908      13.89743494      15.61475195                           
Cr      22.92257807      15.88077072      15.61475241                           
I       27.34898902      11.91126908      14.06395847                           
I       24.14756114      14.03462883      14.07089707                           
I       20.70909295      15.74359001      14.07089707                           
I       25.37540115      11.91127086      17.15723785                           
I       25.13584211      15.74330145      17.15707434                           
I       21.69737085      14.03491562      17.15707434                           
Cr     24.07012485      13.89741504       9.03123330                            
Cr     20.63163384      15.88079062       9.03123376                            
I       25.05580883      11.91126908       7.48874545                           
I       21.85684694      14.03491467       7.48890841                           
I       18.41837875      15.74330417       7.48890841                           
I       23.08221316      11.91127086      10.58202506                           
I       22.84513118      15.74358426      10.57507890                           
I       19.40665992      14.03463281      10.57507890                           
Cr      22.92257806      19.85307607      15.61475195                           
Cr      19.48408705      21.83641185      15.61475241                           
I       23.91049801      17.86691022      14.06395847                           
I       20.70907013      19.99026996      14.07089707                           
I       17.27060194      21.69923114      14.07089707                           
I       21.93691014      17.86691200      17.15723785                           
I       21.69735110      21.69894258      17.15707434                           
I       18.25887984      19.99055675      17.15707434                           
Cr     20.63163384      19.85305617       9.03123330                            
Cr     17.19314283      21.83643175       9.03123376                            
I       21.61731782      17.86691022       7.48874545                           
I       18.41835593      19.99055580       7.48890841                           
I       14.97988774      21.69894530       7.48890841                           
I       19.64372215      17.86691200      10.58202506                           
I       19.40664017      21.69922539      10.57507890                           
I       15.96816891      19.99027394      10.57507890                           
Cr      19.48408705      25.80871720      15.61475195                           
Cr      16.04559604      27.79205298      15.61475241                           
I       20.47200700      23.82255135      14.06395847                           
I       17.27057912      25.94591110      14.07089707                           
I       13.83211093      27.65487227      14.07089707                           
I       18.49841912      23.82255313      17.15723785                           
I       18.25886009      27.65458371      17.15707434                           
I       14.82038883      25.94619789      17.15707434                           
Cr     17.19314283      25.80869730       9.03123330                            
Cr     13.75465182      27.79207289       9.03123376                            
I       18.17882681      23.82255135       7.48874545                           
I       14.97986492      25.94619693       7.48890841                           
I       11.54139673      27.65458643       7.48890841                           
I       16.20523114      23.82255313      10.58202506                           
I       15.96814916      27.65486652      10.57507890                           
I       12.52967790      25.94591507      10.57507890                           
Cr      16.04559604      31.76435833      15.61475195                           
Cr      12.60710503      33.74769412      15.61475241                           
I       17.03351599      29.77819248      14.06395847                           
I       13.83208811      31.90155223      14.07089707                           
I       10.39361992      33.61051340      14.07089707                           
I       15.05992811      29.77819426      17.15723785                           
I       14.82036907      33.61022484      17.15707434                           
I       11.38189781      31.90183902      17.15707434                           
Cr     13.75465181      31.76433843       9.03123330                            
Cr     10.31616080      33.74771402       9.03123376                            
I       14.74033580      29.77819248       7.48874545                           
I       11.54137391      31.90183807       7.48890841                           
I        8.10290572      33.61022756       7.48890841                           
I       12.76674013      29.77819426      10.58202506                           
I       12.52965815      33.61050765      10.57507890                           
I        9.09118689      31.90155621      10.57507890                           
Cr      40.11503312       1.98615267      15.61475195                           
Cr      36.67654211       3.96948846      15.61475241                           
I       41.10295306      -0.00001318      14.06395847                           
I       37.90152519       2.12334657      14.07089707                           
I       34.46305700       3.83230774      14.07089707                           
I       39.12936519      -0.00001140      17.15723785                           
I       38.88980615       3.83201918      17.15707434                           
I       35.45133489       2.12363336      17.15707434                           
Cr     37.82408889       1.98613277       9.03123330                            
Cr     34.38559788       3.96950836       9.03123376                            
I       38.80977287      -0.00001318       7.48874545                           
I       35.61081099       2.12363241       7.48890841                           
I       32.17234280       3.83202190       7.48890841                           
I       36.83617720      -0.00001140      10.58202506                           
I       36.59909523       3.83230199      10.57507890                           
I       33.16062397       2.12335055      10.57507890                           
Cr      36.67654211       7.94179381      15.61475195                           
Cr      33.23805110       9.92512959      15.61475241                           
I       37.66446205       5.95562795      14.06395847                           
I       34.46303418       8.07898770      14.07089707                           
I       31.02456599       9.78794887      14.07089707                           
I       35.69087418       5.95562973      17.15723785                           
I       35.45131514       9.78766031      17.15707434                           
I       32.01284388       8.07927449      17.15707434                           
Cr     34.38559788       7.94177390       9.03123330                            
Cr     30.94710687       9.92514949       9.03123376                            
I       35.37128186       5.95562795       7.48874545                           
I       32.17231998       8.07927354       7.48890841                           
I       28.73385179       9.78766304       7.48890841                           
I       33.39768619       5.95562973      10.58202506                           
I       33.16060422       9.78794313      10.57507890                           
I       29.72213296       8.07899168      10.57507890                           
Cr      33.23805110      13.89743494      15.61475195                           
Cr      29.79956009      15.88077072      15.61475241                           
I       34.22597104      11.91126908      14.06395847                           
I       31.02454317      14.03462883      14.07089707                           
I       27.58607498      15.74359001      14.07089707                           
I       32.25238317      11.91127086      17.15723785                           
I       32.01282413      15.74330145      17.15707434                           
I       28.57435287      14.03491562      17.15707434                           
Cr     30.94710687      13.89741504       9.03123330                            
Cr     27.50861586      15.88079062       9.03123376                            
I       31.93279085      11.91126908       7.48874545                           
I       28.73382897      14.03491467       7.48890841                           
I       25.29536078      15.74330417       7.48890841                           
I       29.95919518      11.91127086      10.58202506                           
I       29.72211320      15.74358426      10.57507890                           
I       26.28364194      14.03463281      10.57507890                           
Cr      29.79956009      19.85307607      15.61475195                           
Cr      26.36106908      21.83641185      15.61475241                           
I       30.78748003      17.86691022      14.06395847                           
I       27.58605216      19.99026996      14.07089707                           
I       24.14758397      21.69923114      14.07089707                           
I       28.81389216      17.86691200      17.15723785                           
I       28.57433312      21.69894258      17.15707434                           
I       25.13586186      19.99055675      17.15707434                           
Cr     27.50861586      19.85305617       9.03123330                            
Cr     24.07012485      21.83643175       9.03123376                            
I       28.49429984      17.86691022       7.48874545                           
I       25.29533795      19.99055580       7.48890841                           
I       21.85686976      21.69894530       7.48890841                           
I       26.52070417      17.86691200      10.58202506                           
I       26.28362219      21.69922539      10.57507890                           
I       22.84515093      19.99027394      10.57507890                           
Cr      26.36106908      25.80871720      15.61475195                           
Cr      22.92257807      27.79205298      15.61475241                           
I       27.34898902      23.82255135      14.06395847                           
I       24.14756114      25.94591110      14.07089707                           
I       20.70909295      27.65487227      14.07089707                           
I       25.37540115      23.82255313      17.15723785                           
I       25.13584211      27.65458371      17.15707434                           
I       21.69737085      25.94619789      17.15707434                           
Cr     24.07012485      25.80869730       9.03123330                            
Cr     20.63163384      27.79207289       9.03123376                            
I       25.05580883      23.82255135       7.48874545                           
I       21.85684694      25.94619693       7.48890841                           
I       18.41837875      27.65458643       7.48890841                           
I       23.08221316      23.82255313      10.58202506                           
I       22.84513118      27.65486652      10.57507890                           
I       19.40665992      25.94591507      10.57507890                           
Cr      22.92257806      31.76435833      15.61475195                           
Cr      19.48408705      33.74769412      15.61475241                           
I       23.91049801      29.77819248      14.06395847                           
I       20.70907013      31.90155223      14.07089707                           
I       17.27060194      33.61051340      14.07089707                           
I       21.93691014      29.77819426      17.15723785                           
I       21.69735110      33.61022484      17.15707434                           
I       18.25887984      31.90183902      17.15707434                           
Cr     20.63163384      31.76433843       9.03123330                            
Cr     17.19314283      33.74771402       9.03123376                            
I       21.61731782      29.77819248       7.48874545                           
I       18.41835593      31.90183807       7.48890841                           
I       14.97988774      33.61022756       7.48890841                           
I       19.64372215      29.77819426      10.58202506                           
I       19.40664017      33.61050765      10.57507890                           
I       15.96816891      31.90155621      10.57507890                           
%ENDBLOCK POSITIONS_ABS                                                         
%BLOCK SPECIES                                                                  
Cr Cr 24 -1 15                                                                  
I   I  53 -1 15                                                                 
%ENDBLOCK SPECIES                                                               
%BLOCK SPECIES_ATOMIC_SET                                                       
Cr "SOLVE INIT SPIN=3"                                                          
I   "SOLVE"                                                                     
%ENDBLOCK SPECIES_ATOMIC_SET                                                    
%BLOCK HUBBARD                                                                  
Cr  2 2.97 0.37 -10.0 0.00 0.0                                                  
%ENDBLOCK HUBBARD                                                               
%BLOCK SPECIES_LDOS_GROUPS                                                      
Cr                                                                              
I                                                                               
%ENDBLOCK SPECIES_LDOS_GROUPS                                                   
%BLOCK SPECIES_POT                                                              
Cr  "../../../../Cr.PBE-paw.abinit"                                             
I   "../../../../I.PBE-paw.abinit"                                              
%ENDBLOCK SPECIES_POT                                                           

--------------------------------------------------------------------------------
-------------------------------- END INPUT FILE --------------------------------
--------------------------------------------------------------------------------


 
 ESDF WARNING(1): "charge" (esdf_physical) has no units. Assume "e".
<<<<<<<<<<<<<<<<<<<<<<<<<<<<<<<<< Full system >>>>>>>>>>>>>>>>>>>>>>>>>>>>>>>>>>
<<<<<<<<<<<<<<<<<<<<<<<<<<< PAW Dataset information >>>>>>>>>>>>>>>>>>>>>>>>>>>
File: ../../../../Cr.PBE-paw.abinit; rc = 2.11 bohr; shape type =  2; rshape = 1.80 bohr;
  Atomic number: 24;  ionic charge: 14.000000
    Partial Wave 1: l = 0
    Partial Wave 2: l = 0
    Partial Wave 3: l = 1
    Partial Wave 4: l = 1
    Partial Wave 5: l = 2
    Partial Wave 6: l = 2
  Core charge supplied for Nonlinear Core Corrections
File: ../../../../I.PBE-paw.abinit; rc = 2.30 bohr; shape type =  2; rshape = 2.11 bohr;
  Atomic number: 53;  ionic charge:  7.000000
    Partial Wave 1: l = 0
    Partial Wave 2: l = 0
    Partial Wave 3: l = 1
    Partial Wave 4: l = 1
  Core charge supplied for Nonlinear Core Corrections
<<<<<<<<<<<<<<<<<<<<<<<<<<<<<<<<<<<<<<< >>>>>>>>>>>>>>>>>>>>>>>>>>>>>>>>>>>>>>>

-------------------------- Atom counting information ---------------------------
Symbol    Natoms    Nngwfs    Nprojs
  Cr       144      1872      2592
  I        432      1728      3456
.......   ......    ......    ......
Totals:    576      3600      6048
--------------------------------------------------------------------------------

=============================== PSINC grid sizes ===============================
                      Simulation cell:  175 x 175 x 117
                              FFT-box:  175 x 175 x 117
                                  PPD:    5 x   5 x   1
Grid space d1=  0.445563862424a0 (KE cutoff=  38.26345Eh =1041.20135eV)
Grid space d2=  0.445563862400a0 (KE cutoff=  38.26345Eh =1041.20135eV)
Grid space d3=  0.444294449711a0 (KE cutoff=  38.48241Eh =1047.15957eV)
================================================================================

********************* Fourier parallelisation information **********************
       Coarse grid (whole simulation cell) dimensions:    175   175   117
          Real-space ('12') slabs/proc (min max mean):      0     1     0
         Recip-space ('23') slabs/proc (min max mean):      0     1     0
********************************************************************************

********************* Fourier parallelisation information **********************
       Double grid (whole simulation cell) dimensions:    350   350   234
          Real-space ('12') slabs/proc (min max mean):      1     2     1
         Recip-space ('23') slabs/proc (min max mean):      1     2     1
********************************************************************************

********************* Fourier parallelisation information **********************
         Fine grid (whole simulation cell) dimensions:    700   700   468
          Real-space ('12') slabs/proc (min max mean):      3     4     3
         Recip-space ('23') slabs/proc (min max mean):      2     3     2
********************************************************************************

Atom SCF Calculation for Cr : Z (AE atom) =  24 : Z (PS atom) =  14
Config String: 3s2.0 3p6.0 3d5.0 4s1.0 4p0.0 INIT SPIN=3
Orbitals (num,occ):  5     2.00 6.00 5.00 1.00 0.00
Orbitals   (num,l):  5        0    1    2    0    1
Atom SCF converged after  64 iterations to a total energy of    -87.07044631
Adjusting orbital occupancies:
Orbitals (num,spin,occ):  5  1     1.00 3.00 3.50 1.00 0.00
Orbitals   (num,spin,l):  5  1        0    1    2    0    1
Orbitals (num,spin,occ):  5  2     1.00 3.00 1.00 0.50 0.00
Orbitals   (num,spin,l):  5  2        0    1    2    0    1

Atom SCF Calculation for I  : Z (AE atom) =  53 : Z (PS atom) =   7
Config String: 5s2.0 5p5.0
Orbitals (num,occ):  2     2.00 5.00
Orbitals   (num,l):  2        0    1
Atom SCF converged after  28 iterations to a total energy of    -11.61352964

Atom SCF Calculation for Cr : Z (AE atom) =  24 : Z (PS atom) =  14
Config String: 3s2.0 3p6.0 3d5.0 4s1.0 4p0.0 INIT SPIN=3
Orbitals (num,occ):  5     2.00 6.00 5.00 1.00 0.00
Orbitals   (num,l):  5        0    1    2    0    1
Atom SCF converged after  64 iterations to a total energy of    -87.07044631

Atom SCF Calculation for I  : Z (AE atom) =  53 : Z (PS atom) =   7
Config String: 5s2.0 5p5.0
Orbitals (num,occ):  2     2.00 5.00
Orbitals   (num,l):  2        0    1
Atom SCF converged after  28 iterations to a total energy of    -11.61352964

Determining parallel strategy ...... done
Calculating Ewald energy ...            31475.177180 Hartree
Basis initialisation ...
... done

============================= Charge Augmentation ==============================
                           Aug box size:   49 x  49 x  45
================================================================================
Sparse matrix initialisation ...
 done
NGWF initialisation ... done
 done

================================= Core Density =================================
               Core den box size:  125 x 125 x 105
================================================================================
Density kernel initialisation

--------------------------- Ensemble-DFT optimisation --------------------------
Running ScaLAPACK on  150 processor(s).
With smearing scheme: FERMIDIRAC                                                                      

--------------------------------------------------------------------------------
  Iter                              Commutator    Free_energy(A=E-TS)     DeltaA
#    0                          0.005733518493  -17489.36284842450190  -1.75E+04
#    1                          0.002525107972  -17569.82250259077770  -8.05E+01
#    2                          0.000217563204  -17612.39962661909520  -4.26E+01
#    3                          0.000177239200  -17612.79482323529010  -3.95E-01
#    4                          0.000148255344  -17613.04549818857050  -2.51E-01
#    5                          0.000107389292  -17613.21972494543300  -1.74E-01
#    6                          0.000095656201  -17613.33149607673840  -1.12E-01
#    7                          0.000069009415  -17613.40790390865730  -7.64E-02
#    8                          0.000062232281  -17613.45671718909580  -4.88E-02
#    9                          0.000046930165  -17613.49138169586150  -3.47E-02
#   10                          0.000041086677  -17613.51374584752920  -2.24E-02
#   11                          0.000033547612  -17613.53054424274890  -1.68E-02
#   12                          0.000028325361  -17613.54155132648880  -1.10E-02
#   13                          0.000024967504  -17613.55020246422280  -8.65E-03
#   14                          0.000019358720  -17613.55585937599240  -5.66E-03
#   15                          0.000019785865  -17613.56059310837740  -4.73E-03
Finished EDFT density kernel iterations (  15)


Writing density kernel to file "Cr2I6_bilayer_HT_AFM_FM_SP.dkn" ... done

Writing Hamiltonian to file "Cr2I6_bilayer_HT_AFM_FM_SP.ham" ... done

Writing density kernel to file "Cr2I6_bilayer_HT_AFM_FM_SP.dkn" ... done

>>> Optimising kernel for current NGWFs:
   iter  |      energy (Eh)       | rms gradient |  commutator  |   dE (Eh)
    1        -1.761355956439E+04     3.4503E-05     1.8960E-05
    2        -1.761356190405E+04     3.8464E-05     1.9573E-05    -2.3397E-03
    3        -1.761356435962E+04     5.3235E-05     2.7594E-05    -2.4556E-03
    4        -1.761356771217E+04     6.4980E-05     3.3714E-05    -3.3526E-03
    5        -1.761356953389E+04     4.4476E-05     2.3318E-05    -1.8217E-03
Finished density kernel iterations (   5)

Writing density kernel to file "Cr2I6_bilayer_HT_AFM_FM_SP.dkn" ... done


>>> Density kernel optimised for the current NGWF basis:
     ~~~~~~~~~~~~~~~~~~~~~~~~~~~~~~~~~~~~~~~~~~~~~~~~~~~~~~~~~~~
     Total energy                =  -1.76135695338855E+04  Eh
     Estimated bandgap (UP spin) =   3.3213E-02  Eh
     Estimated bandgap (DN spin) =   1.0975E-01  Eh
     RMS occupancy error         =   2.7248E-09
     [H,K] commutator            =   2.3318E-05
     UP spin occupancy bounds    = [ -0.000:  1.000]
     DN spin occupancy bounds    = [ -0.000:  1.000]
     ~~~~~~~~~~~~~~~~~~~~~~~~~~~~~~~~~~~~~~~~~~~~~~~~~~~~~~~~~~~




################################################################################
########################### NGWF CG iteration  001 #############################
################################################################################

>>> Checking for convergence of NGWFs:   NOT CONVERGED
  ========================================================================
         NGWF RMS gradient =  1.0292E-04 >  1.0000E-06  | above tolerance
  ========================================================================

>>> Improving NGWFs using line search:
  ========================================================================
   Predicted total energy    =      -1.76215786115551E+04 Eh
   Predicted gain in energy  =      -8.00907766965247E+00 Eh
  ========================================================================

Writing NGWFs to file "Cr2I6_bilayer_HT_AFM_FM_SP.tightbox_ngwfs".... done

>>> Optimising kernel for current NGWFs:
   iter  |      energy (Eh)       | rms gradient |  commutator  |   dE (Eh)
    1        -1.762156456415E+04     5.6275E-04     2.8427E-04
    2        -1.762197490258E+04     2.3107E-04     1.1708E-04    -4.1034E-01
    3        -1.762202074777E+04     9.8575E-05     5.0157E-05    -4.5845E-02
    4        -1.762203356327E+04     6.6314E-05     3.3687E-05    -1.2816E-02
    5        -1.762204091200E+04     3.0770E-05     1.5691E-05    -7.3487E-03
Finished density kernel iterations (   5)

Writing density kernel to file "Cr2I6_bilayer_HT_AFM_FM_SP.dkn" ... done


>>> Density kernel optimised for the current NGWF basis:
     ~~~~~~~~~~~~~~~~~~~~~~~~~~~~~~~~~~~~~~~~~~~~~~~~~~~~~~~~~~~
     Total energy                =  -1.76220409120028E+04  Eh
     Estimated bandgap (UP spin) =   4.0027E-02  Eh
     Estimated bandgap (DN spin) =   1.2079E-01  Eh
     RMS occupancy error         =   8.5044E-10
     [H,K] commutator            =   1.5691E-05
     UP spin occupancy bounds    = [ -0.000:  1.000]
     DN spin occupancy bounds    = [ -0.000:  1.000]
     ~~~~~~~~~~~~~~~~~~~~~~~~~~~~~~~~~~~~~~~~~~~~~~~~~~~~~~~~~~~




################################################################################
########################### NGWF CG iteration  002 #############################
################################################################################

>>> Checking for convergence of NGWFs:   NOT CONVERGED
  ========================================================================
         NGWF RMS gradient =  6.9594E-05 >  1.0000E-06  | above tolerance
  Maximum change in energy =  1.4707E-02 >  1.0000E-07  | above tolerance
  ========================================================================

>>> Improving NGWFs using line search:
  ========================================================================
   Predicted total energy    =      -1.76247305328971E+04 Eh
   Predicted gain in energy  =      -2.68962089434717E+00 Eh
  ========================================================================

Writing NGWFs to file "Cr2I6_bilayer_HT_AFM_FM_SP.tightbox_ngwfs".... done

>>> Optimising kernel for current NGWFs:
   iter  |      energy (Eh)       | rms gradient |  commutator  |   dE (Eh)
    1        -1.762472338306E+04     2.0827E-04     1.0597E-04
    2        -1.762479003466E+04     4.9464E-05     2.4920E-05    -6.6652E-02
    3        -1.762479438520E+04     5.5467E-05     2.9427E-05    -4.3505E-03
    4        -1.762479860109E+04     2.6294E-05     1.3322E-05    -4.2159E-03
    5        -1.762479993984E+04     2.4908E-05     1.2659E-05    -1.3388E-03
Finished density kernel iterations (   5)

Writing density kernel to file "Cr2I6_bilayer_HT_AFM_FM_SP.dkn" ... done


>>> Density kernel optimised for the current NGWF basis:
     ~~~~~~~~~~~~~~~~~~~~~~~~~~~~~~~~~~~~~~~~~~~~~~~~~~~~~~~~~~~
     Total energy                =  -1.76247999398432E+04  Eh
     Estimated bandgap (UP spin) =   3.9439E-02  Eh
     Estimated bandgap (DN spin) =   1.2088E-01  Eh
     RMS occupancy error         =   8.5259E-11
     [H,K] commutator            =   1.2659E-05
     UP spin occupancy bounds    = [ -0.000:  1.000]
     DN spin occupancy bounds    = [ -0.000:  1.000]
     ~~~~~~~~~~~~~~~~~~~~~~~~~~~~~~~~~~~~~~~~~~~~~~~~~~~~~~~~~~~




################################################################################
########################### NGWF CG iteration  003 #############################
################################################################################

>>> Checking for convergence of NGWFs:   NOT CONVERGED
  ========================================================================
         NGWF RMS gradient =  4.2920E-05 >  1.0000E-06  | above tolerance
  Maximum change in energy =  1.4707E-02 >  1.0000E-07  | above tolerance
  ========================================================================

>>> Improving NGWFs using line search:
  ========================================================================
   Predicted total energy    =      -1.76259093809201E+04 Eh
   Predicted gain in energy  =      -1.10944107682371E+00 Eh
  ========================================================================

Writing NGWFs to file "Cr2I6_bilayer_HT_AFM_FM_SP.tightbox_ngwfs".... done

>>> Optimising kernel for current NGWFs:
   iter  |      energy (Eh)       | rms gradient |  commutator  |   dE (Eh)
    1        -1.762589918186E+04     2.1223E-04     1.0779E-04
    2        -1.762594904564E+04     1.0134E-04     5.2232E-05    -4.9864E-02
    3        -1.762595777326E+04     3.5151E-05     1.7822E-05    -8.7276E-03
    4        -1.762595961637E+04     2.6969E-05     1.3508E-05    -1.8431E-03
    5        -1.762596122664E+04     1.5395E-05     7.6406E-06    -1.6103E-03
Finished density kernel iterations (   5)

Writing density kernel to file "Cr2I6_bilayer_HT_AFM_FM_SP.dkn" ... done


>>> Density kernel optimised for the current NGWF basis:
     ~~~~~~~~~~~~~~~~~~~~~~~~~~~~~~~~~~~~~~~~~~~~~~~~~~~~~~~~~~~
     Total energy                =  -1.76259612266430E+04  Eh
     Estimated bandgap (UP spin) =   3.9708E-02  Eh
     Estimated bandgap (DN spin) =   1.2184E-01  Eh
     RMS occupancy error         =   1.5293E-10
     [H,K] commutator            =   7.6406E-06
     UP spin occupancy bounds    = [  0.000:  1.000]
     DN spin occupancy bounds    = [  0.000:  1.000]
     ~~~~~~~~~~~~~~~~~~~~~~~~~~~~~~~~~~~~~~~~~~~~~~~~~~~~~~~~~~~




################################################################################
########################### NGWF CG iteration  004 #############################
################################################################################

>>> Checking for convergence of NGWFs:   NOT CONVERGED
  ========================================================================
         NGWF RMS gradient =  2.9620E-05 >  1.0000E-06  | above tolerance
  Maximum change in energy =  4.7900E-03 >  1.0000E-07  | above tolerance
  ========================================================================

>>> Improving NGWFs using line search:
  ========================================================================
   Predicted total energy    =      -1.76265499964334E+04 Eh
   Predicted gain in energy  =      -5.88769790403603E-01 Eh
  ========================================================================

Writing NGWFs to file "Cr2I6_bilayer_HT_AFM_FM_SP.tightbox_ngwfs".... done

>>> Optimising kernel for current NGWFs:
   iter  |      energy (Eh)       | rms gradient |  commutator  |   dE (Eh)
    1        -1.762653888298E+04     9.2345E-05     4.7099E-05
    2        -1.762654958256E+04     4.5664E-05     2.4051E-05    -1.0700E-02
    3        -1.762655159530E+04     2.4314E-05     1.2549E-05    -2.0127E-03
    4        -1.762655265059E+04     2.2505E-05     1.1660E-05    -1.0553E-03
    5        -1.762655342213E+04     1.0581E-05     5.3590E-06    -7.7155E-04
Finished density kernel iterations (   5)

Writing density kernel to file "Cr2I6_bilayer_HT_AFM_FM_SP.dkn" ... done


>>> Density kernel optimised for the current NGWF basis:
     ~~~~~~~~~~~~~~~~~~~~~~~~~~~~~~~~~~~~~~~~~~~~~~~~~~~~~~~~~~~
     Total energy                =  -1.76265534221324E+04  Eh
     Estimated bandgap (UP spin) =   3.9101E-02  Eh
     Estimated bandgap (DN spin) =   1.2138E-01  Eh
     RMS occupancy error         =   7.0746E-11
     [H,K] commutator            =   5.3590E-06
     UP spin occupancy bounds    = [  0.000:  1.000]
     DN spin occupancy bounds    = [  0.000:  1.000]
     ~~~~~~~~~~~~~~~~~~~~~~~~~~~~~~~~~~~~~~~~~~~~~~~~~~~~~~~~~~~




################################################################################
########################### NGWF CG iteration  005 #############################
################################################################################

>>> Checking for convergence of NGWFs:   NOT CONVERGED
  ========================================================================
         NGWF RMS gradient =  2.0896E-05 >  1.0000E-06  | above tolerance
  Maximum change in energy =  2.0161E-03 >  1.0000E-07  | above tolerance
  ========================================================================

>>> Improving NGWFs using line search:
  ========================================================================
   Predicted total energy    =      -1.76267141799450E+04 Eh
   Predicted gain in energy  =      -1.60757812591328E-01 Eh
  ========================================================================

Writing NGWFs to file "Cr2I6_bilayer_HT_AFM_FM_SP.tightbox_ngwfs".... done

>>> Optimising kernel for current NGWFs:
   iter  |      energy (Eh)       | rms gradient |  commutator  |   dE (Eh)
    1        -1.762671348565E+04     1.0090E-05     5.0843E-06
    2        -1.762671367567E+04     1.3381E-05     6.6088E-06    -1.9003E-04
    3        -1.762671395020E+04     1.5582E-05     7.9693E-06    -2.7453E-04
    4        -1.762671419472E+04     1.3590E-05     6.8879E-06    -2.4452E-04
    5        -1.762671439258E+04     1.7014E-05     8.5539E-06    -1.9785E-04
Finished density kernel iterations (   5)

Writing density kernel to file "Cr2I6_bilayer_HT_AFM_FM_SP.dkn" ... done


>>> Density kernel optimised for the current NGWF basis:
     ~~~~~~~~~~~~~~~~~~~~~~~~~~~~~~~~~~~~~~~~~~~~~~~~~~~~~~~~~~~
     Total energy                =  -1.76267143925757E+04  Eh
     Estimated bandgap (UP spin) =   3.8854E-02  Eh
     Estimated bandgap (DN spin) =   1.2156E-01  Eh
     RMS occupancy error         =   2.6481E-10
     [H,K] commutator            =   8.5539E-06
     UP spin occupancy bounds    = [  0.000:  1.000]
     DN spin occupancy bounds    = [  0.000:  1.000]
     ~~~~~~~~~~~~~~~~~~~~~~~~~~~~~~~~~~~~~~~~~~~~~~~~~~~~~~~~~~~




################################################################################
########################### NGWF CG iteration  006 #############################
################################################################################

>>> Checking for convergence of NGWFs:   NOT CONVERGED
  ========================================================================
         NGWF RMS gradient =  1.3946E-05 >  1.0000E-06  | above tolerance
  Maximum change in energy =  1.0281E-03 >  1.0000E-07  | above tolerance
  ========================================================================

>>> Improving NGWFs using line search:
  ========================================================================
   Predicted total energy    =      -1.76268416081541E+04 Eh
   Predicted gain in energy  =      -1.27215578409960E-01 Eh
  ========================================================================

Writing NGWFs to file "Cr2I6_bilayer_HT_AFM_FM_SP.tightbox_ngwfs".... done

>>> Optimising kernel for current NGWFs:
   iter  |      energy (Eh)       | rms gradient |  commutator  |   dE (Eh)
    1        -1.762683699457E+04     1.9749E-05     9.9668E-06
    2        -1.762683772469E+04     1.7883E-05     8.9950E-06    -7.3012E-04
[...]
*    I     436     -0.00365932  -0.00607082  -0.00907249 *
*    I     437     -0.00366249   0.00611119  -0.00907511 *
*    I     438     -0.00695245  -0.00000745   0.01185929 *
*    I     439      0.00345543   0.00603940   0.01185920 *
*    I     440      0.00346689  -0.00606663   0.01186308 *
*    Cr    441      0.00005988  -0.00023806   0.00008925 *
*    Cr    442      0.00003062   0.00021397   0.00009353 *
*    I     443      0.00694360   0.00001555  -0.01186237 *
*    I     444     -0.00345941  -0.00603673  -0.01185878 *
*    I     445     -0.00347054   0.00606063  -0.01185380 *
*    I     446     -0.00674648  -0.00000947   0.00974160 *
*    I     447      0.00365361   0.00606915   0.00907088 *
*    I     448      0.00365280  -0.00611116   0.00907030 *
*    Cr    449      0.00016584  -0.00010560  -0.00007674 *
*    Cr    450     -0.00007323   0.00021293  -0.00009043 *
*    I     451      0.00673439   0.00001495  -0.00973584 *
*    I     452     -0.00365818  -0.00606790  -0.00907445 *
*    I     453     -0.00366885   0.00610418  -0.00906894 *
*    I     454     -0.00695256  -0.00000905   0.01185991 *
*    I     455      0.00345529   0.00603712   0.01185903 *
*    I     456      0.00345758  -0.00606662   0.01185648 *
*    Cr    457      0.00005614  -0.00022501   0.00008939 *
*    Cr    458      0.00003514   0.00021404   0.00008621 *
*    I     459      0.00694347   0.00001301  -0.01186049 *
*    I     460     -0.00346079  -0.00603394  -0.01185941 *
*    I     461     -0.00346408   0.00607270  -0.01186312 *
*    I     462     -0.00674370  -0.00001503   0.00973869 *
*    I     463      0.00365179   0.00606789   0.00907267 *
*    I     464      0.00366536  -0.00610339   0.00907467 *
*    Cr    465      0.00015757  -0.00011118  -0.00007744 *
*    Cr    466      0.00012336   0.00010204  -0.00008627 *
*    I     467      0.00673734   0.00001785  -0.00973667 *
*    I     468     -0.00365004  -0.00607777  -0.00908152 *
*    I     469     -0.00367596   0.00610536  -0.00907625 *
*    I     470     -0.00695656  -0.00001310   0.01186108 *
*    I     471      0.00346756   0.00603556   0.01186686 *
*    I     472      0.00345124  -0.00607869   0.01186380 *
*    Cr    473      0.00005960  -0.00022143   0.00009088 *
*    Cr    474      0.00002746   0.00022429   0.00009055 *
*    I     475      0.00694415   0.00001410  -0.01186082 *
*    I     476     -0.00346237  -0.00603345  -0.01186023 *
*    I     477     -0.00346255   0.00607378  -0.01186336 *
*    I     478     -0.00674238  -0.00001223   0.00973801 *
*    I     479      0.00365171   0.00606806   0.00907287 *
*    I     480      0.00366571  -0.00610161   0.00907331 *
*    Cr    481     -0.00005264  -0.00022473  -0.00009253 *
*    Cr    482      0.00017158   0.00007583  -0.00008393 *
*    I     483      0.00674222   0.00000933  -0.00974419 *
*    I     484     -0.00366222  -0.00607262  -0.00908546 *
*    I     485     -0.00366696   0.00611420  -0.00908227 *
*    I     486     -0.00695858  -0.00001481   0.01186249 *
*    I     487      0.00345681   0.00604165   0.01187001 *
*    I     488      0.00346710  -0.00607022   0.01186730 *
*    Cr    489      0.00005798  -0.00021497   0.00009231 *
*    Cr    490      0.00003691   0.00023037   0.00009239 *
*    I     491      0.00694392   0.00000092  -0.01186581 *
*    I     492     -0.00347155  -0.00603372  -0.01186533 *
*    I     493     -0.00347209   0.00606157  -0.01185689 *
*    I     494     -0.00674558  -0.00002046   0.00974379 *
*    I     495      0.00364678   0.00607574   0.00907867 *
*    I     496      0.00365499  -0.00610584   0.00906936 *
*    Cr    497     -0.00004778  -0.00022230  -0.00008983 *
*    Cr    498     -0.00006380   0.00022399  -0.00008962 *
*    I     499      0.00673981   0.00002267  -0.00974082 *
*    I     500     -0.00365401  -0.00607530  -0.00907665 *
*    I     501     -0.00366785   0.00611271  -0.00908151 *
*    I     502     -0.00695653   0.00000009   0.01186293 *
*    I     503      0.00346111   0.00603213   0.01186313 *
*    I     504      0.00346356  -0.00606924   0.01186492 *
*    Cr    505      0.00005292  -0.00020123   0.00008603 *
*    Cr    506      0.00003396   0.00023467   0.00009282 *
*    I     507      0.00694204   0.00000843  -0.01186007 *
*    I     508     -0.00346210  -0.00603497  -0.01185992 *
*    I     509     -0.00347286   0.00606339  -0.01185557 *
*    I     510     -0.00674437  -0.00001276   0.00973877 *
*    I     511      0.00365143   0.00606636   0.00907207 *
*    I     512      0.00365682  -0.00610656   0.00906886 *
*    Cr    513     -0.00003466  -0.00023801  -0.00008799 *
*    Cr    514     -0.00006684   0.00023026  -0.00009001 *
*    I     515      0.00673610   0.00002104  -0.00973902 *
*    I     516     -0.00365377  -0.00607735  -0.00907650 *
*    I     517     -0.00367012   0.00610992  -0.00908030 *
*    I     518     -0.00695685  -0.00000310   0.01186338 *
*    I     519      0.00346318   0.00603526   0.01186270 *
*    I     520      0.00346282  -0.00607268   0.01186823 *
*    Cr    521      0.00004721  -0.00020726   0.00009182 *
*    Cr    522      0.00005742   0.00022326   0.00008701 *
*    I     523      0.00694467   0.00000182  -0.01186377 *
*    I     524     -0.00346689  -0.00603909  -0.01186930 *
*    I     525     -0.00348050   0.00606335  -0.01185879 *
*    I     526     -0.00675054  -0.00002300   0.00974406 *
*    I     527      0.00365198   0.00607453   0.00908147 *
*    I     528      0.00365102  -0.00611714   0.00907341 *
*    Cr    529     -0.00004760  -0.00025089  -0.00009024 *
*    Cr    530     -0.00007328   0.00021680  -0.00009316 *
*    I     531      0.00673537   0.00001959  -0.00974070 *
*    I     532     -0.00365928  -0.00607180  -0.00907243 *
*    I     533     -0.00366871   0.00610428  -0.00907144 *
*    I     534     -0.00695562  -0.00000343   0.01186455 *
*    I     535      0.00345542   0.00603601   0.01186079 *
*    I     536      0.00345701  -0.00606746   0.01185777 *
*    Cr    537      0.00006060  -0.00023059   0.00009063 *
*    Cr    538      0.00004870   0.00021619   0.00008728 *
*    I     539      0.00694805   0.00001895  -0.01186411 *
*    I     540     -0.00346040  -0.00603493  -0.01185906 *
*    I     541     -0.00346848   0.00606710  -0.01185712 *
*    I     542     -0.00674903  -0.00000889   0.00974307 *
*    I     543      0.00365176   0.00606745   0.00907051 *
*    I     544      0.00365514  -0.00610789   0.00906825 *
*    Cr    545     -0.00004752  -0.00023997  -0.00009020 *
*    Cr    546     -0.00007457   0.00021203  -0.00009279 *
*    I     547      0.00673411   0.00001846  -0.00973797 *
*    I     548     -0.00366068  -0.00606825  -0.00907319 *
*    I     549     -0.00366759   0.00610494  -0.00907043 *
*    I     550     -0.00695582  -0.00001328   0.01186150 *
*    I     551      0.00345498   0.00603593   0.01186035 *
*    I     552      0.00345451  -0.00607066   0.01186022 *
*    Cr    553      0.00006824  -0.00022674   0.00009009 *
*    Cr    554      0.00003709   0.00021715   0.00009345 *
*    I     555      0.00694396   0.00001484  -0.01186051 *
*    I     556     -0.00345961  -0.00603508  -0.01186066 *
*    I     557     -0.00346865   0.00606660  -0.01185787 *
*    I     558     -0.00674157  -0.00001009   0.00973585 *
*    I     559      0.00365172   0.00606755   0.00907255 *
*    I     560      0.00365494  -0.00610450   0.00906797 *
*    Cr    561     -0.00005484  -0.00022441  -0.00009551 *
*    Cr    562     -0.00007421   0.00021279  -0.00009172 *
*    I     563      0.00673944   0.00001176  -0.00974434 *
*    I     564     -0.00366820  -0.00606620  -0.00907950 *
*    I     565     -0.00366584   0.00611057  -0.00907358 *
*    I     566     -0.00695689  -0.00001777   0.01186553 *
*    I     567      0.00344916   0.00604294   0.01186562 *
*    I     568      0.00345861  -0.00606663   0.01185646 *
*    Cr    569      0.00006338  -0.00021929   0.00009365 *
*    Cr    570      0.00003679   0.00022573   0.00009264 *
*    I     571      0.00694552   0.00000274  -0.01186591 *
*    I     572     -0.00346973  -0.00603302  -0.01186625 *
*    I     573     -0.00347035   0.00606287  -0.01185637 *
*    I     574     -0.00674602  -0.00001848   0.00974431 *
*    I     575      0.00364711   0.00607670   0.00907728 *
*    I     576      0.00365756  -0.00610379   0.00906923 *
*                                                        *
**********************************************************
* TOTAL:           -0.00000000   0.00000000  -0.00000000 *
**********************************************************
 
 
***********************************************************
********** Summary of Forces (values in Eh/a) *************
*                                                         *
* ---------------------- Minimum ------------------------ *
* Atom:       354, |F|min =    0.00017929                 *
* Components:     Fx|min       Fy|min       Fz|min        *
*               0.00009314   0.00012385  -0.00009019      *
*                                                         *
* ---------------------- Maximum ------------------------ *
* Atom:       136, |F|max =    0.01377642                 *
* Components:     Fx|max       Fy|max       Fz|max        *
*               0.00346110  -0.00607916   0.01186821      *
*                                                         *
* ---------------- Root Mean Square Force --------------- *
*                  |F|rms =    0.01103247                 *
* Components:     Fx|rms       Fy|rms       Fz|rms        *
*               0.00425022   0.00429398   0.00923108      *
***********************************************************
 

------------------------------ TIMING INFORMATION ------------------------------
AVERAGE TIME:   57001.941s on    150 proc(s)                                    
TOTAL TIME:     57001.944s on    150 proc(s)                                    
==================== AVERAGE TIMINGS FROM ALL PROCS (CUMULATIVE) =====================
|| TAG                                         #calls     cpu time   %total  Gflops ||
|| hubbard_species_proj                       :     1        0.00s   0.000%  ------ ||
|| sw_bessel_init_cpu                         :     1        0.01s   0.000%  ------ || (1 procs only)
|| hash_table_free                            :    71        0.00s   0.000%  ------ ||
|| hubbard_projector_character                :     1        0.00s   0.000%  ------ ||
|| hubbard_ngwf_select                        :     1        0.00s   0.000%  ------ ||
|| ewald_calculate_forces_realspace           :     1        0.00s   0.000%  ------ ||
|| density_fftbox_interp_mult_imbal           : 33700        0.00s   0.000%  ------ ||
|| onetep.F90 final imbalance                 :     1        0.00s   0.000%  ------ ||
|| hubbard_ngwf_on_grid                       :     1        0.00s   0.000%  ------ ||
|| linalg_dgemv                               :    25        0.02s   0.000%  ------ ||
|| linalg_invert_sym_matrix                   :     4        0.02s   0.000%  ------ || (144 procs only)
|| hubbard_tensorial_correction               :     2        0.02s   0.000%  ------ ||
|| ewald_calculate_energy                     :     1        0.04s   0.000%  ------ ||
|| sparse_set_to_garbage                      :  1554        0.06s   0.000%  ------ ||
|| ewald_calculate_forces_recipspace          :     1        0.06s   0.000%  ------ ||
|| sparse_spam3toblacs_real_fast_imbal        :   198        0.08s   0.000%  ------ ||
|| sw_init                                    :  1347        0.08s   0.000%  ------ ||
|| sparse_blacstospam3_real_fast_imbal        :   212        0.10s   0.000%  ------ ||
|| ewald_calculate_forces                     :     1        0.12s   0.000%  ------ ||
|| onetep.F90 main loop imbalance             :     1        0.13s   0.000%  ------ ||
|| pseudo_make_structure_factor               :     1        0.16s   0.000%  ------ ||
|| paw_dij_hartree                            :   722        0.17s   0.000%  ------ ||
|| augmentation_density_forces                :     1        0.23s   0.000%  ------ ||
|| sparse_spam3toblacs_real_fast_B2           : 29700        0.49s   0.001%  ------ ||
|| paw_tcore_hartree_on_grid                  :     1        0.51s   0.001%  ------ ||
|| restart_hamiltonian_write                  :     2        0.55s   0.001%  ------ ||
|| basis_extract_function_from_box            :  3264        0.57s   0.001%  ------ ||
|| paw_tcore_hartree_calc_forces              :     1        0.62s   0.001%  ------ ||
|| hubbard_projection_mtx                     :    73        0.74s   0.001%  ------ ||
|| paw_tcore_density                          :     1        1.25s   0.002%  ------ ||
|| paw_nlcc_calculate_forces                  :     1        1.25s   0.002%  ------ ||
|| paw_dataset_init                           :     2        1.51s   0.003%  ------ ||
|| paw_sphere_density_on_grid                 :     1        1.52s   0.003%  ------ ||
|| sparse_init                                :     1        2.20s   0.004%  ------ ||
|| ngwfs_initialise_from_radial               :     4        2.66s   0.005%  ------ ||
|| nonsc_forces_ngwfs_calc                    :     1        3.22s   0.006%  ------ ||
|| paw_species_calc_proj_prec_mat             :     1        5.89s   0.010%  ------ ||
|| hubbard_ham_matrix                         :   320        7.45s   0.013%  ------ ||
|| hubbard_projector_ham                      :   319        8.68s   0.015%  ------ ||
|| restart_kernel_write                       :    36        8.82s   0.015%  ------ ||
|| sparse_spam3toblacs_real_fast_B1           : 29700       14.23s   0.025%  ------ ||
|| energy_and_force_init_cell                 :     1       14.53s   0.025%  ------ ||
|| sparse_embed_array_hotelling_invert        :    71       15.46s   0.027%  ------ ||
|| sparse_spam3toblacs_real_fast              :   198       15.82s   0.028%  ------ ||
|| hubbard_calculate_forces                   :     1       17.30s   0.030%  ------ ||
|| hubbard_energy_total                       :   686       18.75s   0.033%  ------ ||
|| integrals_grad_spam3                       :     4       20.45s   0.036%  ------ ||
|| ngwf_gradient_coeffs                       :    34       26.65s   0.047%  ------ ||
|| fourier_filter_cell                        :   708       29.99s   0.053% 418.631 ||
|| sparse_blacstospam3_real_fast              :   212       30.43s   0.053%  ------ ||
|| hubbard_projector_update                   :     1       30.72s   0.054%  ------ ||
|| projectors_func_grad_ovlp_box_spam3        :     6       36.47s   0.064%  ------ ||
|| aug_nl_calculate_forces                    :     1       37.33s   0.065%  ------ ||
|| sparse_trace                               : 21474       39.66s   0.070%  ------ ||
|| hamiltonian_energy_components              :     1       39.70s   0.070%  ------ ||
|| eigenstates_calculate                      :     1       41.59s   0.073%  ------ ||
|| hartree_on_grid_single                     :   673       47.22s   0.083%  ------ ||
|| fourier_apply_box_pair                     :  5066       52.14s   0.091%  5.686k ||
|| dense_eigensolve                           :    96       52.84s   0.093%  ------ ||
|| density_init_guess_real                    :     2       58.16s   0.102%  ------ ||
|| basis_copy_function_to_box                 : 53337       59.17s   0.104%  ------ ||
|| fourier_interpolate_cell                   :  1348       62.36s   0.109% 383.334 ||
|| edft_diag_ngwf_ham                         :    94       66.71s   0.117%  ------ ||
|| kernel_fix                                 :   302       75.60s   0.133%  ------ ||
|| kernel_purify                              :   957       77.60s   0.136%  ------ ||
|| lnv_gradient_norm                          :   302       91.89s   0.161%  ------ ||
|| edft_apply_smearing_operator               :    47      106.11s   0.186%  ------ ||
|| forces_calculate                           :     1      133.12s   0.234%  ------ ||
|| augmentation_screen_dij_spam3              :   672      133.88s   0.235%  ------ ||
|| paw_dij_xc                                 :   722      144.54s   0.254%  ------ ||
|| aug_nonlocal_mat_spam3_embed_array         :   687      153.75s   0.270%  ------ ||
|| fourier_apply_cell_backward                :  6058      207.37s   0.364% 466.010 ||
|| fourier_apply_cell_forward                 :  6058      217.13s   0.381% 445.077 ||
|| projectors_init_fftbox_recip               :   705      249.49s   0.438%  ------ ||
|| cell_grid_deposit_box_real                 : 42430      285.44s   0.501%  ------ ||
|| cell_grid_extract_box_real                 : 26458      303.15s   0.532%  ------ ||
|| aug_density_on_grid_spam3                  :   674      317.27s   0.557%  ------ ||
|| fourier_filter                             :  9619      371.12s   0.651%  ------ ||
|| restart_ngwfs_tightbox_output              :    33      412.46s   0.724%  ------ ||
|| xc_energy_potential                        :   673      442.15s   0.776%  ------ ||
|| sparse_product                             : 41394      457.99s   0.803%  ------ ||
|| properties_calculate                       :     1      505.40s   0.887%  ------ ||
|| function_ops_brappd_ketppd_spam3           :   288      649.41s   1.139%  ------ ||
|| fourier_interpolate                        :  9619      777.81s   1.365%  ------ ||
|| projectors_func_ovlp_box_spam3             :   290     1020.09s   1.790%  ------ ||
|| density_fftbox_deposit_to_cell             : 33700     1518.32s   2.664%  ------ ||
|| integrals_kinetic_spam3                    :   142     1530.79s   2.686%  ------ ||
|| basis_dot_function_with_box                : 32.18M    2398.77s   4.208%  ------ ||
|| projectors_gradient_batch                  :   272     2436.50s   4.274%  ------ ||
|| edft_calculate                             :     1     2493.82s   4.375%  ------ ||
|| potential_apply_to_ngwf_batch              :  1280     4106.47s   7.204%  ------ ||
|| basis_add_function_to_box                  : 67.83M    5705.90s  10.010%  ------ ||
|| fourier_apply_box                          : 154.3k    5754.64s  10.096%  5.562k ||
|| integrals_locpot_mat_els_batch             :  1280     6080.21s  10.667%  ------ ||
|| fourier_interpolate_product                : 32352     6438.68s  11.296%  ------ ||
|| density_fftbox_interpolate_multiply        : 33700     6726.99s  11.801%  ------ ||
|| projectors_grad_precond_batch              :   136     7391.41s  12.967%  ------ ||
|| integrals_locpot_dbl_grid                  :   640    10189.94s  17.876%  ------ ||
|| ngwf_gradient_build_batch                  :   136    10956.65s  19.222%  ------ ||
|| density_batch_interp_deposit               :  2696    11925.67s  20.922%  ------ ||
|| density_batch_row_sums                     :  2696    12769.25s  22.401%  ------ ||
|| ngwf_gradient_batch                        :   136    15124.41s  26.533%  ------ ||
|| ngwf_gradient_lnv                          :    34    15505.16s  27.201%  ------ ||
|| density_on_dbl_grid                        :  1348    24805.24s  43.516%  ------ ||
|| hamiltonian_lhxc_calculate                 :   670    25792.31s  45.248%  ------ ||
|| lnv_denskernel_optimise_cg                 :    34    32637.93s  57.258%  ------ ||
|| ngwf_cg_optimise                           :     1    53657.94s  94.134%  ------ ||
|| energy_and_forces                          :     1    56985.90s  99.972%  ------ ||
|| total_time                                 :     1    57001.94s 100.000%  ------ ||
======================================================================================
Overhead of generating timer report: 
- 0 ms averaging over threads,
- 11 ms ensuring consistency across MPI ranks,
- 6 ms printing in order.

Job completed: 27-04-2025 02:04 (+0100)

onetep_launcher: ONETEP seems to have finished correctly (zero exit code).
                 Brought to you by PID 24041 on nid001930.
