==================================================================================
It's Wed 07 May 2025 10:02:47 AM BST.
*** Starting onetep_launcher (node nid004318, PIDs 249939 249940 249941 249942 249943 249944)...
    - ONETEP arguments: Cr2I6_bilayer_LT_FM_AFM_SP.dat
    - Current directory: /mnt/lustre/a2fs-work3/work/e89/e89/phsmea/CrI3_onetep_U/U_2.97/LT_FM/LT_FM_AFM_J/sp
    - Launcher executable directory: /mnt/lustre/a2fs-work3/work/e89/e89/phsmea/CrI3_onetep_U/U_2.97/LT_FM/LT_FM_AFM_J/sp
    - (-e) ONETEP executable specified through command-line: /work/e89/e89/phsmea/onetep.archer2_2024_cray
      ... trying /work/e89/e89/phsmea/onetep.archer2_2024_cray
          -> looks OK
*** Setting up environment...
    - (-s) Process stack size: unlimited
    - (-t) OMP_NUM_THREADS: 16
    - (-o) OMP_STACKSIZE: 64M
    - (-c) Maximum core file size: 2048000
    - (-d) decfort_dump_flag: n
    - (-m) I_MPI_OFA_TRANSLATION_CACHE: 0
    - (-m) I_MPI_DAPL_TRANSLATION_CACHE: 0
    - (-m) I_MPI_DAPL_UD_TRANSLATION_CACHE: 0
*** Starting ONETEP...
    - /work/e89/e89/phsmea/onetep.archer2_2024_cray Cr2I6_bilayer_LT_FM_AFM_SP.dat
=================================================================================
_________________________________________________________________________________
 +---------------------------------------------------------------+
 |                                                               |
 |        ####### #     # ####### ####### ####### ######         |
 |        #     # ##    # #          #    #       #     #        |
 |        #     # # #   # #          #    #       #     #        |
 |        #     # #  #  # #####      #    #####   ######         |
 |        #     # #   # # #          #    #       #              |
 |        #     # #    ## #          #    #       #              |
 |        ####### #     # #######    #    ####### #              |
 |                                                               |
 |        Linear-Scaling Ab Initio Total Energy Program          |
 |                                                               |
 |          Release for academic collaborators of ODG            |
 |                                             Version 7.3.0     |
 | Remote: git@github.com:Miesaz/onetep_mea.git                  |
 | Local branch: master                                          |
 | Commit ID: 4af45e89288c8df5499704252eec3e032ee3d0c8           |
 | Date: Tue Aug 6 11:28:44 2024 +0100                           |
 | Working tree clean                                            |
 |                                                               |
 +---------------------------------------------------------------+
 |                                                               |
 |  Authors:                                                     |
 |  Jacek Dziedzic, Peter D. Haynes, Nicholas D. M. Hine,        |
 |  Arash A. Mostofi, Mike C. Payne and Chris-Kriton Skylaris    |
 |                                                               |
 |  Contributors:                                                |
 |  J. Aarons, L. Andrinopoulos, P. W. Avraam, R. A. Bell,       |
 |  A. Bhandari, G. A. Bramley, R. J. Charlton, S. J. Clark,     |
 |  R. J. Clements, G. C. Constantinescu, F. Corsetti,           |
 |  N. Corsini, O. Dieguez, S. M. M. Dubois, K. K. B. Duff,      |
 |  J. M. Escartin, M. Escobar Azor, A. Greco,                   |
 |  H. Helal, Q. O. Hill, L. P. Lee, J.-H. Li,                   |
 |  T. Li, E. B. Linscott, G. Moynihan, D. D. O`Regan,           |
 |  O. K. Okan, E. Parkinson, M. J. S. Phipps,                   |
 |  C. J. Pickard, J. C. A. Prentice, M. I. J. Probert,          |
 |  L. E. Ratcliff, M. Robinson, A. Ruiz Serrano,                |
 |  M. dos Santos Dias, J. S. Spencer, E. W. Tait,               |
 |  G. Teobaldi, D. Turban, V. Vitale, K. A. Wilkinson,          |
 |  C. Weber, J. C. Womack, Chengcheng Xiao, N. Yeung,           |
 |  and T. J. Zuehlsdorff.                                       |
 |                                                               |
 |                                   Copyright (c) 2004-2024     |
 |                                                               |
 |  Please cite:                                                 |
 |  "The ONETEP linear-scaling density functional theory program"|
 |   J. Chem. Phys. 152(17) 174111 (2020)                        |
 |                                                               |
 |          in all publications arising from your use of ONETEP. |
 |                                                               |
 +---------------------------------------------------------------+
 |                                                               |
 |   ONETEP is based on developments described in the following  |
 |   publications:                                               |
 |                                                               |
 |  "Nonorthogonal generalized Wannier function pseudopotential  |
 |   plane-wave method".                                         |
 |   C.-K. Skylaris, A. A. Mostofi, P. D. Haynes, O. Dieguez,    |
 |   M. C. Payne.                                                |
 |   Phys. Rev. B 66 035119 (2002).                              |
 |                                                               |
 |  "Preconditioned iterative minimization for linear-scaling    |
 |   electronic structure calculations".                         |
 |   A. A. Mostofi, P. D. Haynes, C.-K. Skylaris, M. C. Payne.   |
 |   J. Chem. Phys. 119(17), pp.8842-8848 (2003).                |
 |                                                               |
 |  "Total-energy calculations on a real space grid with         |
 |   localized functions and a plane-wave basis".                |
 |   A. A. Mostofi, C.-K. Skylaris, P. D. Haynes, M. C. Payne.   |
 |   Comput. Phys. Commun. 147, pp.788-802 (2002).               |
 |                                                               |
 |  "Accurate kinetic energy evaluation in electronic structure  |
 |   calculations with localized functions on real space grids"  |
 |   C.-K. Skylaris, A. A. Mostofi, P. D. Haynes, C. J. Pickard, |
 |   M. C. Payne.                                                |
 |   Comput. Phys. Commun. 140, pp.315-322 (2001).               |
 |                                                               |
 |  "Accurate ionic forces and geometry optimization in linear-  |
 |   scaling density-functional theory with local orbitals"      |
 |   N. D. M. Hine, M. Robinson, P. D. Haynes, C.-K. Skylaris,   |
 |   M. C. Payne, and A. A. Mostofi.                             |
 |   Phys. Rev. B 83 195102 (2011).                              |
 |                                                               |
 +---------------------------------------------------------------+

Job started: 07-05-2025 10:02 (+0100)
 
Reading parameters from file "Cr2I6_bilayer_LT_FM_AFM_SP.dat" ...... done

If your calculation crashes here, before "Checking processes and threads..."
is displayed, then your stack size is insufficient.
If so, use "ulimit -s unlimited" at runtime.
You can disable this check with "check_stack_size F".

Checking processes and threads...
      Default threads: 16
   Running with 150 MPI processes.
   There are 6 MPI processes running on the same node as the root process.
   Each MPI process is using: 
               1 threads for simulation cell FFTs.
               1 threads for threaded FFT box operations.
              16 threads for loops over batched FFT box operations.
              16 threads in other parallel regions.
   MPI Interface: S1 (use mpi_f08) (-DMPI -DUSE_MPI_F08).
   MPI_ASYNC_PROTECTS_NONBLOCKING: Yes. MPI_SUBARRAYS_SUPPORTED: Yes.
   FFTW Interface: OMP-capable and MODERN. (-DUSE_MODERN_FFTW specified).
   GPU Interface: None.
   GPU FFT Backend: None.
... done

Basic input checks...... done

Reading geometry and species blocks from file "Cr2I6_bilayer_LT_FM_AFM_SP.dat" ...... done


--------------------------------------------------------------------------------
---------------------------------- INPUT FILE ----------------------------------
--------------------------------------------------------------------------------

charge : 0                                                                      
cutoff_energy : 1000 eV                                                         
delta_e_conv : F                                                                
do_properties : T                                                               
edft : F                                                                        
edft_init_maxit : 15                                                            
elec_energy_tol : 1e-07 Ha                                                      
fine_grid_scale : 4                                                             
forces_output_detail : VERBOSE                                                  
MAXIT_LNV     : 15                                                              
MINIT_LNV     : 5                                                               
maxit_ngwf_cg : 100                                                             
ngwf_threshold_orig : 1e-06                                                     
ngwfs_spin_polarized : T                                                        
output_detail : NORMAL                                                          
paw : T                                                                         
read_denskern : T                                                               
read_hamiltonian : F                                                            
read_tightbox_ngwfs : T                                                         
spin : 0                                                                        
spin_polarized : T                                                              
task : SinglePoint                                                              
write_denskern : T                                                              
write_forces : T                                                                
write_hamiltonian : T                                                           
write_tightbox_ngwfs : T                                                        
xc_functional : PBE                                                             
%BLOCK LATTICE_CART                                                             
ang                                                                             
41.261892132    0.000000000    0.000000000                                      
-20.630946066   35.733846792    0.000000000                                     
0.000000000    0.000000000   27.507928088                                       
%ENDBLOCK LATTICE_CART                                                          
%BLOCK POSITIONS_ABS                                                            
ang                                                                             
Cr       2.29230603       3.97040895      17.03520929                           
Cr      -1.14615438       5.95565340      17.04368562                           
I        3.29127824       1.97929933      15.50172901                           
I        0.06846335       4.10088269      15.50172980                           
I       -3.35976942       5.83112629      15.50174515                           
I        1.29815293       1.98813153      18.57647573                           
I        1.07268127       5.82255136      18.57647595                           
I       -2.37086124       4.10061929      18.57646027                           
Cr      5.73080703       1.98523473      10.46423698                            
Cr      2.29229229       3.97042256      10.47271549                            
I        6.72497778      -0.00289519       8.93147663                           
I        3.51196949       2.11831465       8.93145308                           
I        0.07849930       3.84024628       8.93144278                           
I        4.73186155       0.00594958      12.00619783                           
I        4.51617900       3.83998833      12.00619302                           
I        1.06740595       2.10972815      12.00620106                           
Cr      -1.14618498       9.92605008      17.03520929                           
Cr      -4.58464539      11.91129453      17.04368562                           
I       -0.14721277       7.93494046      15.50172901                           
I       -3.37002766      10.05652383      15.50172980                           
I       -6.79826043      11.78676742      15.50174515                           
I       -2.14033808       7.94377266      18.57647573                           
I       -2.36580974      11.77819249      18.57647595                           
I       -5.80935225      10.05626043      18.57646027                           
Cr      2.29231601       7.94087586      10.46423698                            
Cr     -1.14619872       9.92606369      10.47271549                            
I        3.28648677       5.95274594       8.93147663                           
I        0.07347848       8.07395578       8.93145308                           
I       -3.35999171       9.79588741       8.93144278                           
I        1.29337054       5.96159071      12.00619783                           
I        1.07768799       9.79562946      12.00619302                           
I       -2.37108506       8.06536928      12.00620106                           
Cr      -4.58467600      15.88169122      17.03520929                           
Cr      -8.02313640      17.86693567      17.04368562                           
I       -3.58570378      13.89058160      15.50172901                           
I       -6.80851867      16.01216496      15.50172980                           
I      -10.23675144      17.74240855      15.50174515                           
I       -5.57882909      13.89941380      18.57647573                           
I       -5.80430075      17.73383362      18.57647595                           
I       -9.24784326      16.01190156      18.57646027                           
Cr     -1.14617500      13.89651700      10.46423698                            
Cr     -4.58468973      15.88170482      10.47271549                            
I       -0.15200424      11.90838708       8.93147663                           
I       -3.36501253      14.02959691       8.93145308                           
I       -6.79848272      15.75152855       8.93144278                           
I       -2.14512047      11.91723184      12.00619783                           
I       -2.36080302      15.75127059      12.00619302                           
I       -5.80957607      14.02101041      12.00620106                           
Cr      -8.02316701      21.83733235      17.03520929                           
Cr     -11.46162741      23.82257680      17.04368562                           
I       -7.02419479      19.84622273      15.50172901                           
I      -10.24700968      21.96780609      15.50172980                           
I      -13.67524245      23.69804968      15.50174515                           
I       -9.01732010      19.85505493      18.57647573                           
I       -9.24279176      23.68947476      18.57647595                           
I      -12.68633427      21.96754269      18.57646027                           
Cr     -4.58466601      19.85215813      10.46423698                            
Cr     -8.02318074      21.83734595      10.47271549                            
I       -3.59049526      17.86402821       8.93147663                           
I       -6.80350354      19.98523804       8.93145308                           
I      -10.23697373      21.70716968       8.93144278                           
I       -5.58361148      17.87287297      12.00619783                           
I       -5.79929403      21.70691172      12.00619302                           
I       -9.24806708      19.97665154      12.00620106                           
Cr     -11.46165802      27.79297348      17.03520929                           
Cr     -14.90011843      29.77821793      17.04368562                           
I      -10.46268580      25.80186386      15.50172901                           
I      -13.68550069      27.92344722      15.50172980                           
I      -17.11373346      29.65369082      15.50174515                           
I      -12.45581112      25.81069606      18.57647573                           
I      -12.68128277      29.64511589      18.57647595                           
I      -16.12482528      27.92318382      18.57646027                           
Cr     -8.02315702      25.80779926      10.46423698                            
Cr    -11.46167176      27.79298708      10.47271549                            
I       -7.02898627      23.81966934       8.93147663                           
I      -10.24199455      25.94087917       8.93145308                           
I      -13.67546474      27.66281081       8.93144278                           
I       -9.02210249      23.82851411      12.00619783                           
I       -9.23778504      27.66255286      12.00619302                           
I      -12.68655809      25.93229268      12.00620106                           
Cr     -14.90014903      33.74861461      17.03520929                           
Cr     -18.33860944      35.73385906      17.04368562                           
I      -13.90117681      31.75750499      15.50172901                           
I      -17.12399170      33.87908835      15.50172980                           
I      -20.55222447      35.60933195      15.50174515                           
I      -15.89430213      31.76633719      18.57647573                           
I      -16.11977378      35.60075702      18.57647595                           
I      -19.56331629      33.87882495      18.57646027                           
Cr    -11.46164803      31.76344039      10.46423698                            
Cr    -14.90016277      33.74862822      10.47271549                            
I      -10.46747728      29.77531047       8.93147663                           
I      -13.68048556      31.89652031       8.93145308                           
I      -17.11395575      33.61845194       8.93144278                           
I      -12.46059350      29.78415524      12.00619783                           
I      -12.67627606      33.61819399      12.00619302                           
I      -16.12504910      31.88793381      12.00620106                           
Cr       9.16928805       3.97040895      17.03520929                           
Cr       5.73082764       5.95565340      17.04368562                           
I       10.16826026       1.97929933      15.50172901                           
I        6.94544538       4.10088269      15.50172980                           
I        3.51721261       5.83112629      15.50174515                           
I        8.17513495       1.98813153      18.57647573                           
I        7.94966330       5.82255136      18.57647595                           
I        4.50612079       4.10061929      18.57646027                           
Cr     12.60778905       1.98523473      10.46423698                            
Cr      9.16927431       3.97042256      10.47271549                            
I       13.60195980      -0.00289519       8.93147663                           
I       10.38895151       2.11831465       8.93145308                           
I        6.95548132       3.84024628       8.93144278                           
I       11.60884358       0.00594958      12.00619783                           
I       11.39316102       3.83998833      12.00619302                           
I        7.94438798       2.10972815      12.00620106                           
Cr       5.73079704       9.92605008      17.03520929                           
Cr       2.29233663      11.91129453      17.04368562                           
I        6.72976925       7.93494046      15.50172901                           
I        3.50695437      10.05652383      15.50172980                           
I        0.07872159      11.78676742      15.50174515                           
I        4.73664394       7.94377266      18.57647573                           
I        4.51117228      11.77819249      18.57647595                           
I        1.06762977      10.05626043      18.57646027                           
Cr      9.16929804       7.94087586      10.46423698                            
Cr      5.73078330       9.92606369      10.47271549                            
I       10.16346879       5.95274594       8.93147663                           
I        6.95046050       8.07395578       8.93145308                           
I        3.51699031       9.79588741       8.93144278                           
I        8.17035256       5.96159071      12.00619783                           
I        7.95467001       9.79562946      12.00619302                           
I        4.50589697       8.06536928      12.00620106                           
Cr       2.29230603      15.88169122      17.03520929                           
Cr      -1.14615438      17.86693567      17.04368562                           
I        3.29127824      13.89058160      15.50172901                           
I        0.06846335      16.01216496      15.50172980                           
I       -3.35976942      17.74240855      15.50174515                           
I        1.29815293      13.89941380      18.57647573                           
I        1.07268127      17.73383362      18.57647595                           
I       -2.37086124      16.01190156      18.57646027                           
Cr      5.73080703      13.89651700      10.46423698                            
Cr      2.29229229      15.88170482      10.47271549                            
I        6.72497778      11.90838708       8.93147663                           
I        3.51196949      14.02959691       8.93145308                           
I        0.07849930      15.75152855       8.93144278                           
I        4.73186155      11.91723184      12.00619783                           
I        4.51617900      15.75127059      12.00619302                           
I        1.06740595      14.02101041      12.00620106                           
Cr      -1.14618498      21.83733235      17.03520929                           
Cr      -4.58464539      23.82257680      17.04368562                           
I       -0.14721277      19.84622273      15.50172901                           
I       -3.37002766      21.96780609      15.50172980                           
I       -6.79826043      23.69804968      15.50174515                           
I       -2.14033808      19.85505493      18.57647573                           
I       -2.36580974      23.68947476      18.57647595                           
I       -5.80935225      21.96754269      18.57646027                           
Cr      2.29231601      19.85215813      10.46423698                            
Cr     -1.14619872      21.83734595      10.47271549                            
I        3.28648677      17.86402821       8.93147663                           
I        0.07347848      19.98523804       8.93145308                           
I       -3.35999171      21.70716968       8.93144278                           
I        1.29337054      17.87287297      12.00619783                           
I        1.07768799      21.70691172      12.00619302                           
I       -2.37108506      19.97665154      12.00620106                           
Cr      -4.58467600      27.79297348      17.03520929                           
Cr      -8.02313640      29.77821793      17.04368562                           
I       -3.58570378      25.80186386      15.50172901                           
I       -6.80851867      27.92344722      15.50172980                           
I      -10.23675144      29.65369082      15.50174515                           
I       -5.57882909      25.81069606      18.57647573                           
I       -5.80430075      29.64511589      18.57647595                           
I       -9.24784326      27.92318382      18.57646027                           
Cr     -1.14617500      25.80779926      10.46423698                            
Cr     -4.58468973      27.79298708      10.47271549                            
I       -0.15200424      23.81966934       8.93147663                           
I       -3.36501253      25.94087917       8.93145308                           
I       -6.79848272      27.66281081       8.93144278                           
I       -2.14512047      23.82851411      12.00619783                           
I       -2.36080302      27.66255286      12.00619302                           
I       -5.80957607      25.93229268      12.00620106                           
Cr      -8.02316701      33.74861461      17.03520929                           
Cr     -11.46162741      35.73385906      17.04368562                           
I       -7.02419479      31.75750499      15.50172901                           
I      -10.24700968      33.87908835      15.50172980                           
I      -13.67524245      35.60933195      15.50174515                           
I       -9.01732010      31.76633719      18.57647573                           
I       -9.24279176      35.60075702      18.57647595                           
I      -12.68633427      33.87882495      18.57646027                           
Cr     -4.58466601      31.76344039      10.46423698                            
Cr     -8.02318074      33.74862822      10.47271549                            
I       -3.59049526      29.77531047       8.93147663                           
I       -6.80350354      31.89652031       8.93145308                           
I      -10.23697373      33.61845194       8.93144278                           
I       -5.58361148      29.78415524      12.00619783                           
I       -5.79929403      33.61819399      12.00619302                           
I       -9.24806708      31.88793381      12.00620106                           
Cr      16.04627007       3.97040895      17.03520929                           
Cr      12.60780966       5.95565340      17.04368562                           
I       17.04524228       1.97929933      15.50172901                           
I       13.82242740       4.10088269      15.50172980                           
I       10.39419463       5.83112629      15.50174515                           
I       15.05211697       1.98813153      18.57647573                           
I       14.82664532       5.82255136      18.57647595                           
I       11.38310281       4.10061929      18.57646027                           
Cr     19.48477107       1.98523473      10.46423698                            
Cr     16.04625633       3.97042256      10.47271549                            
I       20.47894182      -0.00289519       8.93147663                           
I       17.26593353       2.11831465       8.93145308                           
I       13.83246335       3.84024628       8.93144278                           
I       18.48582560       0.00594958      12.00619783                           
I       18.27014304       3.83998833      12.00619302                           
I       14.82137000       2.10972815      12.00620106                           
Cr      12.60777906       9.92605008      17.03520929                           
Cr       9.16931865      11.91129453      17.04368562                           
I       13.60675127       7.93494046      15.50172901                           
I       10.38393639      10.05652383      15.50172980                           
I        6.95570362      11.78676742      15.50174515                           
I       11.61362596       7.94377266      18.57647573                           
I       11.38815431      11.77819249      18.57647595                           
I        7.94461180      10.05626043      18.57646027                           
Cr     16.04628006       7.94087586      10.46423698                            
Cr     12.60776532       9.92606369      10.47271549                            
I       17.04045081       5.95274594       8.93147663                           
I       13.82744252       8.07395578       8.93145308                           
I       10.39397233       9.79588741       8.93144278                           
I       15.04733459       5.96159071      12.00619783                           
I       14.83165203       9.79562946      12.00619302                           
I       11.38287899       8.06536928      12.00620106                           
Cr       9.16928805      15.88169122      17.03520929                           
Cr       5.73082764      17.86693567      17.04368562                           
I       10.16826026      13.89058160      15.50172901                           
I        6.94544538      16.01216496      15.50172980                           
I        3.51721261      17.74240855      15.50174515                           
I        8.17513495      13.89941380      18.57647573                           
I        7.94966330      17.73383362      18.57647595                           
I        4.50612079      16.01190156      18.57646027                           
Cr     12.60778905      13.89651700      10.46423698                            
Cr      9.16927431      15.88170482      10.47271549                            
I       13.60195980      11.90838708       8.93147663                           
I       10.38895151      14.02959691       8.93145308                           
I        6.95548132      15.75152855       8.93144278                           
I       11.60884358      11.91723184      12.00619783                           
I       11.39316102      15.75127059      12.00619302                           
I        7.94438798      14.02101041      12.00620106                           
Cr       5.73079704      21.83733235      17.03520929                           
Cr       2.29233663      23.82257680      17.04368562                           
I        6.72976925      19.84622273      15.50172901                           
I        3.50695437      21.96780609      15.50172980                           
I        0.07872159      23.69804968      15.50174515                           
I        4.73664394      19.85505493      18.57647573                           
I        4.51117228      23.68947476      18.57647595                           
I        1.06762977      21.96754269      18.57646027                           
Cr      9.16929804      19.85215813      10.46423698                            
Cr      5.73078330      21.83734595      10.47271549                            
I       10.16346879      17.86402821       8.93147663                           
I        6.95046050      19.98523804       8.93145308                           
I        3.51699031      21.70716968       8.93144278                           
I        8.17035256      17.87287297      12.00619783                           
I        7.95467001      21.70691172      12.00619302                           
I        4.50589697      19.97665154      12.00620106                           
Cr       2.29230603      27.79297348      17.03520929                           
Cr      -1.14615438      29.77821793      17.04368562                           
I        3.29127824      25.80186386      15.50172901                           
I        0.06846335      27.92344722      15.50172980                           
I       -3.35976942      29.65369082      15.50174515                           
I        1.29815293      25.81069606      18.57647573                           
I        1.07268127      29.64511589      18.57647595                           
I       -2.37086124      27.92318382      18.57646027                           
Cr      5.73080703      25.80779926      10.46423698                            
Cr      2.29229229      27.79298708      10.47271549                            
I        6.72497778      23.81966934       8.93147663                           
I        3.51196949      25.94087917       8.93145308                           
I        0.07849930      27.66281081       8.93144278                           
I        4.73186155      23.82851411      12.00619783                           
I        4.51617900      27.66255286      12.00619302                           
I        1.06740595      25.93229268      12.00620106                           
Cr      -1.14618498      33.74861461      17.03520929                           
Cr      -4.58464539      35.73385906      17.04368562                           
I       -0.14721277      31.75750499      15.50172901                           
I       -3.37002766      33.87908835      15.50172980                           
I       -6.79826043      35.60933195      15.50174515                           
I       -2.14033808      31.76633719      18.57647573                           
I       -2.36580974      35.60075702      18.57647595                           
I       -5.80935225      33.87882495      18.57646027                           
Cr      2.29231601      31.76344039      10.46423698                            
Cr     -1.14619872      33.74862822      10.47271549                            
I        3.28648677      29.77531047       8.93147663                           
I        0.07347848      31.89652031       8.93145308                           
I       -3.35999171      33.61845194       8.93144278                           
I        1.29337054      29.78415524      12.00619783                           
I        1.07768799      33.61819399      12.00619302                           
I       -2.37108506      31.88793381      12.00620106                           
Cr      22.92325209       3.97040895      17.03520929                           
Cr      19.48479168       5.95565340      17.04368562                           
I       23.92222431       1.97929933      15.50172901                           
I       20.69940942       4.10088269      15.50172980                           
I       17.27117665       5.83112629      15.50174515                           
I       21.92909899       1.98813153      18.57647573                           
I       21.70362734       5.82255136      18.57647595                           
I       18.26008483       4.10061929      18.57646027                           
Cr     26.36175309       1.98523473      10.46423698                            
Cr     22.92323835       3.97042256      10.47271549                            
I       27.35592384      -0.00289519       8.93147663                           
I       24.14291556       2.11831465       8.93145308                           
I       20.70944537       3.84024628       8.93144278                           
I       25.36280762       0.00594958      12.00619783                           
I       25.14712507       3.83998833      12.00619302                           
I       21.69835202       2.10972815      12.00620106                           
Cr      19.48476108       9.92605008      17.03520929                           
Cr      16.04630067      11.91129453      17.04368562                           
I       20.48373330       7.93494046      15.50172901                           
I       17.26091841      10.05652383      15.50172980                           
I       13.83268564      11.78676742      15.50174515                           
I       18.49060798       7.94377266      18.57647573                           
I       18.26513633      11.77819249      18.57647595                           
I       14.82159382      10.05626043      18.57646027                           
Cr     22.92326208       7.94087586      10.46423698                            
Cr     19.48474734       9.92606369      10.47271549                            
I       23.91743283       5.95274594       8.93147663                           
I       20.70442455       8.07395578       8.93145308                           
I       17.27095436       9.79588741       8.93144278                           
I       21.92431661       5.96159071      12.00619783                           
I       21.70863405       9.79562946      12.00619302                           
I       18.25986101       8.06536928      12.00620106                           
Cr      16.04627007      15.88169122      17.03520929                           
Cr      12.60780966      17.86693567      17.04368562                           
I       17.04524228      13.89058160      15.50172901                           
I       13.82242740      16.01216496      15.50172980                           
I       10.39419463      17.74240855      15.50174515                           
I       15.05211697      13.89941380      18.57647573                           
I       14.82664532      17.73383362      18.57647595                           
I       11.38310281      16.01190156      18.57646027                           
Cr     19.48477107      13.89651700      10.46423698                            
Cr     16.04625633      15.88170482      10.47271549                            
I       20.47894182      11.90838708       8.93147663                           
I       17.26593353      14.02959691       8.93145308                           
I       13.83246335      15.75152855       8.93144278                           
I       18.48582560      11.91723184      12.00619783                           
I       18.27014304      15.75127059      12.00619302                           
I       14.82137000      14.02101041      12.00620106                           
Cr      12.60777906      21.83733235      17.03520929                           
Cr       9.16931865      23.82257680      17.04368562                           
I       13.60675127      19.84622273      15.50172901                           
I       10.38393639      21.96780609      15.50172980                           
I        6.95570362      23.69804968      15.50174515                           
I       11.61362596      19.85505493      18.57647573                           
I       11.38815431      23.68947476      18.57647595                           
I        7.94461180      21.96754269      18.57646027                           
Cr     16.04628006      19.85215813      10.46423698                            
Cr     12.60776532      21.83734595      10.47271549                            
I       17.04045081      17.86402821       8.93147663                           
I       13.82744252      19.98523804       8.93145308                           
I       10.39397233      21.70716968       8.93144278                           
I       15.04733459      17.87287297      12.00619783                           
I       14.83165203      21.70691172      12.00619302                           
I       11.38287899      19.97665154      12.00620106                           
Cr       9.16928805      27.79297348      17.03520929                           
Cr       5.73082764      29.77821793      17.04368562                           
I       10.16826026      25.80186386      15.50172901                           
I        6.94544538      27.92344722      15.50172980                           
I        3.51721261      29.65369082      15.50174515                           
I        8.17513495      25.81069606      18.57647573                           
I        7.94966330      29.64511589      18.57647595                           
I        4.50612079      27.92318382      18.57646027                           
Cr     12.60778905      25.80779926      10.46423698                            
Cr      9.16927431      27.79298708      10.47271549                            
I       13.60195980      23.81966934       8.93147663                           
I       10.38895151      25.94087917       8.93145308                           
I        6.95548132      27.66281081       8.93144278                           
I       11.60884358      23.82851411      12.00619783                           
I       11.39316102      27.66255286      12.00619302                           
I        7.94438798      25.93229268      12.00620106                           
Cr       5.73079704      33.74861461      17.03520929                           
Cr       2.29233663      35.73385906      17.04368562                           
I        6.72976925      31.75750499      15.50172901                           
I        3.50695437      33.87908835      15.50172980                           
I        0.07872159      35.60933195      15.50174515                           
I        4.73664394      31.76633719      18.57647573                           
I        4.51117228      35.60075702      18.57647595                           
I        1.06762977      33.87882495      18.57646027                           
Cr      9.16929804      31.76344039      10.46423698                            
Cr      5.73078330      33.74862822      10.47271549                            
I       10.16346879      29.77531047       8.93147663                           
I        6.95046050      31.89652031       8.93145308                           
I        3.51699031      33.61845194       8.93144278                           
I        8.17035256      29.78415524      12.00619783                           
I        7.95467001      33.61819399      12.00619302                           
I        4.50589697      31.88793381      12.00620106                           
Cr      29.80023411       3.97040895      17.03520929                           
Cr      26.36177371       5.95565340      17.04368562                           
I       30.79920633       1.97929933      15.50172901                           
I       27.57639144       4.10088269      15.50172980                           
I       24.14815867       5.83112629      15.50174515                           
I       28.80608102       1.98813153      18.57647573                           
I       28.58060936       5.82255136      18.57647595                           
I       25.13706685       4.10061929      18.57646027                           
Cr     33.23873511       1.98523473      10.46423698                            
Cr     29.80022038       3.97042256      10.47271549                            
I       34.23290587      -0.00289519       8.93147663                           
I       31.01989758       2.11831465       8.93145308                           
I       27.58642739       3.84024628       8.93144278                           
I       32.23978964       0.00594958      12.00619783                           
I       32.02410709       3.83998833      12.00619302                           
I       28.57533404       2.10972815      12.00620106                           
Cr      26.36174310       9.92605008      17.03520929                           
Cr      22.92328270      11.91129453      17.04368562                           
I       27.36071532       7.93494046      15.50172901                           
I       24.13790043      10.05652383      15.50172980                           
I       20.70966766      11.78676742      15.50174515                           
I       25.36759001       7.94377266      18.57647573                           
I       25.14211835      11.77819249      18.57647595                           
I       21.69857584      10.05626043      18.57646027                           
Cr     29.80024410       7.94087586      10.46423698                            
Cr     26.36172937       9.92606369      10.47271549                            
I       30.79441485       5.95274594       8.93147663                           
I       27.58140657       8.07395578       8.93145308                           
I       24.14793638       9.79588741       8.93144278                           
I       28.80129863       5.96159071      12.00619783                           
I       28.58561608       9.79562946      12.00619302                           
I       25.13684303       8.06536928      12.00620106                           
Cr      22.92325209      15.88169122      17.03520929                           
Cr      19.48479168      17.86693567      17.04368562                           
I       23.92222431      13.89058160      15.50172901                           
I       20.69940942      16.01216496      15.50172980                           
I       17.27117665      17.74240855      15.50174515                           
I       21.92909899      13.89941380      18.57647573                           
I       21.70362734      17.73383362      18.57647595                           
I       18.26008483      16.01190156      18.57646027                           
Cr     26.36175309      13.89651700      10.46423698                            
Cr     22.92323835      15.88170482      10.47271549                            
I       27.35592384      11.90838708       8.93147663                           
I       24.14291556      14.02959691       8.93145308                           
I       20.70944537      15.75152855       8.93144278                           
I       25.36280762      11.91723184      12.00619783                           
I       25.14712507      15.75127059      12.00619302                           
I       21.69835202      14.02101041      12.00620106                           
Cr      19.48476108      21.83733235      17.03520929                           
Cr      16.04630067      23.82257680      17.04368562                           
I       20.48373330      19.84622273      15.50172901                           
I       17.26091841      21.96780609      15.50172980                           
I       13.83268564      23.69804968      15.50174515                           
I       18.49060798      19.85505493      18.57647573                           
I       18.26513633      23.68947476      18.57647595                           
I       14.82159382      21.96754269      18.57646027                           
Cr     22.92326208      19.85215813      10.46423698                            
Cr     19.48474734      21.83734595      10.47271549                            
I       23.91743283      17.86402821       8.93147663                           
I       20.70442455      19.98523804       8.93145308                           
I       17.27095436      21.70716968       8.93144278                           
I       21.92431661      17.87287297      12.00619783                           
I       21.70863405      21.70691172      12.00619302                           
I       18.25986101      19.97665154      12.00620106                           
Cr      16.04627007      27.79297348      17.03520929                           
Cr      12.60780966      29.77821793      17.04368562                           
I       17.04524228      25.80186386      15.50172901                           
I       13.82242740      27.92344722      15.50172980                           
I       10.39419463      29.65369082      15.50174515                           
I       15.05211697      25.81069606      18.57647573                           
I       14.82664532      29.64511589      18.57647595                           
I       11.38310281      27.92318382      18.57646027                           
Cr     19.48477107      25.80779926      10.46423698                            
Cr     16.04625633      27.79298708      10.47271549                            
I       20.47894182      23.81966934       8.93147663                           
I       17.26593353      25.94087917       8.93145308                           
I       13.83246335      27.66281081       8.93144278                           
I       18.48582560      23.82851411      12.00619783                           
I       18.27014304      27.66255286      12.00619302                           
I       14.82137000      25.93229268      12.00620106                           
Cr      12.60777906      33.74861461      17.03520929                           
Cr       9.16931865      35.73385906      17.04368562                           
I       13.60675127      31.75750499      15.50172901                           
I       10.38393639      33.87908835      15.50172980                           
I        6.95570362      35.60933195      15.50174515                           
I       11.61362596      31.76633719      18.57647573                           
I       11.38815431      35.60075702      18.57647595                           
I        7.94461180      33.87882495      18.57646027                           
Cr     16.04628006      31.76344039      10.46423698                            
Cr     12.60776532      33.74862822      10.47271549                            
I       17.04045081      29.77531047       8.93147663                           
I       13.82744252      31.89652031       8.93145308                           
I       10.39397233      33.61845194       8.93144278                           
I       15.04733459      29.78415524      12.00619783                           
I       14.83165203      33.61819399      12.00619302                           
I       11.38287899      31.88793381      12.00620106                           
Cr      36.67721614       3.97040895      17.03520929                           
Cr      33.23875573       5.95565340      17.04368562                           
I       37.67618835       1.97929933      15.50172901                           
I       34.45337346       4.10088269      15.50172980                           
I       31.02514069       5.83112629      15.50174515                           
I       35.68306304       1.98813153      18.57647573                           
I       35.45759138       5.82255136      18.57647595                           
I       32.01404887       4.10061929      18.57646027                           
Cr     40.11571714       1.98523473      10.46423698                            
Cr     36.67720240       3.97042256      10.47271549                            
I       41.10988789      -0.00289519       8.93147663                           
I       37.89687960       2.11831465       8.93145308                           
I       34.46340941       3.84024628       8.93144278                           
I       39.11677166       0.00594958      12.00619783                           
I       38.90108911       3.83998833      12.00619302                           
I       35.45231606       2.10972815      12.00620106                           
Cr      33.23872513       9.92605008      17.03520929                           
Cr      29.80026472      11.91129453      17.04368562                           
I       34.23769734       7.93494046      15.50172901                           
I       31.01488245      10.05652383      15.50172980                           
I       27.58664968      11.78676742      15.50174515                           
I       32.24457203       7.94377266      18.57647573                           
I       32.01910037      11.77819249      18.57647595                           
I       28.57555786      10.05626043      18.57646027                           
Cr     36.67722612       7.94087586      10.46423698                            
Cr     33.23871139       9.92606369      10.47271549                            
I       37.67139688       5.95274594       8.93147663                           
I       34.45838859       8.07395578       8.93145308                           
I       31.02491840       9.79588741       8.93144278                           
I       35.67828065       5.96159071      12.00619783                           
I       35.46259810       9.79562946      12.00619302                           
I       32.01382505       8.06536928      12.00620106                           
Cr      29.80023411      15.88169122      17.03520929                           
Cr      26.36177371      17.86693567      17.04368562                           
I       30.79920633      13.89058160      15.50172901                           
I       27.57639144      16.01216496      15.50172980                           
I       24.14815867      17.74240855      15.50174515                           
I       28.80608102      13.89941380      18.57647573                           
I       28.58060936      17.73383362      18.57647595                           
I       25.13706685      16.01190156      18.57646027                           
Cr     33.23873511      13.89651700      10.46423698                            
Cr     29.80022038      15.88170482      10.47271549                            
I       34.23290587      11.90838708       8.93147663                           
I       31.01989758      14.02959691       8.93145308                           
I       27.58642739      15.75152855       8.93144278                           
I       32.23978964      11.91723184      12.00619783                           
I       32.02410709      15.75127059      12.00619302                           
I       28.57533404      14.02101041      12.00620106                           
Cr      26.36174310      21.83733235      17.03520929                           
Cr      22.92328270      23.82257680      17.04368562                           
I       27.36071532      19.84622273      15.50172901                           
I       24.13790043      21.96780609      15.50172980                           
I       20.70966766      23.69804968      15.50174515                           
I       25.36759001      19.85505493      18.57647573                           
I       25.14211835      23.68947476      18.57647595                           
I       21.69857584      21.96754269      18.57646027                           
Cr     29.80024410      19.85215813      10.46423698                            
Cr     26.36172937      21.83734595      10.47271549                            
I       30.79441485      17.86402821       8.93147663                           
I       27.58140657      19.98523804       8.93145308                           
I       24.14793638      21.70716968       8.93144278                           
I       28.80129863      17.87287297      12.00619783                           
I       28.58561608      21.70691172      12.00619302                           
I       25.13684303      19.97665154      12.00620106                           
Cr      22.92325209      27.79297348      17.03520929                           
Cr      19.48479168      29.77821793      17.04368562                           
I       23.92222431      25.80186386      15.50172901                           
I       20.69940942      27.92344722      15.50172980                           
I       17.27117665      29.65369082      15.50174515                           
I       21.92909899      25.81069606      18.57647573                           
I       21.70362734      29.64511589      18.57647595                           
I       18.26008483      27.92318382      18.57646027                           
Cr     26.36175309      25.80779926      10.46423698                            
Cr     22.92323835      27.79298708      10.47271549                            
I       27.35592384      23.81966934       8.93147663                           
I       24.14291556      25.94087917       8.93145308                           
I       20.70944537      27.66281081       8.93144278                           
I       25.36280762      23.82851411      12.00619783                           
I       25.14712507      27.66255286      12.00619302                           
I       21.69835202      25.93229268      12.00620106                           
Cr      19.48476108      33.74861461      17.03520929                           
Cr      16.04630067      35.73385906      17.04368562                           
I       20.48373330      31.75750499      15.50172901                           
I       17.26091841      33.87908835      15.50172980                           
I       13.83268564      35.60933195      15.50174515                           
I       18.49060798      31.76633719      18.57647573                           
I       18.26513633      35.60075702      18.57647595                           
I       14.82159382      33.87882495      18.57646027                           
Cr     22.92326208      31.76344039      10.46423698                            
Cr     19.48474734      33.74862822      10.47271549                            
I       23.91743283      29.77531047       8.93147663                           
I       20.70442455      31.89652031       8.93145308                           
I       17.27095436      33.61845194       8.93144278                           
I       21.92431661      29.78415524      12.00619783                           
I       21.70863405      33.61819399      12.00619302                           
I       18.25986101      31.88793381      12.00620106                           
%ENDBLOCK POSITIONS_ABS                                                         
%BLOCK SPECIES                                                                  
Cr Cr 24 -1 15                                                                  
I   I  53 -1 15                                                                 
%ENDBLOCK SPECIES                                                               
%BLOCK SPECIES_ATOMIC_SET                                                       
Cr "SOLVE INIT SPIN=3"                                                          
I   "SOLVE"                                                                     
%ENDBLOCK SPECIES_ATOMIC_SET                                                    
%BLOCK HUBBARD                                                                  
Cr  2 2.97 0.37 -10.0 0.00 0.0                                                  
%ENDBLOCK HUBBARD                                                               
%BLOCK SPECIES_LDOS_GROUPS                                                      
Cr                                                                              
I                                                                               
%ENDBLOCK SPECIES_LDOS_GROUPS                                                   
%BLOCK SPECIES_POT                                                              
Cr  "../../../../Cr.PBE-paw.abinit"                                             
I   "../../../../I.PBE-paw.abinit"                                              
%ENDBLOCK SPECIES_POT                                                           

--------------------------------------------------------------------------------
-------------------------------- END INPUT FILE --------------------------------
--------------------------------------------------------------------------------


 
 ESDF WARNING(1): "charge" (esdf_physical) has no units. Assume "e".
<<<<<<<<<<<<<<<<<<<<<<<<<<<<<<<<< Full system >>>>>>>>>>>>>>>>>>>>>>>>>>>>>>>>>>
<<<<<<<<<<<<<<<<<<<<<<<<<<< PAW Dataset information >>>>>>>>>>>>>>>>>>>>>>>>>>>
File: ../../../../Cr.PBE-paw.abinit; rc = 2.11 bohr; shape type =  2; rshape = 1.80 bohr;
  Atomic number: 24;  ionic charge: 14.000000
    Partial Wave 1: l = 0
    Partial Wave 2: l = 0
    Partial Wave 3: l = 1
    Partial Wave 4: l = 1
    Partial Wave 5: l = 2
    Partial Wave 6: l = 2
  Core charge supplied for Nonlinear Core Corrections
File: ../../../../I.PBE-paw.abinit; rc = 2.30 bohr; shape type =  2; rshape = 2.11 bohr;
  Atomic number: 53;  ionic charge:  7.000000
    Partial Wave 1: l = 0
    Partial Wave 2: l = 0
    Partial Wave 3: l = 1
    Partial Wave 4: l = 1
  Core charge supplied for Nonlinear Core Corrections
<<<<<<<<<<<<<<<<<<<<<<<<<<<<<<<<<<<<<<< >>>>>>>>>>>>>>>>>>>>>>>>>>>>>>>>>>>>>>>

-------------------------- Atom counting information ---------------------------
Symbol    Natoms    Nngwfs    Nprojs
  Cr       144      1872      2592
  I        432      1728      3456
.......   ......    ......    ......
Totals:    576      3600      6048
--------------------------------------------------------------------------------

=============================== PSINC grid sizes ===============================
                      Simulation cell:  175 x 175 x 117
                              FFT-box:  175 x 175 x 117
                                  PPD:    5 x   5 x   1
Grid space d1=  0.445563862424a0 (KE cutoff=  38.26345Eh =1041.20135eV)
Grid space d2=  0.445563862400a0 (KE cutoff=  38.26345Eh =1041.20135eV)
Grid space d3=  0.444294449711a0 (KE cutoff=  38.48241Eh =1047.15957eV)
================================================================================

********************* Fourier parallelisation information **********************
       Coarse grid (whole simulation cell) dimensions:    175   175   117
          Real-space ('12') slabs/proc (min max mean):      0     1     0
         Recip-space ('23') slabs/proc (min max mean):      0     1     0
********************************************************************************

********************* Fourier parallelisation information **********************
       Double grid (whole simulation cell) dimensions:    350   350   234
          Real-space ('12') slabs/proc (min max mean):      1     2     1
         Recip-space ('23') slabs/proc (min max mean):      1     2     1
********************************************************************************

********************* Fourier parallelisation information **********************
         Fine grid (whole simulation cell) dimensions:    700   700   468
          Real-space ('12') slabs/proc (min max mean):      3     4     3
         Recip-space ('23') slabs/proc (min max mean):      2     3     2
********************************************************************************
energy_and_force_init_cell: WARNING in internal_setup_spin:
        even number of electrons in cell and zero spin
        but continuing with spin-polarised calculation

Atom SCF Calculation for Cr : Z (AE atom) =  24 : Z (PS atom) =  14
Config String: 3s2.0 3p6.0 3d5.0 4s1.0 4p0.0 INIT SPIN=3
Orbitals (num,occ):  5     2.00 6.00 5.00 1.00 0.00
Orbitals   (num,l):  5        0    1    2    0    1
Atom SCF converged after  64 iterations to a total energy of    -87.07044631
Adjusting orbital occupancies:
Orbitals (num,spin,occ):  5  1     1.00 3.00 3.50 1.00 0.00
Orbitals   (num,spin,l):  5  1        0    1    2    0    1
Orbitals (num,spin,occ):  5  2     1.00 3.00 1.00 0.50 0.00
Orbitals   (num,spin,l):  5  2        0    1    2    0    1

Atom SCF Calculation for I  : Z (AE atom) =  53 : Z (PS atom) =   7
Config String: 5s2.0 5p5.0
Orbitals (num,occ):  2     2.00 5.00
Orbitals   (num,l):  2        0    1
Atom SCF converged after  28 iterations to a total energy of    -11.61352964

Atom SCF Calculation for Cr : Z (AE atom) =  24 : Z (PS atom) =  14
Config String: 3s2.0 3p6.0 3d5.0 4s1.0 4p0.0 INIT SPIN=3
Orbitals (num,occ):  5     2.00 6.00 5.00 1.00 0.00
Orbitals   (num,l):  5        0    1    2    0    1
Atom SCF converged after  64 iterations to a total energy of    -87.07044631

Atom SCF Calculation for I  : Z (AE atom) =  53 : Z (PS atom) =   7
Config String: 5s2.0 5p5.0
Orbitals (num,occ):  2     2.00 5.00
Orbitals   (num,l):  2        0    1
Atom SCF converged after  28 iterations to a total energy of    -11.61352964

Determining parallel strategy ...... done
Calculating Ewald energy ...            31583.245177 Hartree
Basis initialisation ...
... done

============================= Charge Augmentation ==============================
                           Aug box size:   49 x  49 x  45
================================================================================
Sparse matrix initialisation ...
 done

Reading NGWFs from file "Cr2I6_bilayer_LT_FM_AFM_SP.tightbox_ngwfs" ... done
 done

================================= Core Density =================================
               Core den box size:  125 x 125 x 105
================================================================================

Reading density kernel from file "Cr2I6_bilayer_LT_FM_AFM_SP.dkn" ... done

>>> Optimising kernel for current NGWFs:


>>> Density kernel optimised for the current NGWF basis:
     ~~~~~~~~~~~~~~~~~~~~~~~~~~~~~~~~~~~~~~~~~~~~~~~~~~~~~~~~~~~
     Total energy                =  -1.76310614653813E+04  Eh
     Estimated bandgap (UP spin) =  -7.5232E-03  Eh
     Estimated bandgap (DN spin) =   4.4562E-02  Eh
     RMS occupancy error         =   1.7940E-03
     [H,K] commutator            =   2.9837E-06
     UP spin occupancy bounds    = [  0.002:  1.003]
     DN spin occupancy bounds    = [  0.000:  1.000]
     ~~~~~~~~~~~~~~~~~~~~~~~~~~~~~~~~~~~~~~~~~~~~~~~~~~~~~~~~~~~




################################################################################
########################### NGWF CG iteration  001 #############################
################################################################################

>>> Checking for convergence of NGWFs:   NOT CONVERGED
  ========================================================================
         NGWF RMS gradient =  1.1589E-05 >  1.0000E-06  | above tolerance
  ========================================================================

>>> Improving NGWFs using line search:
  ========================================================================
   Predicted total energy    =      -1.76310911021642E+04 Eh
   Predicted gain in energy  =      -2.96367829469091E-02 Eh
  ========================================================================

Writing NGWFs to file "Cr2I6_bilayer_LT_FM_AFM_SP.tightbox_ngwfs".... done

>>> Optimising kernel for current NGWFs:
   iter  |      energy (Eh)       | rms gradient |  commutator  |   dE (Eh)
    1        -1.763104415299E+04     3.3120E-04     2.8689E-06
    2        -1.763104417010E+04     3.3120E-04     2.7674E-06    -1.7104E-05
    3        -1.763104418637E+04     3.3119E-04     2.6964E-06    -1.6274E-05
    4        -1.763104420196E+04     3.3119E-04     2.6401E-06    -1.5596E-05
    5        -1.763104421702E+04     3.3119E-04     2.5939E-06    -1.5054E-05
Finished density kernel iterations (   5)

Writing density kernel to file "Cr2I6_bilayer_LT_FM_AFM_SP.dkn" ... done


>>> Density kernel optimised for the current NGWF basis:
     ~~~~~~~~~~~~~~~~~~~~~~~~~~~~~~~~~~~~~~~~~~~~~~~~~~~~~~~~~~~
     Total energy                =  -1.76310442170184E+04  Eh
     Estimated bandgap (UP spin) =  -7.5593E-03  Eh
     Estimated bandgap (DN spin) =   4.4458E-02  Eh
     RMS occupancy error         =   1.5727E-03
     [H,K] commutator            =   2.5939E-06
     UP spin occupancy bounds    = [  0.002:  1.002]
     DN spin occupancy bounds    = [ -0.000:  1.000]
     ~~~~~~~~~~~~~~~~~~~~~~~~~~~~~~~~~~~~~~~~~~~~~~~~~~~~~~~~~~~




################################################################################
########################### NGWF CG iteration  002 #############################
################################################################################

>>> Checking for convergence of NGWFs:   NOT CONVERGED
  ========================================================================
         NGWF RMS gradient =  1.2996E-05 >  1.0000E-06  | above tolerance
  Maximum change in energy =  2.9945E-05 >  1.0000E-07  | above tolerance
  ========================================================================

>>> Improving NGWFs using line search:
WARNING in services_cubic_fit_minimum:
  cubic step (  -23.07600) less than zero - setting to safe value
  ========================================================================
   Predicted total energy    =      -1.76408195648310E+04 Eh
   Predicted gain in energy  =      -9.77534781267605E+00 Eh
  ========================================================================

Writing NGWFs to file "Cr2I6_bilayer_LT_FM_AFM_SP.tightbox_ngwfs".... done

>>> Optimising kernel for current NGWFs:
   iter  |      energy (Eh)       | rms gradient |  commutator  |   dE (Eh)
    1        -1.763104436213E+04     3.3119E-04     2.7787E-06
    2        -1.763104437803E+04     3.3119E-04     2.7259E-06    -1.5902E-05
    3        -1.763104439346E+04     3.3119E-04     2.6713E-06    -1.5423E-05
    4        -1.763104440844E+04     3.3119E-04     2.6210E-06    -1.4981E-05
    5        -1.763104442302E+04     3.3118E-04     2.5776E-06    -1.4581E-05
    6        -1.763104443725E+04     3.3118E-04     2.5413E-06    -1.4228E-05
Finished density kernel iterations (   6)

Writing density kernel to file "Cr2I6_bilayer_LT_FM_AFM_SP.dkn" ... done


>>> Density kernel optimised for the current NGWF basis:
     ~~~~~~~~~~~~~~~~~~~~~~~~~~~~~~~~~~~~~~~~~~~~~~~~~~~~~~~~~~~
     Total energy                =  -1.76310444372481E+04  Eh
     Estimated bandgap (UP spin) =  -7.5483E-03  Eh
     Estimated bandgap (DN spin) =   4.4485E-02  Eh
     RMS occupancy error         =   1.5727E-03
     [H,K] commutator            =   2.5413E-06
     UP spin occupancy bounds    = [  0.002:  1.002]
     DN spin occupancy bounds    = [ -0.000:  1.000]
     ~~~~~~~~~~~~~~~~~~~~~~~~~~~~~~~~~~~~~~~~~~~~~~~~~~~~~~~~~~~




################################################################################
########################### NGWF CG iteration  003 #############################
################################################################################

>>> Checking for convergence of NGWFs:   NOT CONVERGED
  ========================================================================
         NGWF RMS gradient =  1.2996E-05 >  1.0000E-06  | above tolerance
  Maximum change in energy =  2.9945E-05 >  1.0000E-07  | above tolerance
  ========================================================================

>>> Improving NGWFs using line search:
Resetting NGWF CG
  ========================================================================
   Predicted total energy    =      -1.76310624322706E+04 Eh
   Predicted gain in energy  =      -1.79950224519416E-02 Eh
  ========================================================================

Writing NGWFs to file "Cr2I6_bilayer_LT_FM_AFM_SP.tightbox_ngwfs".... done

>>> Optimising kernel for current NGWFs:
   iter  |      energy (Eh)       | rms gradient |  commutator  |   dE (Eh)
    1        -1.763104463037E+04     3.3117E-04     2.7555E-06
    2        -1.763104464556E+04     3.3117E-04     2.6761E-06    -1.5192E-05
    3        -1.763104466018E+04     3.3117E-04     2.6171E-06    -1.4622E-05
    4        -1.763104467435E+04     3.3117E-04     2.5719E-06    -1.4168E-05
    5        -1.763104468815E+04     3.3117E-04     2.5360E-06    -1.3796E-05
    6        -1.763104470163E+04     3.3117E-04     2.5062E-06    -1.3485E-05
    7        -1.763104471486E+04     3.3117E-04     2.4807E-06    -1.3222E-05
Finished density kernel iterations (   7)

Writing density kernel to file "Cr2I6_bilayer_LT_FM_AFM_SP.dkn" ... done


>>> Density kernel optimised for the current NGWF basis:
     ~~~~~~~~~~~~~~~~~~~~~~~~~~~~~~~~~~~~~~~~~~~~~~~~~~~~~~~~~~~
     Total energy                =  -1.76310447148555E+04  Eh
     Estimated bandgap (UP spin) =  -7.5308E-03  Eh
     Estimated bandgap (DN spin) =   4.4499E-02  Eh
     RMS occupancy error         =   1.5727E-03
     [H,K] commutator            =   2.4807E-06
     UP spin occupancy bounds    = [  0.002:  1.002]
     DN spin occupancy bounds    = [  0.000:  1.000]
     ~~~~~~~~~~~~~~~~~~~~~~~~~~~~~~~~~~~~~~~~~~~~~~~~~~~~~~~~~~~




################################################################################
########################### NGWF CG iteration  004 #############################
################################################################################

>>> Checking for convergence of NGWFs:   NOT CONVERGED
  ========================================================================
         NGWF RMS gradient =  1.2988E-05 >  1.0000E-06  | above tolerance
  Maximum change in energy =  4.8196E-07 >  1.0000E-07  | above tolerance
  ========================================================================

>>> Improving NGWFs using line search:
  ========================================================================
   Predicted total energy    =      -1.76310627539815E+04 Eh
   Predicted gain in energy  =      -1.80391259673343E-02 Eh
  ========================================================================

Writing NGWFs to file "Cr2I6_bilayer_LT_FM_AFM_SP.tightbox_ngwfs".... done

>>> Optimising kernel for current NGWFs:
   iter  |      energy (Eh)       | rms gradient |  commutator  |   dE (Eh)
    1        -1.763104488554E+04     3.3115E-04     2.6834E-06
    2        -1.763104489984E+04     3.3115E-04     2.6165E-06    -1.4304E-05
    3        -1.763104491369E+04     3.3115E-04     2.5671E-06    -1.3847E-05
    4        -1.763104492717E+04     3.3115E-04     2.5295E-06    -1.3484E-05
    5        -1.763104494036E+04     3.3115E-04     2.4995E-06    -1.3188E-05
    6        -1.763104495330E+04     3.3115E-04     2.4745E-06    -1.2940E-05
    7        -1.763104496603E+04     3.3115E-04     2.4530E-06    -1.2729E-05
    8        -1.763104497861E+04     3.3115E-04     2.4329E-06    -1.2589E-05
Finished density kernel iterations (   8)

Writing density kernel to file "Cr2I6_bilayer_LT_FM_AFM_SP.dkn" ... done


>>> Density kernel optimised for the current NGWF basis:
     ~~~~~~~~~~~~~~~~~~~~~~~~~~~~~~~~~~~~~~~~~~~~~~~~~~~~~~~~~~~
     Total energy                =  -1.76310449786148E+04  Eh
     Estimated bandgap (UP spin) =  -7.5156E-03  Eh
     Estimated bandgap (DN spin) =   4.4486E-02  Eh
     RMS occupancy error         =   1.5727E-03
     [H,K] commutator            =   2.4329E-06
     UP spin occupancy bounds    = [  0.002:  1.002]
     DN spin occupancy bounds    = [ -0.000:  1.000]
     ~~~~~~~~~~~~~~~~~~~~~~~~~~~~~~~~~~~~~~~~~~~~~~~~~~~~~~~~~~~




################################################################################
########################### NGWF CG iteration  005 #############################
################################################################################

>>> Checking for convergence of NGWFs:   NOT CONVERGED
  ========================================================================
         NGWF RMS gradient =  1.2983E-05 >  1.0000E-06  | above tolerance
  Maximum change in energy =  4.8196E-07 >  1.0000E-07  | above tolerance
  ========================================================================

>>> Improving NGWFs using line search:
  ========================================================================
   Predicted total energy    =      -1.76310630315130E+04 Eh
   Predicted gain in energy  =      -1.80528981072712E-02 Eh
  ========================================================================

Writing NGWFs to file "Cr2I6_bilayer_LT_FM_AFM_SP.tightbox_ngwfs".... done

>>> Optimising kernel for current NGWFs:
   iter  |      energy (Eh)       | rms gradient |  commutator  |   dE (Eh)
    1        -1.763104513841E+04     3.3114E-04     2.6315E-06
    2        -1.763104515211E+04     3.3114E-04     2.5670E-06    -1.3702E-05
    3        -1.763104516539E+04     3.3114E-04     2.5224E-06    -1.3276E-05
    4        -1.763104517834E+04     3.3114E-04     2.4904E-06    -1.2949E-05
    5        -1.763104519103E+04     3.3114E-04     2.4660E-06    -1.2693E-05
    6        -1.763104520352E+04     3.3114E-04     2.4461E-06    -1.2487E-05
    7        -1.763104521584E+04     3.3114E-04     2.4288E-06    -1.2317E-05
    8        -1.763104522811E+04     3.3114E-04     2.4098E-06    -1.2272E-05
    9        -1.763104524025E+04     3.3114E-04     2.3955E-06    -1.2139E-05
Finished density kernel iterations (   9)

Writing density kernel to file "Cr2I6_bilayer_LT_FM_AFM_SP.dkn" ... done


>>> Density kernel optimised for the current NGWF basis:
     ~~~~~~~~~~~~~~~~~~~~~~~~~~~~~~~~~~~~~~~~~~~~~~~~~~~~~~~~~~~
     Total energy                =  -1.76310452402478E+04  Eh
     Estimated bandgap (UP spin) =  -7.5031E-03  Eh
     Estimated bandgap (DN spin) =   4.4504E-02  Eh
     RMS occupancy error         =   1.5727E-03
     [H,K] commutator            =   2.3955E-06
     UP spin occupancy bounds    = [  0.002:  1.002]
     DN spin occupancy bounds    = [  0.000:  1.000]
     ~~~~~~~~~~~~~~~~~~~~~~~~~~~~~~~~~~~~~~~~~~~~~~~~~~~~~~~~~~~




################################################################################
########################### NGWF CG iteration  006 #############################
################################################################################

>>> Checking for convergence of NGWFs:   NOT CONVERGED
  ========================================================================
         NGWF RMS gradient =  1.2981E-05 >  1.0000E-06  | above tolerance
  Maximum change in energy =  4.5792E-07 >  1.0000E-07  | above tolerance
  ========================================================================

>>> Improving NGWFs using line search:
  ========================================================================
   Predicted total energy    =      -1.76310632815890E+04 Eh
   Predicted gain in energy  =      -1.80413411981135E-02 Eh
  ========================================================================

Writing NGWFs to file "Cr2I6_bilayer_LT_FM_AFM_SP.tightbox_ngwfs".... done

>>> Optimising kernel for current NGWFs:
   iter  |      energy (Eh)       | rms gradient |  commutator  |   dE (Eh)
    1        -1.763104539614E+04     3.3113E-04     2.5874E-06
    2        -1.763104540937E+04     3.3113E-04     2.5232E-06    -1.3227E-05
    3        -1.763104542218E+04     3.3113E-04     2.4821E-06    -1.2811E-05
    4        -1.763104543469E+04     3.3113E-04     2.4549E-06    -1.2509E-05
    5        -1.763104544697E+04     3.3113E-04     2.4354E-06    -1.2285E-05
    6        -1.763104545909E+04     3.3113E-04     2.4199E-06    -1.2114E-05
    7        -1.763104547107E+04     3.3113E-04     2.4064E-06    -1.1979E-05
    8        -1.763104548308E+04     3.3113E-04     2.3881E-06    -1.2014E-05
    9        -1.763104549497E+04     3.3113E-04     2.3752E-06    -1.1887E-05
   10        -1.763104550675E+04     3.3113E-04     2.3655E-06    -1.1784E-05
Finished density kernel iterations (  10)

Writing density kernel to file "Cr2I6_bilayer_LT_FM_AFM_SP.dkn" ... done


>>> Density kernel optimised for the current NGWF basis:
     ~~~~~~~~~~~~~~~~~~~~~~~~~~~~~~~~~~~~~~~~~~~~~~~~~~~~~~~~~~~
     Total energy                =  -1.76310455067498E+04  Eh
     Estimated bandgap (UP spin) =  -7.4582E-03  Eh
     Estimated bandgap (DN spin) =   4.4466E-02  Eh
     RMS occupancy error         =   1.5727E-03
     [H,K] commutator            =   2.3655E-06
     UP spin occupancy bounds    = [  0.002:  1.002]
     DN spin occupancy bounds    = [ -0.000:  1.000]
     ~~~~~~~~~~~~~~~~~~~~~~~~~~~~~~~~~~~~~~~~~~~~~~~~~~~~~~~~~~~




################################################################################
########################### NGWF CG iteration  007 #############################
[...]
   iter  |      energy (Eh)       | rms gradient |  commutator  |   dE (Eh)
    1        -1.763105235809E+04     3.3090E-04     2.2654E-06
    2        -1.763105236849E+04     3.3090E-04     2.2098E-06    -1.0395E-05
    3        -1.763105237856E+04     3.3090E-04     2.1828E-06    -1.0072E-05
    4        -1.763105238843E+04     3.3090E-04     2.1714E-06    -9.8769E-06
    5        -1.763105239820E+04     3.3090E-04     2.1671E-06    -9.7622E-06
    6        -1.763105240789E+04     3.3090E-04     2.1650E-06    -9.6965E-06
    7        -1.763105241755E+04     3.3090E-04     2.1627E-06    -9.6575E-06
    8        -1.763105242737E+04     3.3090E-04     2.1482E-06    -9.8180E-06
    9        -1.763105243709E+04     3.3090E-04     2.1406E-06    -9.7260E-06
   10        -1.763105244676E+04     3.3090E-04     2.1366E-06    -9.6628E-06
   11        -1.763105245637E+04     3.3090E-04     2.1343E-06    -9.6135E-06
   12        -1.763105246594E+04     3.3090E-04     2.1325E-06    -9.5730E-06
   13        -1.763105247548E+04     3.3090E-04     2.1306E-06    -9.5385E-06
   14        -1.763105248500E+04     3.3090E-04     2.1261E-06    -9.5223E-06
   15        -1.763105249450E+04     3.3090E-04     2.1232E-06    -9.4961E-06
Finished density kernel iterations (  15)

Writing density kernel to file "Cr2I6_bilayer_LT_FM_AFM_SP.dkn" ... done


>>> Density kernel optimised for the current NGWF basis:
     ~~~~~~~~~~~~~~~~~~~~~~~~~~~~~~~~~~~~~~~~~~~~~~~~~~~~~~~~~~~
     Total energy                =  -1.76310524945007E+04  Eh
     Estimated bandgap (UP spin) =  -6.9293E-03  Eh
     Estimated bandgap (DN spin) =   4.4332E-02  Eh
     RMS occupancy error         =   1.5727E-03
     [H,K] commutator            =   2.1232E-06
     UP spin occupancy bounds    = [  0.002:  1.002]
     DN spin occupancy bounds    = [  0.000:  1.000]
     ~~~~~~~~~~~~~~~~~~~~~~~~~~~~~~~~~~~~~~~~~~~~~~~~~~~~~~~~~~~




################################################################################
########################### NGWF CG iteration  032 #############################
################################################################################

>>> Checking for convergence of NGWFs:   NOT CONVERGED
  ========================================================================
         NGWF RMS gradient =  1.2966E-05 >  1.0000E-06  | above tolerance
  Maximum change in energy =  4.1305E-07 >  1.0000E-07  | above tolerance
  ========================================================================

>>> Improving NGWFs using line search:
  ========================================================================
   Predicted total energy    =      -1.76310704892277E+04 Eh
   Predicted gain in energy  =      -1.79947269934928E-02 Eh
  ========================================================================

Writing NGWFs to file "Cr2I6_bilayer_LT_FM_AFM_SP.tightbox_ngwfs".... done

>>> Optimising kernel for current NGWFs:
   iter  |      energy (Eh)       | rms gradient |  commutator  |   dE (Eh)
    1        -1.763105259070E+04     3.3089E-04     2.2593E-06
    2        -1.763105260104E+04     3.3089E-04     2.2035E-06    -1.0342E-05
    3        -1.763105261106E+04     3.3089E-04     2.1765E-06    -1.0018E-05
    4        -1.763105262088E+04     3.3089E-04     2.1650E-06    -9.8221E-06
    5        -1.763105263059E+04     3.3089E-04     2.1608E-06    -9.7074E-06
    6        -1.763105264023E+04     3.3089E-04     2.1587E-06    -9.6418E-06
    7        -1.763105264984E+04     3.3089E-04     2.1564E-06    -9.6033E-06
    8        -1.763105265960E+04     3.3089E-04     2.1419E-06    -9.7639E-06
    9        -1.763105266927E+04     3.3089E-04     2.1343E-06    -9.6718E-06
   10        -1.763105267888E+04     3.3089E-04     2.1303E-06    -9.6085E-06
   11        -1.763105268844E+04     3.3089E-04     2.1280E-06    -9.5593E-06
   12        -1.763105269796E+04     3.3089E-04     2.1262E-06    -9.5190E-06
   13        -1.763105270744E+04     3.3089E-04     2.1243E-06    -9.4846E-06
   14        -1.763105271691E+04     3.3089E-04     2.1198E-06    -9.4685E-06
   15        -1.763105272635E+04     3.3089E-04     2.1169E-06    -9.4422E-06
Finished density kernel iterations (  15)

Writing density kernel to file "Cr2I6_bilayer_LT_FM_AFM_SP.dkn" ... done


>>> Density kernel optimised for the current NGWF basis:
     ~~~~~~~~~~~~~~~~~~~~~~~~~~~~~~~~~~~~~~~~~~~~~~~~~~~~~~~~~~~
     Total energy                =  -1.76310527263529E+04  Eh
     Estimated bandgap (UP spin) =  -6.8772E-03  Eh
     Estimated bandgap (DN spin) =   4.4378E-02  Eh
     RMS occupancy error         =   1.5727E-03
     [H,K] commutator            =   2.1169E-06
     UP spin occupancy bounds    = [  0.002:  1.002]
     DN spin occupancy bounds    = [ -0.000:  1.000]
     ~~~~~~~~~~~~~~~~~~~~~~~~~~~~~~~~~~~~~~~~~~~~~~~~~~~~~~~~~~~




################################################################################
########################### NGWF CG iteration  033 #############################
################################################################################

>>> Checking for convergence of NGWFs:   NOT CONVERGED
  ========================================================================
         NGWF RMS gradient =  1.2966E-05 >  1.0000E-06  | above tolerance
  Maximum change in energy =  4.0768E-07 >  1.0000E-07  | above tolerance
  ========================================================================

>>> Improving NGWFs using line search:
  ========================================================================
   Predicted total energy    =      -1.76310707420577E+04 Eh
   Predicted gain in energy  =      -1.80157048416731E-02 Eh
  ========================================================================

Writing NGWFs to file "Cr2I6_bilayer_LT_FM_AFM_SP.tightbox_ngwfs".... done

>>> Optimising kernel for current NGWFs:
   iter  |      energy (Eh)       | rms gradient |  commutator  |   dE (Eh)
    1        -1.763105282019E+04     3.3088E-04     2.2533E-06
    2        -1.763105283048E+04     3.3088E-04     2.1973E-06    -1.0288E-05
    3        -1.763105284044E+04     3.3088E-04     2.1702E-06    -9.9640E-06
    4        -1.763105285021E+04     3.3088E-04     2.1587E-06    -9.7684E-06
    5        -1.763105285986E+04     3.3088E-04     2.1545E-06    -9.6538E-06
    6        -1.763105286945E+04     3.3088E-04     2.1525E-06    -9.5884E-06
    7        -1.763105287900E+04     3.3088E-04     2.1502E-06    -9.5500E-06
    8        -1.763105288871E+04     3.3088E-04     2.1356E-06    -9.7104E-06
    9        -1.763105289833E+04     3.3088E-04     2.1280E-06    -9.6181E-06
   10        -1.763105290788E+04     3.3088E-04     2.1240E-06    -9.5550E-06
   11        -1.763105291739E+04     3.3088E-04     2.1217E-06    -9.5057E-06
   12        -1.763105292686E+04     3.3088E-04     2.1199E-06    -9.4656E-06
   13        -1.763105293629E+04     3.3088E-04     2.1180E-06    -9.4313E-06
   14        -1.763105294570E+04     3.3088E-04     2.1135E-06    -9.4152E-06
   15        -1.763105295509E+04     3.3088E-04     2.1106E-06    -9.3889E-06
Finished density kernel iterations (  15)

Writing density kernel to file "Cr2I6_bilayer_LT_FM_AFM_SP.dkn" ... done


>>> Density kernel optimised for the current NGWF basis:
     ~~~~~~~~~~~~~~~~~~~~~~~~~~~~~~~~~~~~~~~~~~~~~~~~~~~~~~~~~~~
     Total energy                =  -1.76310529550906E+04  Eh
     Estimated bandgap (UP spin) =  -6.8860E-03  Eh
     Estimated bandgap (DN spin) =   4.4442E-02  Eh
     RMS occupancy error         =   1.5727E-03
     [H,K] commutator            =   2.1106E-06
     UP spin occupancy bounds    = [  0.002:  1.002]
     DN spin occupancy bounds    = [  0.000:  1.000]
     ~~~~~~~~~~~~~~~~~~~~~~~~~~~~~~~~~~~~~~~~~~~~~~~~~~~~~~~~~~~




################################################################################
########################### NGWF CG iteration  034 #############################
################################################################################

>>> Checking for convergence of NGWFs:   NOT CONVERGED
  ========================================================================
         NGWF RMS gradient =  1.2965E-05 >  1.0000E-06  | above tolerance
  Maximum change in energy =  4.0252E-07 >  1.0000E-07  | above tolerance
  ========================================================================

>>> Improving NGWFs using line search:
  ========================================================================
   Predicted total energy    =      -1.76310709602125E+04 Eh
   Predicted gain in energy  =      -1.80051218885637E-02 Eh
  ========================================================================

Writing NGWFs to file "Cr2I6_bilayer_LT_FM_AFM_SP.tightbox_ngwfs".... done

>>> Optimising kernel for current NGWFs:
   iter  |      energy (Eh)       | rms gradient |  commutator  |   dE (Eh)
    1        -1.763105304644E+04     3.3087E-04     2.2469E-06
    2        -1.763105305667E+04     3.3087E-04     2.1909E-06    -1.0233E-05
    3        -1.763105306658E+04     3.3087E-04     2.1638E-06    -9.9092E-06
    4        -1.763105307629E+04     3.3087E-04     2.1524E-06    -9.7141E-06
    5        -1.763105308589E+04     3.3087E-04     2.1482E-06    -9.5999E-06
    6        -1.763105309543E+04     3.3087E-04     2.1462E-06    -9.5349E-06
    7        -1.763105310492E+04     3.3087E-04     2.1439E-06    -9.4967E-06
    8        -1.763105311458E+04     3.3087E-04     2.1294E-06    -9.6564E-06
    9        -1.763105312414E+04     3.3087E-04     2.1217E-06    -9.5642E-06
   10        -1.763105313364E+04     3.3087E-04     2.1177E-06    -9.5012E-06
   11        -1.763105314310E+04     3.3087E-04     2.1154E-06    -9.4522E-06
   12        -1.763105315251E+04     3.3087E-04     2.1136E-06    -9.4122E-06
   13        -1.763105316189E+04     3.3087E-04     2.1118E-06    -9.3780E-06
   14        -1.763105317125E+04     3.3087E-04     2.1072E-06    -9.3619E-06
   15        -1.763105318058E+04     3.3087E-04     2.1044E-06    -9.3357E-06
Finished density kernel iterations (  15)

Writing density kernel to file "Cr2I6_bilayer_LT_FM_AFM_SP.dkn" ... done


>>> Density kernel optimised for the current NGWF basis:
     ~~~~~~~~~~~~~~~~~~~~~~~~~~~~~~~~~~~~~~~~~~~~~~~~~~~~~~~~~~~
     Total energy                =  -1.76310531805847E+04  Eh
     Estimated bandgap (UP spin) =  -6.8590E-03  Eh
     Estimated bandgap (DN spin) =   4.4318E-02  Eh
     RMS occupancy error         =   1.5727E-03
     [H,K] commutator            =   2.1044E-06
     UP spin occupancy bounds    = [  0.002:  1.002]
     DN spin occupancy bounds    = [  0.000:  1.000]
     ~~~~~~~~~~~~~~~~~~~~~~~~~~~~~~~~~~~~~~~~~~~~~~~~~~~~~~~~~~~




################################################################################
########################### NGWF CG iteration  035 #############################
################################################################################

>>> Checking for convergence of NGWFs:   NOT CONVERGED
  ========================================================================
         NGWF RMS gradient =  1.2965E-05 >  1.0000E-06  | above tolerance
  Maximum change in energy =  3.9711E-07 >  1.0000E-07  | above tolerance
  ========================================================================

>>> Improving NGWFs using line search:
  ========================================================================
   Predicted total energy    =      -1.76310711146284E+04 Eh
   Predicted gain in energy  =      -1.79340437316569E-02 Eh
  ========================================================================

Writing NGWFs to file "Cr2I6_bilayer_LT_FM_AFM_SP.tightbox_ngwfs".... done

>>> Optimising kernel for current NGWFs:
   iter  |      energy (Eh)       | rms gradient |  commutator  |   dE (Eh)
    1        -1.763105327005E+04     3.3087E-04     2.2385E-06
    2        -1.763105328022E+04     3.3087E-04     2.1834E-06    -1.0168E-05
    3        -1.763105329007E+04     3.3087E-04     2.1568E-06    -9.8511E-06
    4        -1.763105329973E+04     3.3087E-04     2.1455E-06    -9.6594E-06
    5        -1.763105330928E+04     3.3087E-04     2.1414E-06    -9.5471E-06
    6        -1.763105331876E+04     3.3087E-04     2.1394E-06    -9.4829E-06
    7        -1.763105332820E+04     3.3087E-04     2.1372E-06    -9.4449E-06
    8        -1.763105333780E+04     3.3087E-04     2.1228E-06    -9.5997E-06
    9        -1.763105334731E+04     3.3087E-04     2.1152E-06    -9.5090E-06
   10        -1.763105335676E+04     3.3087E-04     2.1113E-06    -9.4467E-06
   11        -1.763105336616E+04     3.3087E-04     2.1090E-06    -9.3983E-06
   12        -1.763105337552E+04     3.3087E-04     2.1072E-06    -9.3586E-06
   13        -1.763105338484E+04     3.3087E-04     2.1054E-06    -9.3246E-06
   14        -1.763105339415E+04     3.3087E-04     2.1009E-06    -9.3080E-06
   15        -1.763105340343E+04     3.3087E-04     2.0981E-06    -9.2821E-06
Finished density kernel iterations (  15)

Writing density kernel to file "Cr2I6_bilayer_LT_FM_AFM_SP.dkn" ... done


>>> Density kernel optimised for the current NGWF basis:
     ~~~~~~~~~~~~~~~~~~~~~~~~~~~~~~~~~~~~~~~~~~~~~~~~~~~~~~~~~~~
     Total energy                =  -1.76310534034299E+04  Eh
     Estimated bandgap (UP spin) =  -6.8543E-03  Eh
     Estimated bandgap (DN spin) =   4.4373E-02  Eh
     RMS occupancy error         =   1.5727E-03
     [H,K] commutator            =   2.0981E-06
     UP spin occupancy bounds    = [  0.002:  1.002]
     DN spin occupancy bounds    = [ -0.000:  1.000]
     ~~~~~~~~~~~~~~~~~~~~~~~~~~~~~~~~~~~~~~~~~~~~~~~~~~~~~~~~~~~




################################################################################
########################### NGWF CG iteration  036 #############################
################################################################################

>>> Checking for convergence of NGWFs:   NOT CONVERGED
  ========================================================================
         NGWF RMS gradient =  1.2965E-05 >  1.0000E-06  | above tolerance
  Maximum change in energy =  3.9148E-07 >  1.0000E-07  | above tolerance
  ========================================================================

>>> Improving NGWFs using line search:
  ========================================================================
   Predicted total energy    =      -1.76310713905927E+04 Eh
   Predicted gain in energy  =      -1.79871627915418E-02 Eh
  ========================================================================

Writing NGWFs to file "Cr2I6_bilayer_LT_FM_AFM_SP.tightbox_ngwfs".... done

>>> Optimising kernel for current NGWFs:
   iter  |      energy (Eh)       | rms gradient |  commutator  |   dE (Eh)
    1        -1.763105349089E+04     3.3086E-04     2.2327E-06
    2        -1.763105350101E+04     3.3086E-04     2.1773E-06    -1.0117E-05
    3        -1.763105351080E+04     3.3086E-04     2.1505E-06    -9.7984E-06
    4        -1.763105352041E+04     3.3086E-04     2.1393E-06    -9.6064E-06
    5        -1.763105352991E+04     3.3086E-04     2.1352E-06    -9.4940E-06
    6        -1.763105353933E+04     3.3086E-04     2.1333E-06    -9.4299E-06
    7        -1.763105354873E+04     3.3086E-04     2.1311E-06    -9.3922E-06
    8        -1.763105355827E+04     3.3086E-04     2.1166E-06    -9.5474E-06
    9        -1.763105356773E+04     3.3086E-04     2.1090E-06    -9.4564E-06
   10        -1.763105357713E+04     3.3086E-04     2.1051E-06    -9.3942E-06
   11        -1.763105358647E+04     3.3086E-04     2.1028E-06    -9.3457E-06
   12        -1.763105359578E+04     3.3086E-04     2.1010E-06    -9.3061E-06
   13        -1.763105360505E+04     3.3086E-04     2.0992E-06    -9.2723E-06
   14        -1.763105361430E+04     3.3086E-04     2.0947E-06    -9.2557E-06
   15        -1.763105362353E+04     3.3086E-04     2.0919E-06    -9.2298E-06
Finished density kernel iterations (  15)

Writing density kernel to file "Cr2I6_bilayer_LT_FM_AFM_SP.dkn" ... done


>>> Density kernel optimised for the current NGWF basis:
     ~~~~~~~~~~~~~~~~~~~~~~~~~~~~~~~~~~~~~~~~~~~~~~~~~~~~~~~~~~~
     Total energy                =  -1.76310536235347E+04  Eh
     Estimated bandgap (UP spin) =  -6.8244E-03  Eh
     Estimated bandgap (DN spin) =   4.4383E-02  Eh
     RMS occupancy error         =   1.5727E-03
     [H,K] commutator            =   2.0919E-06
     UP spin occupancy bounds    = [  0.002:  1.002]
     DN spin occupancy bounds    = [ -0.000:  1.000]
     ~~~~~~~~~~~~~~~~~~~~~~~~~~~~~~~~~~~~~~~~~~~~~~~~~~~~~~~~~~~




################################################################################
########################### NGWF CG iteration  037 #############################
################################################################################

>>> Checking for convergence of NGWFs:   NOT CONVERGED
  ========================================================================
         NGWF RMS gradient =  1.2964E-05 >  1.0000E-06  | above tolerance
  Maximum change in energy =  3.8688E-07 >  1.0000E-07  | above tolerance
  ========================================================================

>>> Improving NGWFs using line search:
  ========================================================================
   Predicted total energy    =      -1.76310716318697E+04 Eh
   Predicted gain in energy  =      -1.80083350060158E-02 Eh
  ========================================================================

Writing NGWFs to file "Cr2I6_bilayer_LT_FM_AFM_SP.tightbox_ngwfs".... done

>>> Optimising kernel for current NGWFs:
   iter  |      energy (Eh)       | rms gradient |  commutator  |   dE (Eh)
    1        -1.763105370885E+04     3.3085E-04     2.2267E-06
    2        -1.763105371891E+04     3.3085E-04     2.1712E-06    -1.0065E-05
    3        -1.763105372866E+04     3.3085E-04     2.1444E-06    -9.7461E-06
    4        -1.763105373821E+04     3.3085E-04     2.1331E-06    -9.5541E-06
    5        -1.763105374765E+04     3.3085E-04     2.1290E-06    -9.4419E-06
    6        -1.763105375703E+04     3.3085E-04     2.1271E-06    -9.3779E-06
    7        -1.763105376637E+04     3.3085E-04     2.1250E-06    -9.3404E-06
    8        -1.763105377587E+04     3.3085E-04     2.1105E-06    -9.4952E-06
    9        -1.763105378527E+04     3.3085E-04     2.1029E-06    -9.4043E-06
   10        -1.763105379461E+04     3.3085E-04     2.0989E-06    -9.3419E-06
   11        -1.763105380391E+04     3.3085E-04     2.0966E-06    -9.2935E-06
   12        -1.763105381316E+04     3.3085E-04     2.0948E-06    -9.2541E-06
   13        -1.763105382238E+04     3.3085E-04     2.0930E-06    -9.2204E-06
   14        -1.763105383158E+04     3.3085E-04     2.0885E-06    -9.2038E-06
   15        -1.763105384076E+04     3.3085E-04     2.0857E-06    -9.1778E-06
Finished density kernel iterations (  15)

Writing density kernel to file "Cr2I6_bilayer_LT_FM_AFM_SP.dkn" ... done


>>> Density kernel optimised for the current NGWF basis:
     ~~~~~~~~~~~~~~~~~~~~~~~~~~~~~~~~~~~~~~~~~~~~~~~~~~~~~~~~~~~
     Total energy                =  -1.76310538407625E+04  Eh
     Estimated bandgap (UP spin) =  -6.8045E-03  Eh
     Estimated bandgap (DN spin) =   4.4391E-02  Eh
     RMS occupancy error         =   1.5727E-03
     [H,K] commutator            =   2.0857E-06
     UP spin occupancy bounds    = [  0.002:  1.002]
     DN spin occupancy bounds    = [  0.000:  1.000]
     ~~~~~~~~~~~~~~~~~~~~~~~~~~~~~~~~~~~~~~~~~~~~~~~~~~~~~~~~~~~




################################################################################
########################### NGWF CG iteration  038 #############################
################################################################################


onetep_launcher: !!! ONETEP finished with an error

************************************************
*** onetep_launcher terminated               ***
************************************************
