==================================================================================
It's Thu 29 May 2025 03:23:20 PM BST.
*** Starting onetep_launcher (node nid003289, PIDs 35271 35272 35273 35274 35275 35276)...
    - ONETEP arguments: Cr2I6_bilayer_LT_FM_FM_SP.dat
    - Current directory: /mnt/lustre/a2fs-work3/work/e89/e89/phsmea/CrI3_onetep_U/U_2.97/LT_FM/LT_FM_FM/sp
    - Launcher executable directory: /mnt/lustre/a2fs-work3/work/e89/e89/phsmea/CrI3_onetep_U/U_2.97/LT_FM/LT_FM_FM/sp
    - (-e) ONETEP executable specified through command-line: /work/e89/e89/phsmea/onetep.archer2_2024_cray
      ... trying /work/e89/e89/phsmea/onetep.archer2_2024_cray
          -> looks OK
*** Setting up environment...
    - (-s) Process stack size: unlimited
    - (-t) OMP_NUM_THREADS: 16
    - (-o) OMP_STACKSIZE: 64M
    - (-c) Maximum core file size: 2048000
    - (-d) decfort_dump_flag: n
    - (-m) I_MPI_OFA_TRANSLATION_CACHE: 0
    - (-m) I_MPI_DAPL_TRANSLATION_CACHE: 0
    - (-m) I_MPI_DAPL_UD_TRANSLATION_CACHE: 0
*** Starting ONETEP...
    - /work/e89/e89/phsmea/onetep.archer2_2024_cray Cr2I6_bilayer_LT_FM_FM_SP.dat
=================================================================================
_________________________________________________________________________________
 +---------------------------------------------------------------+
 |                                                               |
 |        ####### #     # ####### ####### ####### ######         |
 |        #     # ##    # #          #    #       #     #        |
 |        #     # # #   # #          #    #       #     #        |
 |        #     # #  #  # #####      #    #####   ######         |
 |        #     # #   # # #          #    #       #              |
 |        #     # #    ## #          #    #       #              |
 |        ####### #     # #######    #    ####### #              |
 |                                                               |
 |        Linear-Scaling Ab Initio Total Energy Program          |
 |                                                               |
 |          Release for academic collaborators of ODG            |
 |                                             Version 7.3.0     |
 | Remote: git@github.com:Miesaz/onetep_mea.git                  |
 | Local branch: master                                          |
 | Commit ID: 4af45e89288c8df5499704252eec3e032ee3d0c8           |
 | Date: Tue Aug 6 11:28:44 2024 +0100                           |
 | Working tree clean                                            |
 |                                                               |
 +---------------------------------------------------------------+
 |                                                               |
 |  Authors:                                                     |
 |  Jacek Dziedzic, Peter D. Haynes, Nicholas D. M. Hine,        |
 |  Arash A. Mostofi, Mike C. Payne and Chris-Kriton Skylaris    |
 |                                                               |
 |  Contributors:                                                |
 |  J. Aarons, L. Andrinopoulos, P. W. Avraam, R. A. Bell,       |
 |  A. Bhandari, G. A. Bramley, R. J. Charlton, S. J. Clark,     |
 |  R. J. Clements, G. C. Constantinescu, F. Corsetti,           |
 |  N. Corsini, O. Dieguez, S. M. M. Dubois, K. K. B. Duff,      |
 |  J. M. Escartin, M. Escobar Azor, A. Greco,                   |
 |  H. Helal, Q. O. Hill, L. P. Lee, J.-H. Li,                   |
 |  T. Li, E. B. Linscott, G. Moynihan, D. D. O`Regan,           |
 |  O. K. Okan, E. Parkinson, M. J. S. Phipps,                   |
 |  C. J. Pickard, J. C. A. Prentice, M. I. J. Probert,          |
 |  L. E. Ratcliff, M. Robinson, A. Ruiz Serrano,                |
 |  M. dos Santos Dias, J. S. Spencer, E. W. Tait,               |
 |  G. Teobaldi, D. Turban, V. Vitale, K. A. Wilkinson,          |
 |  C. Weber, J. C. Womack, Chengcheng Xiao, N. Yeung,           |
 |  and T. J. Zuehlsdorff.                                       |
 |                                                               |
 |                                   Copyright (c) 2004-2024     |
 |                                                               |
 |  Please cite:                                                 |
 |  "The ONETEP linear-scaling density functional theory program"|
 |   J. Chem. Phys. 152(17) 174111 (2020)                        |
 |                                                               |
 |          in all publications arising from your use of ONETEP. |
 |                                                               |
 +---------------------------------------------------------------+
 |                                                               |
 |   ONETEP is based on developments described in the following  |
 |   publications:                                               |
 |                                                               |
 |  "Nonorthogonal generalized Wannier function pseudopotential  |
 |   plane-wave method".                                         |
 |   C.-K. Skylaris, A. A. Mostofi, P. D. Haynes, O. Dieguez,    |
 |   M. C. Payne.                                                |
 |   Phys. Rev. B 66 035119 (2002).                              |
 |                                                               |
 |  "Preconditioned iterative minimization for linear-scaling    |
 |   electronic structure calculations".                         |
 |   A. A. Mostofi, P. D. Haynes, C.-K. Skylaris, M. C. Payne.   |
 |   J. Chem. Phys. 119(17), pp.8842-8848 (2003).                |
 |                                                               |
 |  "Total-energy calculations on a real space grid with         |
 |   localized functions and a plane-wave basis".                |
 |   A. A. Mostofi, C.-K. Skylaris, P. D. Haynes, M. C. Payne.   |
 |   Comput. Phys. Commun. 147, pp.788-802 (2002).               |
 |                                                               |
 |  "Accurate kinetic energy evaluation in electronic structure  |
 |   calculations with localized functions on real space grids"  |
 |   C.-K. Skylaris, A. A. Mostofi, P. D. Haynes, C. J. Pickard, |
 |   M. C. Payne.                                                |
 |   Comput. Phys. Commun. 140, pp.315-322 (2001).               |
 |                                                               |
 |  "Accurate ionic forces and geometry optimization in linear-  |
 |   scaling density-functional theory with local orbitals"      |
 |   N. D. M. Hine, M. Robinson, P. D. Haynes, C.-K. Skylaris,   |
 |   M. C. Payne, and A. A. Mostofi.                             |
 |   Phys. Rev. B 83 195102 (2011).                              |
 |                                                               |
 +---------------------------------------------------------------+

Job started: 29-05-2025 15:23 (+0100)
 
Reading parameters from file "Cr2I6_bilayer_LT_FM_FM_SP.dat" ...... done

If your calculation crashes here, before "Checking processes and threads..."
is displayed, then your stack size is insufficient.
If so, use "ulimit -s unlimited" at runtime.
You can disable this check with "check_stack_size F".

Checking processes and threads...
      Default threads: 16
   Running with 150 MPI processes.
   There are 6 MPI processes running on the same node as the root process.
   Each MPI process is using: 
               1 threads for simulation cell FFTs.
               1 threads for threaded FFT box operations.
              16 threads for loops over batched FFT box operations.
              16 threads in other parallel regions.
   MPI Interface: S1 (use mpi_f08) (-DMPI -DUSE_MPI_F08).
   MPI_ASYNC_PROTECTS_NONBLOCKING: Yes. MPI_SUBARRAYS_SUPPORTED: Yes.
   FFTW Interface: OMP-capable and MODERN. (-DUSE_MODERN_FFTW specified).
   GPU Interface: None.
   GPU FFT Backend: None.
... done

Basic input checks...... done

Reading geometry and species blocks from file "Cr2I6_bilayer_LT_FM_FM_SP.dat" ...... done


--------------------------------------------------------------------------------
---------------------------------- INPUT FILE ----------------------------------
--------------------------------------------------------------------------------

charge : 0                                                                      
cutoff_energy : 1000 eV                                                         
do_properties : T                                                               
delta_e_conv : F                                                                
edft : F                                                                        
edft_init_maxit : 15                                                            
elec_energy_tol : 1e-07 Ha                                                      
fine_grid_scale : 4                                                             
forces_output_detail : VERBOSE                                                  
MAXIT_LNV     : 15                                                              
MINIT_LNV     : 5                                                               
maxit_ngwf_cg : 100                                                             
ngwf_threshold_orig : 1e-06                                                     
ngwfs_spin_polarized : T                                                        
output_detail : NORMAL                                                          
paw : T                                                                         
read_denskern : F                                                               
read_hamiltonian : F                                                            
read_tightbox_ngwfs : F                                                         
spin : 432                                                                      
spin_polarized : T                                                              
task : SinglePoint                                                              
write_denskern : T                                                              
write_forces : T                                                                
write_hamiltonian : T                                                           
write_tightbox_ngwfs : T                                                        
xc_functional : PBE                                                             
%BLOCK LATTICE_CART                                                             
ang                                                                             
41.261892132    0.000000000    0.000000000                                      
-20.630946066   35.733846792    0.000000000                                     
0.000000000    0.000000000   27.507928088                                       
%ENDBLOCK LATTICE_CART                                                          
%BLOCK POSITIONS_ABS                                                            
ang                                                                             
Cr       2.29230603       3.97040895      17.03520929                           
Cr      -1.14615438       5.95565340      17.04368562                           
I        3.29127824       1.97929933      15.50172901                           
I        0.06846335       4.10088269      15.50172980                           
I       -3.35976942       5.83112629      15.50174515                           
I        1.29815293       1.98813153      18.57647573                           
I        1.07268127       5.82255136      18.57647595                           
I       -2.37086124       4.10061929      18.57646027                           
Cr       5.73080703       1.98523473      10.46423698                           
Cr       2.29229229       3.97042256      10.47271549                           
I        6.72497778      -0.00289519       8.93147663                           
I        3.51196949       2.11831465       8.93145308                           
I        0.07849930       3.84024628       8.93144278                           
I        4.73186155       0.00594958      12.00619783                           
I        4.51617900       3.83998833      12.00619302                           
I        1.06740595       2.10972815      12.00620106                           
Cr      -1.14618498       9.92605008      17.03520929                           
Cr      -4.58464539      11.91129453      17.04368562                           
I       -0.14721277       7.93494046      15.50172901                           
I       -3.37002766      10.05652383      15.50172980                           
I       -6.79826043      11.78676742      15.50174515                           
I       -2.14033808       7.94377266      18.57647573                           
I       -2.36580974      11.77819249      18.57647595                           
I       -5.80935225      10.05626043      18.57646027                           
Cr       2.29231601       7.94087586      10.46423698                           
Cr      -1.14619872       9.92606369      10.47271549                           
I        3.28648677       5.95274594       8.93147663                           
I        0.07347848       8.07395578       8.93145308                           
I       -3.35999171       9.79588741       8.93144278                           
I        1.29337054       5.96159071      12.00619783                           
I        1.07768799       9.79562946      12.00619302                           
I       -2.37108506       8.06536928      12.00620106                           
Cr      -4.58467600      15.88169122      17.03520929                           
Cr      -8.02313640      17.86693567      17.04368562                           
I       -3.58570378      13.89058160      15.50172901                           
I       -6.80851867      16.01216496      15.50172980                           
I      -10.23675144      17.74240855      15.50174515                           
I       -5.57882909      13.89941380      18.57647573                           
I       -5.80430075      17.73383362      18.57647595                           
I       -9.24784326      16.01190156      18.57646027                           
Cr      -1.14617500      13.89651700      10.46423698                           
Cr      -4.58468973      15.88170482      10.47271549                           
I       -0.15200424      11.90838708       8.93147663                           
I       -3.36501253      14.02959691       8.93145308                           
I       -6.79848272      15.75152855       8.93144278                           
I       -2.14512047      11.91723184      12.00619783                           
I       -2.36080302      15.75127059      12.00619302                           
I       -5.80957607      14.02101041      12.00620106                           
Cr      -8.02316701      21.83733235      17.03520929                           
Cr     -11.46162741      23.82257680      17.04368562                           
I       -7.02419479      19.84622273      15.50172901                           
I      -10.24700968      21.96780609      15.50172980                           
I      -13.67524245      23.69804968      15.50174515                           
I       -9.01732010      19.85505493      18.57647573                           
I       -9.24279176      23.68947476      18.57647595                           
I      -12.68633427      21.96754269      18.57646027                           
Cr      -4.58466601      19.85215813      10.46423698                           
Cr      -8.02318074      21.83734595      10.47271549                           
I       -3.59049526      17.86402821       8.93147663                           
I       -6.80350354      19.98523804       8.93145308                           
I      -10.23697373      21.70716968       8.93144278                           
I       -5.58361148      17.87287297      12.00619783                           
I       -5.79929403      21.70691172      12.00619302                           
I       -9.24806708      19.97665154      12.00620106                           
Cr     -11.46165802      27.79297348      17.03520929                           
Cr     -14.90011843      29.77821793      17.04368562                           
I      -10.46268580      25.80186386      15.50172901                           
I      -13.68550069      27.92344722      15.50172980                           
I      -17.11373346      29.65369082      15.50174515                           
I      -12.45581112      25.81069606      18.57647573                           
I      -12.68128277      29.64511589      18.57647595                           
I      -16.12482528      27.92318382      18.57646027                           
Cr      -8.02315702      25.80779926      10.46423698                           
Cr     -11.46167176      27.79298708      10.47271549                           
I       -7.02898627      23.81966934       8.93147663                           
I      -10.24199455      25.94087917       8.93145308                           
I      -13.67546474      27.66281081       8.93144278                           
I       -9.02210249      23.82851411      12.00619783                           
I       -9.23778504      27.66255286      12.00619302                           
I      -12.68655809      25.93229268      12.00620106                           
Cr     -14.90014903      33.74861461      17.03520929                           
Cr     -18.33860944      35.73385906      17.04368562                           
I      -13.90117681      31.75750499      15.50172901                           
I      -17.12399170      33.87908835      15.50172980                           
I      -20.55222447      35.60933195      15.50174515                           
I      -15.89430213      31.76633719      18.57647573                           
I      -16.11977378      35.60075702      18.57647595                           
I      -19.56331629      33.87882495      18.57646027                           
Cr     -11.46164803      31.76344039      10.46423698                           
Cr     -14.90016277      33.74862822      10.47271549                           
I      -10.46747728      29.77531047       8.93147663                           
I      -13.68048556      31.89652031       8.93145308                           
I      -17.11395575      33.61845194       8.93144278                           
I      -12.46059350      29.78415524      12.00619783                           
I      -12.67627606      33.61819399      12.00619302                           
I      -16.12504910      31.88793381      12.00620106                           
Cr       9.16928805       3.97040895      17.03520929                           
Cr       5.73082764       5.95565340      17.04368562                           
I       10.16826026       1.97929933      15.50172901                           
I        6.94544538       4.10088269      15.50172980                           
I        3.51721261       5.83112629      15.50174515                           
I        8.17513495       1.98813153      18.57647573                           
I        7.94966330       5.82255136      18.57647595                           
I        4.50612079       4.10061929      18.57646027                           
Cr      12.60778905       1.98523473      10.46423698                           
Cr       9.16927431       3.97042256      10.47271549                           
I       13.60195980      -0.00289519       8.93147663                           
I       10.38895151       2.11831465       8.93145308                           
I        6.95548132       3.84024628       8.93144278                           
I       11.60884358       0.00594958      12.00619783                           
I       11.39316102       3.83998833      12.00619302                           
I        7.94438798       2.10972815      12.00620106                           
Cr       5.73079704       9.92605008      17.03520929                           
Cr       2.29233663      11.91129453      17.04368562                           
I        6.72976925       7.93494046      15.50172901                           
I        3.50695437      10.05652383      15.50172980                           
I        0.07872159      11.78676742      15.50174515                           
I        4.73664394       7.94377266      18.57647573                           
I        4.51117228      11.77819249      18.57647595                           
I        1.06762977      10.05626043      18.57646027                           
Cr       9.16929804       7.94087586      10.46423698                           
Cr       5.73078330       9.92606369      10.47271549                           
I       10.16346879       5.95274594       8.93147663                           
I        6.95046050       8.07395578       8.93145308                           
I        3.51699031       9.79588741       8.93144278                           
I        8.17035256       5.96159071      12.00619783                           
I        7.95467001       9.79562946      12.00619302                           
I        4.50589697       8.06536928      12.00620106                           
Cr       2.29230603      15.88169122      17.03520929                           
Cr      -1.14615438      17.86693567      17.04368562                           
I        3.29127824      13.89058160      15.50172901                           
I        0.06846335      16.01216496      15.50172980                           
I       -3.35976942      17.74240855      15.50174515                           
I        1.29815293      13.89941380      18.57647573                           
I        1.07268127      17.73383362      18.57647595                           
I       -2.37086124      16.01190156      18.57646027                           
Cr       5.73080703      13.89651700      10.46423698                           
Cr       2.29229229      15.88170482      10.47271549                           
I        6.72497778      11.90838708       8.93147663                           
I        3.51196949      14.02959691       8.93145308                           
I        0.07849930      15.75152855       8.93144278                           
I        4.73186155      11.91723184      12.00619783                           
I        4.51617900      15.75127059      12.00619302                           
I        1.06740595      14.02101041      12.00620106                           
Cr      -1.14618498      21.83733235      17.03520929                           
Cr      -4.58464539      23.82257680      17.04368562                           
I       -0.14721277      19.84622273      15.50172901                           
I       -3.37002766      21.96780609      15.50172980                           
I       -6.79826043      23.69804968      15.50174515                           
I       -2.14033808      19.85505493      18.57647573                           
I       -2.36580974      23.68947476      18.57647595                           
I       -5.80935225      21.96754269      18.57646027                           
Cr       2.29231601      19.85215813      10.46423698                           
Cr      -1.14619872      21.83734595      10.47271549                           
I        3.28648677      17.86402821       8.93147663                           
I        0.07347848      19.98523804       8.93145308                           
I       -3.35999171      21.70716968       8.93144278                           
I        1.29337054      17.87287297      12.00619783                           
I        1.07768799      21.70691172      12.00619302                           
I       -2.37108506      19.97665154      12.00620106                           
Cr      -4.58467600      27.79297348      17.03520929                           
Cr      -8.02313640      29.77821793      17.04368562                           
I       -3.58570378      25.80186386      15.50172901                           
I       -6.80851867      27.92344722      15.50172980                           
I      -10.23675144      29.65369082      15.50174515                           
I       -5.57882909      25.81069606      18.57647573                           
I       -5.80430075      29.64511589      18.57647595                           
I       -9.24784326      27.92318382      18.57646027                           
Cr      -1.14617500      25.80779926      10.46423698                           
Cr      -4.58468973      27.79298708      10.47271549                           
I       -0.15200424      23.81966934       8.93147663                           
I       -3.36501253      25.94087917       8.93145308                           
I       -6.79848272      27.66281081       8.93144278                           
I       -2.14512047      23.82851411      12.00619783                           
I       -2.36080302      27.66255286      12.00619302                           
I       -5.80957607      25.93229268      12.00620106                           
Cr      -8.02316701      33.74861461      17.03520929                           
Cr     -11.46162741      35.73385906      17.04368562                           
I       -7.02419479      31.75750499      15.50172901                           
I      -10.24700968      33.87908835      15.50172980                           
I      -13.67524245      35.60933195      15.50174515                           
I       -9.01732010      31.76633719      18.57647573                           
I       -9.24279176      35.60075702      18.57647595                           
I      -12.68633427      33.87882495      18.57646027                           
Cr      -4.58466601      31.76344039      10.46423698                           
Cr      -8.02318074      33.74862822      10.47271549                           
I       -3.59049526      29.77531047       8.93147663                           
I       -6.80350354      31.89652031       8.93145308                           
I      -10.23697373      33.61845194       8.93144278                           
I       -5.58361148      29.78415524      12.00619783                           
I       -5.79929403      33.61819399      12.00619302                           
I       -9.24806708      31.88793381      12.00620106                           
Cr      16.04627007       3.97040895      17.03520929                           
Cr      12.60780966       5.95565340      17.04368562                           
I       17.04524228       1.97929933      15.50172901                           
I       13.82242740       4.10088269      15.50172980                           
I       10.39419463       5.83112629      15.50174515                           
I       15.05211697       1.98813153      18.57647573                           
I       14.82664532       5.82255136      18.57647595                           
I       11.38310281       4.10061929      18.57646027                           
Cr      19.48477107       1.98523473      10.46423698                           
Cr      16.04625633       3.97042256      10.47271549                           
I       20.47894182      -0.00289519       8.93147663                           
I       17.26593353       2.11831465       8.93145308                           
I       13.83246335       3.84024628       8.93144278                           
I       18.48582560       0.00594958      12.00619783                           
I       18.27014304       3.83998833      12.00619302                           
I       14.82137000       2.10972815      12.00620106                           
Cr      12.60777906       9.92605008      17.03520929                           
Cr       9.16931865      11.91129453      17.04368562                           
I       13.60675127       7.93494046      15.50172901                           
I       10.38393639      10.05652383      15.50172980                           
I        6.95570362      11.78676742      15.50174515                           
I       11.61362596       7.94377266      18.57647573                           
I       11.38815431      11.77819249      18.57647595                           
I        7.94461180      10.05626043      18.57646027                           
Cr      16.04628006       7.94087586      10.46423698                           
Cr      12.60776532       9.92606369      10.47271549                           
I       17.04045081       5.95274594       8.93147663                           
I       13.82744252       8.07395578       8.93145308                           
I       10.39397233       9.79588741       8.93144278                           
I       15.04733459       5.96159071      12.00619783                           
I       14.83165203       9.79562946      12.00619302                           
I       11.38287899       8.06536928      12.00620106                           
Cr       9.16928805      15.88169122      17.03520929                           
Cr       5.73082764      17.86693567      17.04368562                           
I       10.16826026      13.89058160      15.50172901                           
I        6.94544538      16.01216496      15.50172980                           
I        3.51721261      17.74240855      15.50174515                           
I        8.17513495      13.89941380      18.57647573                           
I        7.94966330      17.73383362      18.57647595                           
I        4.50612079      16.01190156      18.57646027                           
Cr      12.60778905      13.89651700      10.46423698                           
Cr       9.16927431      15.88170482      10.47271549                           
I       13.60195980      11.90838708       8.93147663                           
I       10.38895151      14.02959691       8.93145308                           
I        6.95548132      15.75152855       8.93144278                           
I       11.60884358      11.91723184      12.00619783                           
I       11.39316102      15.75127059      12.00619302                           
I        7.94438798      14.02101041      12.00620106                           
Cr       5.73079704      21.83733235      17.03520929                           
Cr       2.29233663      23.82257680      17.04368562                           
I        6.72976925      19.84622273      15.50172901                           
I        3.50695437      21.96780609      15.50172980                           
I        0.07872159      23.69804968      15.50174515                           
I        4.73664394      19.85505493      18.57647573                           
I        4.51117228      23.68947476      18.57647595                           
I        1.06762977      21.96754269      18.57646027                           
Cr       9.16929804      19.85215813      10.46423698                           
Cr       5.73078330      21.83734595      10.47271549                           
I       10.16346879      17.86402821       8.93147663                           
I        6.95046050      19.98523804       8.93145308                           
I        3.51699031      21.70716968       8.93144278                           
I        8.17035256      17.87287297      12.00619783                           
I        7.95467001      21.70691172      12.00619302                           
I        4.50589697      19.97665154      12.00620106                           
Cr       2.29230603      27.79297348      17.03520929                           
Cr      -1.14615438      29.77821793      17.04368562                           
I        3.29127824      25.80186386      15.50172901                           
I        0.06846335      27.92344722      15.50172980                           
I       -3.35976942      29.65369082      15.50174515                           
I        1.29815293      25.81069606      18.57647573                           
I        1.07268127      29.64511589      18.57647595                           
I       -2.37086124      27.92318382      18.57646027                           
Cr       5.73080703      25.80779926      10.46423698                           
Cr       2.29229229      27.79298708      10.47271549                           
I        6.72497778      23.81966934       8.93147663                           
I        3.51196949      25.94087917       8.93145308                           
I        0.07849930      27.66281081       8.93144278                           
I        4.73186155      23.82851411      12.00619783                           
I        4.51617900      27.66255286      12.00619302                           
I        1.06740595      25.93229268      12.00620106                           
Cr      -1.14618498      33.74861461      17.03520929                           
Cr      -4.58464539      35.73385906      17.04368562                           
I       -0.14721277      31.75750499      15.50172901                           
I       -3.37002766      33.87908835      15.50172980                           
I       -6.79826043      35.60933195      15.50174515                           
I       -2.14033808      31.76633719      18.57647573                           
I       -2.36580974      35.60075702      18.57647595                           
I       -5.80935225      33.87882495      18.57646027                           
Cr       2.29231601      31.76344039      10.46423698                           
Cr      -1.14619872      33.74862822      10.47271549                           
I        3.28648677      29.77531047       8.93147663                           
I        0.07347848      31.89652031       8.93145308                           
I       -3.35999171      33.61845194       8.93144278                           
I        1.29337054      29.78415524      12.00619783                           
I        1.07768799      33.61819399      12.00619302                           
I       -2.37108506      31.88793381      12.00620106                           
Cr      22.92325209       3.97040895      17.03520929                           
Cr      19.48479168       5.95565340      17.04368562                           
I       23.92222431       1.97929933      15.50172901                           
I       20.69940942       4.10088269      15.50172980                           
I       17.27117665       5.83112629      15.50174515                           
I       21.92909899       1.98813153      18.57647573                           
I       21.70362734       5.82255136      18.57647595                           
I       18.26008483       4.10061929      18.57646027                           
Cr      26.36175309       1.98523473      10.46423698                           
Cr      22.92323835       3.97042256      10.47271549                           
I       27.35592384      -0.00289519       8.93147663                           
I       24.14291556       2.11831465       8.93145308                           
I       20.70944537       3.84024628       8.93144278                           
I       25.36280762       0.00594958      12.00619783                           
I       25.14712507       3.83998833      12.00619302                           
I       21.69835202       2.10972815      12.00620106                           
Cr      19.48476108       9.92605008      17.03520929                           
Cr      16.04630067      11.91129453      17.04368562                           
I       20.48373330       7.93494046      15.50172901                           
I       17.26091841      10.05652383      15.50172980                           
I       13.83268564      11.78676742      15.50174515                           
I       18.49060798       7.94377266      18.57647573                           
I       18.26513633      11.77819249      18.57647595                           
I       14.82159382      10.05626043      18.57646027                           
Cr      22.92326208       7.94087586      10.46423698                           
Cr      19.48474734       9.92606369      10.47271549                           
I       23.91743283       5.95274594       8.93147663                           
I       20.70442455       8.07395578       8.93145308                           
I       17.27095436       9.79588741       8.93144278                           
I       21.92431661       5.96159071      12.00619783                           
I       21.70863405       9.79562946      12.00619302                           
I       18.25986101       8.06536928      12.00620106                           
Cr      16.04627007      15.88169122      17.03520929                           
Cr      12.60780966      17.86693567      17.04368562                           
I       17.04524228      13.89058160      15.50172901                           
I       13.82242740      16.01216496      15.50172980                           
I       10.39419463      17.74240855      15.50174515                           
I       15.05211697      13.89941380      18.57647573                           
I       14.82664532      17.73383362      18.57647595                           
I       11.38310281      16.01190156      18.57646027                           
Cr      19.48477107      13.89651700      10.46423698                           
Cr      16.04625633      15.88170482      10.47271549                           
I       20.47894182      11.90838708       8.93147663                           
I       17.26593353      14.02959691       8.93145308                           
I       13.83246335      15.75152855       8.93144278                           
I       18.48582560      11.91723184      12.00619783                           
I       18.27014304      15.75127059      12.00619302                           
I       14.82137000      14.02101041      12.00620106                           
Cr      12.60777906      21.83733235      17.03520929                           
Cr       9.16931865      23.82257680      17.04368562                           
I       13.60675127      19.84622273      15.50172901                           
I       10.38393639      21.96780609      15.50172980                           
I        6.95570362      23.69804968      15.50174515                           
I       11.61362596      19.85505493      18.57647573                           
I       11.38815431      23.68947476      18.57647595                           
I        7.94461180      21.96754269      18.57646027                           
Cr      16.04628006      19.85215813      10.46423698                           
Cr      12.60776532      21.83734595      10.47271549                           
I       17.04045081      17.86402821       8.93147663                           
I       13.82744252      19.98523804       8.93145308                           
I       10.39397233      21.70716968       8.93144278                           
I       15.04733459      17.87287297      12.00619783                           
I       14.83165203      21.70691172      12.00619302                           
I       11.38287899      19.97665154      12.00620106                           
Cr       9.16928805      27.79297348      17.03520929                           
Cr       5.73082764      29.77821793      17.04368562                           
I       10.16826026      25.80186386      15.50172901                           
I        6.94544538      27.92344722      15.50172980                           
I        3.51721261      29.65369082      15.50174515                           
I        8.17513495      25.81069606      18.57647573                           
I        7.94966330      29.64511589      18.57647595                           
I        4.50612079      27.92318382      18.57646027                           
Cr      12.60778905      25.80779926      10.46423698                           
Cr       9.16927431      27.79298708      10.47271549                           
I       13.60195980      23.81966934       8.93147663                           
I       10.38895151      25.94087917       8.93145308                           
I        6.95548132      27.66281081       8.93144278                           
I       11.60884358      23.82851411      12.00619783                           
I       11.39316102      27.66255286      12.00619302                           
I        7.94438798      25.93229268      12.00620106                           
Cr       5.73079704      33.74861461      17.03520929                           
Cr       2.29233663      35.73385906      17.04368562                           
I        6.72976925      31.75750499      15.50172901                           
I        3.50695437      33.87908835      15.50172980                           
I        0.07872159      35.60933195      15.50174515                           
I        4.73664394      31.76633719      18.57647573                           
I        4.51117228      35.60075702      18.57647595                           
I        1.06762977      33.87882495      18.57646027                           
Cr       9.16929804      31.76344039      10.46423698                           
Cr       5.73078330      33.74862822      10.47271549                           
I       10.16346879      29.77531047       8.93147663                           
I        6.95046050      31.89652031       8.93145308                           
I        3.51699031      33.61845194       8.93144278                           
I        8.17035256      29.78415524      12.00619783                           
I        7.95467001      33.61819399      12.00619302                           
I        4.50589697      31.88793381      12.00620106                           
Cr      29.80023411       3.97040895      17.03520929                           
Cr      26.36177371       5.95565340      17.04368562                           
I       30.79920633       1.97929933      15.50172901                           
I       27.57639144       4.10088269      15.50172980                           
I       24.14815867       5.83112629      15.50174515                           
I       28.80608102       1.98813153      18.57647573                           
I       28.58060936       5.82255136      18.57647595                           
I       25.13706685       4.10061929      18.57646027                           
Cr      33.23873511       1.98523473      10.46423698                           
Cr      29.80022038       3.97042256      10.47271549                           
I       34.23290587      -0.00289519       8.93147663                           
I       31.01989758       2.11831465       8.93145308                           
I       27.58642739       3.84024628       8.93144278                           
I       32.23978964       0.00594958      12.00619783                           
I       32.02410709       3.83998833      12.00619302                           
I       28.57533404       2.10972815      12.00620106                           
Cr      26.36174310       9.92605008      17.03520929                           
Cr      22.92328270      11.91129453      17.04368562                           
I       27.36071532       7.93494046      15.50172901                           
I       24.13790043      10.05652383      15.50172980                           
I       20.70966766      11.78676742      15.50174515                           
I       25.36759001       7.94377266      18.57647573                           
I       25.14211835      11.77819249      18.57647595                           
I       21.69857584      10.05626043      18.57646027                           
Cr      29.80024410       7.94087586      10.46423698                           
Cr      26.36172937       9.92606369      10.47271549                           
I       30.79441485       5.95274594       8.93147663                           
I       27.58140657       8.07395578       8.93145308                           
I       24.14793638       9.79588741       8.93144278                           
I       28.80129863       5.96159071      12.00619783                           
I       28.58561608       9.79562946      12.00619302                           
I       25.13684303       8.06536928      12.00620106                           
Cr      22.92325209      15.88169122      17.03520929                           
Cr      19.48479168      17.86693567      17.04368562                           
I       23.92222431      13.89058160      15.50172901                           
I       20.69940942      16.01216496      15.50172980                           
I       17.27117665      17.74240855      15.50174515                           
I       21.92909899      13.89941380      18.57647573                           
I       21.70362734      17.73383362      18.57647595                           
I       18.26008483      16.01190156      18.57646027                           
Cr      26.36175309      13.89651700      10.46423698                           
Cr      22.92323835      15.88170482      10.47271549                           
I       27.35592384      11.90838708       8.93147663                           
I       24.14291556      14.02959691       8.93145308                           
I       20.70944537      15.75152855       8.93144278                           
I       25.36280762      11.91723184      12.00619783                           
I       25.14712507      15.75127059      12.00619302                           
I       21.69835202      14.02101041      12.00620106                           
Cr      19.48476108      21.83733235      17.03520929                           
Cr      16.04630067      23.82257680      17.04368562                           
I       20.48373330      19.84622273      15.50172901                           
I       17.26091841      21.96780609      15.50172980                           
I       13.83268564      23.69804968      15.50174515                           
I       18.49060798      19.85505493      18.57647573                           
I       18.26513633      23.68947476      18.57647595                           
I       14.82159382      21.96754269      18.57646027                           
Cr      22.92326208      19.85215813      10.46423698                           
Cr      19.48474734      21.83734595      10.47271549                           
I       23.91743283      17.86402821       8.93147663                           
I       20.70442455      19.98523804       8.93145308                           
I       17.27095436      21.70716968       8.93144278                           
I       21.92431661      17.87287297      12.00619783                           
I       21.70863405      21.70691172      12.00619302                           
I       18.25986101      19.97665154      12.00620106                           
Cr      16.04627007      27.79297348      17.03520929                           
Cr      12.60780966      29.77821793      17.04368562                           
I       17.04524228      25.80186386      15.50172901                           
I       13.82242740      27.92344722      15.50172980                           
I       10.39419463      29.65369082      15.50174515                           
I       15.05211697      25.81069606      18.57647573                           
I       14.82664532      29.64511589      18.57647595                           
I       11.38310281      27.92318382      18.57646027                           
Cr      19.48477107      25.80779926      10.46423698                           
Cr      16.04625633      27.79298708      10.47271549                           
I       20.47894182      23.81966934       8.93147663                           
I       17.26593353      25.94087917       8.93145308                           
I       13.83246335      27.66281081       8.93144278                           
I       18.48582560      23.82851411      12.00619783                           
I       18.27014304      27.66255286      12.00619302                           
I       14.82137000      25.93229268      12.00620106                           
Cr      12.60777906      33.74861461      17.03520929                           
Cr       9.16931865      35.73385906      17.04368562                           
I       13.60675127      31.75750499      15.50172901                           
I       10.38393639      33.87908835      15.50172980                           
I        6.95570362      35.60933195      15.50174515                           
I       11.61362596      31.76633719      18.57647573                           
I       11.38815431      35.60075702      18.57647595                           
I        7.94461180      33.87882495      18.57646027                           
Cr      16.04628006      31.76344039      10.46423698                           
Cr      12.60776532      33.74862822      10.47271549                           
I       17.04045081      29.77531047       8.93147663                           
I       13.82744252      31.89652031       8.93145308                           
I       10.39397233      33.61845194       8.93144278                           
I       15.04733459      29.78415524      12.00619783                           
I       14.83165203      33.61819399      12.00619302                           
I       11.38287899      31.88793381      12.00620106                           
Cr      36.67721614       3.97040895      17.03520929                           
Cr      33.23875573       5.95565340      17.04368562                           
I       37.67618835       1.97929933      15.50172901                           
I       34.45337346       4.10088269      15.50172980                           
I       31.02514069       5.83112629      15.50174515                           
I       35.68306304       1.98813153      18.57647573                           
I       35.45759138       5.82255136      18.57647595                           
I       32.01404887       4.10061929      18.57646027                           
Cr      40.11571714       1.98523473      10.46423698                           
Cr      36.67720240       3.97042256      10.47271549                           
I       41.10988789      -0.00289519       8.93147663                           
I       37.89687960       2.11831465       8.93145308                           
I       34.46340941       3.84024628       8.93144278                           
I       39.11677166       0.00594958      12.00619783                           
I       38.90108911       3.83998833      12.00619302                           
I       35.45231606       2.10972815      12.00620106                           
Cr      33.23872513       9.92605008      17.03520929                           
Cr      29.80026472      11.91129453      17.04368562                           
I       34.23769734       7.93494046      15.50172901                           
I       31.01488245      10.05652383      15.50172980                           
I       27.58664968      11.78676742      15.50174515                           
I       32.24457203       7.94377266      18.57647573                           
I       32.01910037      11.77819249      18.57647595                           
I       28.57555786      10.05626043      18.57646027                           
Cr      36.67722612       7.94087586      10.46423698                           
Cr      33.23871139       9.92606369      10.47271549                           
I       37.67139688       5.95274594       8.93147663                           
I       34.45838859       8.07395578       8.93145308                           
I       31.02491840       9.79588741       8.93144278                           
I       35.67828065       5.96159071      12.00619783                           
I       35.46259810       9.79562946      12.00619302                           
I       32.01382505       8.06536928      12.00620106                           
Cr      29.80023411      15.88169122      17.03520929                           
Cr      26.36177371      17.86693567      17.04368562                           
I       30.79920633      13.89058160      15.50172901                           
I       27.57639144      16.01216496      15.50172980                           
I       24.14815867      17.74240855      15.50174515                           
I       28.80608102      13.89941380      18.57647573                           
I       28.58060936      17.73383362      18.57647595                           
I       25.13706685      16.01190156      18.57646027                           
Cr      33.23873511      13.89651700      10.46423698                           
Cr      29.80022038      15.88170482      10.47271549                           
I       34.23290587      11.90838708       8.93147663                           
I       31.01989758      14.02959691       8.93145308                           
I       27.58642739      15.75152855       8.93144278                           
I       32.23978964      11.91723184      12.00619783                           
I       32.02410709      15.75127059      12.00619302                           
I       28.57533404      14.02101041      12.00620106                           
Cr      26.36174310      21.83733235      17.03520929                           
Cr      22.92328270      23.82257680      17.04368562                           
I       27.36071532      19.84622273      15.50172901                           
I       24.13790043      21.96780609      15.50172980                           
I       20.70966766      23.69804968      15.50174515                           
I       25.36759001      19.85505493      18.57647573                           
I       25.14211835      23.68947476      18.57647595                           
I       21.69857584      21.96754269      18.57646027                           
Cr      29.80024410      19.85215813      10.46423698                           
Cr      26.36172937      21.83734595      10.47271549                           
I       30.79441485      17.86402821       8.93147663                           
I       27.58140657      19.98523804       8.93145308                           
I       24.14793638      21.70716968       8.93144278                           
I       28.80129863      17.87287297      12.00619783                           
I       28.58561608      21.70691172      12.00619302                           
I       25.13684303      19.97665154      12.00620106                           
Cr      22.92325209      27.79297348      17.03520929                           
Cr      19.48479168      29.77821793      17.04368562                           
I       23.92222431      25.80186386      15.50172901                           
I       20.69940942      27.92344722      15.50172980                           
I       17.27117665      29.65369082      15.50174515                           
I       21.92909899      25.81069606      18.57647573                           
I       21.70362734      29.64511589      18.57647595                           
I       18.26008483      27.92318382      18.57646027                           
Cr      26.36175309      25.80779926      10.46423698                           
Cr      22.92323835      27.79298708      10.47271549                           
I       27.35592384      23.81966934       8.93147663                           
I       24.14291556      25.94087917       8.93145308                           
I       20.70944537      27.66281081       8.93144278                           
I       25.36280762      23.82851411      12.00619783                           
I       25.14712507      27.66255286      12.00619302                           
I       21.69835202      25.93229268      12.00620106                           
Cr      19.48476108      33.74861461      17.03520929                           
Cr      16.04630067      35.73385906      17.04368562                           
I       20.48373330      31.75750499      15.50172901                           
I       17.26091841      33.87908835      15.50172980                           
I       13.83268564      35.60933195      15.50174515                           
I       18.49060798      31.76633719      18.57647573                           
I       18.26513633      35.60075702      18.57647595                           
I       14.82159382      33.87882495      18.57646027                           
Cr      22.92326208      31.76344039      10.46423698                           
Cr      19.48474734      33.74862822      10.47271549                           
I       23.91743283      29.77531047       8.93147663                           
I       20.70442455      31.89652031       8.93145308                           
I       17.27095436      33.61845194       8.93144278                           
I       21.92431661      29.78415524      12.00619783                           
I       21.70863405      33.61819399      12.00619302                           
I       18.25986101      31.88793381      12.00620106                           
%ENDBLOCK POSITIONS_ABS                                                         
%BLOCK SPECIES                                                                  
Cr Cr 24 -1 15                                                                  
I   I  53 -1 15                                                                 
%ENDBLOCK SPECIES                                                               
%BLOCK SPECIES_ATOMIC_SET                                                       
Cr "SOLVE INIT SPIN=3"                                                          
I   "SOLVE"                                                                     
%ENDBLOCK SPECIES_ATOMIC_SET                                                    
%BLOCK HUBBARD                                                                  
Cr  2 2.97 0.00 -10.0 0.00 0.0                                                  
%ENDBLOCK HUBBARD                                                               
%BLOCK SPECIES_LDOS_GROUPS                                                      
Cr                                                                              
I                                                                               
%ENDBLOCK SPECIES_LDOS_GROUPS                                                   
%BLOCK SPECIES_POT                                                              
Cr  "../../../../Cr.PBE-paw.abinit"                                             
I   "../../../../I.PBE-paw.abinit"                                              
%ENDBLOCK SPECIES_POT                                                           

--------------------------------------------------------------------------------
-------------------------------- END INPUT FILE --------------------------------
--------------------------------------------------------------------------------


 
 ESDF WARNING(1): "charge" (esdf_physical) has no units. Assume "e".
<<<<<<<<<<<<<<<<<<<<<<<<<<<<<<<<< Full system >>>>>>>>>>>>>>>>>>>>>>>>>>>>>>>>>>
<<<<<<<<<<<<<<<<<<<<<<<<<<< PAW Dataset information >>>>>>>>>>>>>>>>>>>>>>>>>>>
File: ../../../../Cr.PBE-paw.abinit; rc = 2.11 bohr; shape type =  2; rshape = 1.80 bohr;
  Atomic number: 24;  ionic charge: 14.000000
    Partial Wave 1: l = 0
    Partial Wave 2: l = 0
    Partial Wave 3: l = 1
    Partial Wave 4: l = 1
    Partial Wave 5: l = 2
    Partial Wave 6: l = 2
  Core charge supplied for Nonlinear Core Corrections
File: ../../../../I.PBE-paw.abinit; rc = 2.30 bohr; shape type =  2; rshape = 2.11 bohr;
  Atomic number: 53;  ionic charge:  7.000000
    Partial Wave 1: l = 0
    Partial Wave 2: l = 0
    Partial Wave 3: l = 1
    Partial Wave 4: l = 1
  Core charge supplied for Nonlinear Core Corrections
<<<<<<<<<<<<<<<<<<<<<<<<<<<<<<<<<<<<<<< >>>>>>>>>>>>>>>>>>>>>>>>>>>>>>>>>>>>>>>

-------------------------- Atom counting information ---------------------------
Symbol    Natoms    Nngwfs    Nprojs
  Cr       144      1872      2592
  I        432      1728      3456
.......   ......    ......    ......
Totals:    576      3600      6048
--------------------------------------------------------------------------------

=============================== PSINC grid sizes ===============================
                      Simulation cell:  175 x 175 x 117
                              FFT-box:  175 x 175 x 117
                                  PPD:    5 x   5 x   1
Grid space d1=  0.445563862424a0 (KE cutoff=  38.26345Eh =1041.20135eV)
Grid space d2=  0.445563862400a0 (KE cutoff=  38.26345Eh =1041.20135eV)
Grid space d3=  0.444294449711a0 (KE cutoff=  38.48241Eh =1047.15957eV)
================================================================================

********************* Fourier parallelisation information **********************
       Coarse grid (whole simulation cell) dimensions:    175   175   117
          Real-space ('12') slabs/proc (min max mean):      0     1     0
         Recip-space ('23') slabs/proc (min max mean):      0     1     0
********************************************************************************

********************* Fourier parallelisation information **********************
       Double grid (whole simulation cell) dimensions:    350   350   234
          Real-space ('12') slabs/proc (min max mean):      1     2     1
         Recip-space ('23') slabs/proc (min max mean):      1     2     1
********************************************************************************

********************* Fourier parallelisation information **********************
         Fine grid (whole simulation cell) dimensions:    700   700   468
          Real-space ('12') slabs/proc (min max mean):      3     4     3
         Recip-space ('23') slabs/proc (min max mean):      2     3     2
********************************************************************************

Atom SCF Calculation for Cr : Z (AE atom) =  24 : Z (PS atom) =  14
Config String: 3s2.0 3p6.0 3d5.0 4s1.0 4p0.0 INIT SPIN=3
Orbitals (num,occ):  5     2.00 6.00 5.00 1.00 0.00
Orbitals   (num,l):  5        0    1    2    0    1
Atom SCF converged after  64 iterations to a total energy of    -87.07044631
Adjusting orbital occupancies:
Orbitals (num,spin,occ):  5  1     1.00 3.00 3.50 1.00 0.00
Orbitals   (num,spin,l):  5  1        0    1    2    0    1
Orbitals (num,spin,occ):  5  2     1.00 3.00 1.00 0.50 0.00
Orbitals   (num,spin,l):  5  2        0    1    2    0    1

Atom SCF Calculation for I  : Z (AE atom) =  53 : Z (PS atom) =   7
Config String: 5s2.0 5p5.0
Orbitals (num,occ):  2     2.00 5.00
Orbitals   (num,l):  2        0    1
Atom SCF converged after  28 iterations to a total energy of    -11.61352964

Atom SCF Calculation for Cr : Z (AE atom) =  24 : Z (PS atom) =  14
Config String: 3s2.0 3p6.0 3d5.0 4s1.0 4p0.0 INIT SPIN=3
Orbitals (num,occ):  5     2.00 6.00 5.00 1.00 0.00
Orbitals   (num,l):  5        0    1    2    0    1
Atom SCF converged after  64 iterations to a total energy of    -87.07044631

Atom SCF Calculation for I  : Z (AE atom) =  53 : Z (PS atom) =   7
Config String: 5s2.0 5p5.0
Orbitals (num,occ):  2     2.00 5.00
Orbitals   (num,l):  2        0    1
Atom SCF converged after  28 iterations to a total energy of    -11.61352964

Determining parallel strategy ...... done
Calculating Ewald energy ...            31583.245177 Hartree
Basis initialisation ...
... done

============================= Charge Augmentation ==============================
                           Aug box size:   49 x  49 x  45
================================================================================
Sparse matrix initialisation ...
 done
NGWF initialisation ... done
 done

================================= Core Density =================================
               Core den box size:  125 x 125 x 105
================================================================================
Density kernel initialisation

--------------------------- Ensemble-DFT optimisation --------------------------
Running ScaLAPACK on  150 processor(s).
With smearing scheme: FERMIDIRAC                                                                      

--------------------------------------------------------------------------------
  Iter                              Commutator    Free_energy(A=E-TS)     DeltaA
#    0                          0.005698562023  -17491.79472422702750  -1.75E+04
#    1                          0.002525754214  -17570.82584600693740  -7.90E+01
#    2                          0.000205734121  -17613.38812837928710  -4.26E+01
#    3                          0.000170493098  -17613.74728655234500  -3.59E-01
#    4                          0.000140993057  -17613.97691216000380  -2.30E-01
#    5                          0.000104095922  -17614.13794027127010  -1.61E-01
#    6                          0.000091468591  -17614.24098636523920  -1.03E-01
#    7                          0.000067028047  -17614.31155651199880  -7.06E-02
#    8                          0.000059291645  -17614.35643855135280  -4.49E-02
#    9                          0.000045175740  -17614.38813366106480  -3.17E-02
#   10                          0.000038847880  -17614.40836227436740  -2.02E-02
#   11                          0.000032058583  -17614.42347985599190  -1.51E-02
#   12                          0.000026149293  -17614.43322048980190  -9.74E-03
#   13                          0.000023785193  -17614.44091518516870  -7.69E-03
#   14                          0.000018079734  -17614.44590256552690  -4.99E-03
#   15                          0.000018600647  -17614.45008754765880  -4.18E-03
Finished EDFT density kernel iterations (  15)


Writing density kernel to file "Cr2I6_bilayer_LT_FM_FM_SP.dkn" ... done

Writing Hamiltonian to file "Cr2I6_bilayer_LT_FM_FM_SP.ham" ... done

Writing density kernel to file "Cr2I6_bilayer_LT_FM_FM_SP.dkn" ... done

>>> Optimising kernel for current NGWFs:
   iter  |      energy (Eh)       | rms gradient |  commutator  |   dE (Eh)
    1        -1.761444938917E+04     3.2907E-05     1.8063E-05
    2        -1.761445153540E+04     3.5651E-05     1.7896E-05    -2.1462E-03
    3        -1.761445371549E+04     5.2691E-05     2.7012E-05    -2.1801E-03
    4        -1.761445708240E+04     5.5160E-05     2.8402E-05    -3.3669E-03
    5        -1.761445934525E+04     3.1545E-05     1.6381E-05    -2.2628E-03
Finished density kernel iterations (   5)

Writing density kernel to file "Cr2I6_bilayer_LT_FM_FM_SP.dkn" ... done


>>> Density kernel optimised for the current NGWF basis:
     ~~~~~~~~~~~~~~~~~~~~~~~~~~~~~~~~~~~~~~~~~~~~~~~~~~~~~~~~~~~
     Total energy                =  -1.76144593452498E+04  Eh
     Estimated bandgap (UP spin) =   3.7141E-02  Eh
     Estimated bandgap (DN spin) =   1.0858E-01  Eh
     RMS occupancy error         =   2.2564E-09
     [H,K] commutator            =   1.6381E-05
     UP spin occupancy bounds    = [ -0.000:  1.000]
     DN spin occupancy bounds    = [ -0.000:  1.000]
     ~~~~~~~~~~~~~~~~~~~~~~~~~~~~~~~~~~~~~~~~~~~~~~~~~~~~~~~~~~~




################################################################################
########################### NGWF CG iteration  001 #############################
################################################################################

>>> Checking for convergence of NGWFs:   NOT CONVERGED
  ========================================================================
         NGWF RMS gradient =  1.0220E-04 >  1.0000E-06  | above tolerance
  ========================================================================

>>> Improving NGWFs using line search:
  ========================================================================
   Predicted total energy    =      -1.76224340611747E+04 Eh
   Predicted gain in energy  =      -7.97471592483998E+00 Eh
  ========================================================================

Writing NGWFs to file "Cr2I6_bilayer_LT_FM_FM_SP.tightbox_ngwfs".... done

>>> Optimising kernel for current NGWFs:
   iter  |      energy (Eh)       | rms gradient |  commutator  |   dE (Eh)
    1        -1.762241932244E+04     5.2459E-04     2.6548E-04
    2        -1.762278337054E+04     2.0838E-04     1.0551E-04    -3.6405E-01
    3        -1.762282118458E+04     9.2346E-05     4.6829E-05    -3.7814E-02
    4        -1.762283275838E+04     6.2922E-05     3.1900E-05    -1.1574E-02
    5        -1.762283890909E+04     2.9221E-05     1.4895E-05    -6.1507E-03
Finished density kernel iterations (   5)

Writing density kernel to file "Cr2I6_bilayer_LT_FM_FM_SP.dkn" ... done


>>> Density kernel optimised for the current NGWF basis:
     ~~~~~~~~~~~~~~~~~~~~~~~~~~~~~~~~~~~~~~~~~~~~~~~~~~~~~~~~~~~
     Total energy                =  -1.76228389090883E+04  Eh
     Estimated bandgap (UP spin) =   4.3346E-02  Eh
     Estimated bandgap (DN spin) =   1.1890E-01  Eh
     RMS occupancy error         =   6.1448E-10
     [H,K] commutator            =   1.4895E-05
     UP spin occupancy bounds    = [ -0.000:  1.000]
     DN spin occupancy bounds    = [ -0.000:  1.000]
     ~~~~~~~~~~~~~~~~~~~~~~~~~~~~~~~~~~~~~~~~~~~~~~~~~~~~~~~~~~~




################################################################################
########################### NGWF CG iteration  002 #############################
################################################################################

>>> Checking for convergence of NGWFs:   NOT CONVERGED
  ========================================================================
         NGWF RMS gradient =  6.9021E-05 >  1.0000E-06  | above tolerance
  Maximum change in energy =  1.4548E-02 >  1.0000E-07  | above tolerance
  ========================================================================

>>> Improving NGWFs using line search:
  ========================================================================
   Predicted total energy    =      -1.76254698962182E+04 Eh
   Predicted gain in energy  =      -2.63098712993815E+00 Eh
  ========================================================================

Writing NGWFs to file "Cr2I6_bilayer_LT_FM_FM_SP.tightbox_ngwfs".... done

>>> Optimising kernel for current NGWFs:
   iter  |      energy (Eh)       | rms gradient |  commutator  |   dE (Eh)
    1        -1.762546113484E+04     2.0251E-04     1.0327E-04
    2        -1.762552367828E+04     5.0298E-05     2.5369E-05    -6.2543E-02
    3        -1.762552779206E+04     5.2022E-05     2.7281E-05    -4.1138E-03
    4        -1.762553205964E+04     3.0372E-05     1.5571E-05    -4.2676E-03
    5        -1.762553339952E+04     2.3981E-05     1.2041E-05    -1.3399E-03
Finished density kernel iterations (   5)

Writing density kernel to file "Cr2I6_bilayer_LT_FM_FM_SP.dkn" ... done


>>> Density kernel optimised for the current NGWF basis:
     ~~~~~~~~~~~~~~~~~~~~~~~~~~~~~~~~~~~~~~~~~~~~~~~~~~~~~~~~~~~
     Total energy                =  -1.76255333995230E+04  Eh
     Estimated bandgap (UP spin) =   4.2839E-02  Eh
     Estimated bandgap (DN spin) =   1.1895E-01  Eh
     RMS occupancy error         =   7.3739E-11
     [H,K] commutator            =   1.2041E-05
     UP spin occupancy bounds    = [ -0.000:  1.000]
     DN spin occupancy bounds    = [ -0.000:  1.000]
     ~~~~~~~~~~~~~~~~~~~~~~~~~~~~~~~~~~~~~~~~~~~~~~~~~~~~~~~~~~~




################################################################################
########################### NGWF CG iteration  003 #############################
################################################################################

>>> Checking for convergence of NGWFs:   NOT CONVERGED
  ========================================================================
         NGWF RMS gradient =  4.2416E-05 >  1.0000E-06  | above tolerance
  Maximum change in energy =  1.4548E-02 >  1.0000E-07  | above tolerance
  ========================================================================

>>> Improving NGWFs using line search:
  ========================================================================
   Predicted total energy    =      -1.76266196571754E+04 Eh
   Predicted gain in energy  =      -1.08625765236502E+00 Eh
  ========================================================================

Writing NGWFs to file "Cr2I6_bilayer_LT_FM_FM_SP.tightbox_ngwfs".... done

>>> Optimising kernel for current NGWFs:
   iter  |      energy (Eh)       | rms gradient |  commutator  |   dE (Eh)
    1        -1.762660995472E+04     1.9796E-04     1.0081E-04
    2        -1.762665331918E+04     9.3969E-05     4.8552E-05    -4.3364E-02
    3        -1.762666074935E+04     3.3434E-05     1.7021E-05    -7.4302E-03
    4        -1.762666251843E+04     2.7195E-05     1.3697E-05    -1.7691E-03
    5        -1.762666406602E+04     1.6138E-05     8.2670E-06    -1.5476E-03
Finished density kernel iterations (   5)

Writing density kernel to file "Cr2I6_bilayer_LT_FM_FM_SP.dkn" ... done


>>> Density kernel optimised for the current NGWF basis:
     ~~~~~~~~~~~~~~~~~~~~~~~~~~~~~~~~~~~~~~~~~~~~~~~~~~~~~~~~~~~
     Total energy                =  -1.76266640660213E+04  Eh
     Estimated bandgap (UP spin) =   4.2938E-02  Eh
     Estimated bandgap (DN spin) =   1.1975E-01  Eh
     RMS occupancy error         =   1.4398E-10
     [H,K] commutator            =   8.2670E-06
     UP spin occupancy bounds    = [  0.000:  1.000]
     DN spin occupancy bounds    = [  0.000:  1.000]
     ~~~~~~~~~~~~~~~~~~~~~~~~~~~~~~~~~~~~~~~~~~~~~~~~~~~~~~~~~~~




################################################################################
########################### NGWF CG iteration  004 #############################
################################################################################

>>> Checking for convergence of NGWFs:   NOT CONVERGED
  ========================================================================
         NGWF RMS gradient =  2.9341E-05 >  1.0000E-06  | above tolerance
  Maximum change in energy =  4.6779E-03 >  1.0000E-07  | above tolerance
  ========================================================================

>>> Improving NGWFs using line search:
  ========================================================================
   Predicted total energy    =      -1.76272347289621E+04 Eh
   Predicted gain in energy  =      -5.70662940786860E-01 Eh
  ========================================================================

Writing NGWFs to file "Cr2I6_bilayer_LT_FM_FM_SP.tightbox_ngwfs".... done

>>> Optimising kernel for current NGWFs:
   iter  |      energy (Eh)       | rms gradient |  commutator  |   dE (Eh)
    1        -1.762722468710E+04     8.4231E-05     4.3026E-05
    2        -1.762723384190E+04     4.0599E-05     2.1162E-05    -9.1548E-03
    3        -1.762723562373E+04     2.3558E-05     1.2130E-05    -1.7818E-03
    4        -1.762723666467E+04     2.4401E-05     1.2701E-05    -1.0409E-03
    5        -1.762723740146E+04     1.2189E-05     6.2663E-06    -7.3678E-04
Finished density kernel iterations (   5)

Writing density kernel to file "Cr2I6_bilayer_LT_FM_FM_SP.dkn" ... done


>>> Density kernel optimised for the current NGWF basis:
     ~~~~~~~~~~~~~~~~~~~~~~~~~~~~~~~~~~~~~~~~~~~~~~~~~~~~~~~~~~~
     Total energy                =  -1.76272374014555E+04  Eh
     Estimated bandgap (UP spin) =   4.2349E-02  Eh
     Estimated bandgap (DN spin) =   1.1934E-01  Eh
     RMS occupancy error         =   8.6558E-11
     [H,K] commutator            =   6.2663E-06
     UP spin occupancy bounds    = [  0.000:  1.000]
     DN spin occupancy bounds    = [  0.000:  1.000]
     ~~~~~~~~~~~~~~~~~~~~~~~~~~~~~~~~~~~~~~~~~~~~~~~~~~~~~~~~~~~




################################################################################
########################### NGWF CG iteration  005 #############################
################################################################################

>>> Checking for convergence of NGWFs:   NOT CONVERGED
  ========================================================================
         NGWF RMS gradient =  2.0338E-05 >  1.0000E-06  | above tolerance
  Maximum change in energy =  1.9630E-03 >  1.0000E-07  | above tolerance
  ========================================================================

>>> Improving NGWFs using line search:
  ========================================================================
   Predicted total energy    =      -1.76273926483054E+04 Eh
   Predicted gain in energy  =      -1.55246849939431E-01 Eh
  ========================================================================

Writing NGWFs to file "Cr2I6_bilayer_LT_FM_FM_SP.tightbox_ngwfs".... done

>>> Optimising kernel for current NGWFs:
   iter  |      energy (Eh)       | rms gradient |  commutator  |   dE (Eh)
    1        -1.762739216069E+04     1.0349E-05     5.2508E-06
    2        -1.762739237194E+04     1.5335E-05     7.5595E-06    -2.1125E-04
    3        -1.762739264764E+04     1.6676E-05     8.5907E-06    -2.7570E-04
    4        -1.762739292702E+04     1.6437E-05     8.1924E-06    -2.7938E-04
    5        -1.762739317875E+04     1.8059E-05     9.2422E-06    -2.5173E-04
Finished density kernel iterations (   5)

Writing density kernel to file "Cr2I6_bilayer_LT_FM_FM_SP.dkn" ... done


>>> Density kernel optimised for the current NGWF basis:
     ~~~~~~~~~~~~~~~~~~~~~~~~~~~~~~~~~~~~~~~~~~~~~~~~~~~~~~~~~~~
     Total energy                =  -1.76273931787523E+04  Eh
     Estimated bandgap (UP spin) =   4.2136E-02  Eh
     Estimated bandgap (DN spin) =   1.1957E-01  Eh
     RMS occupancy error         =   2.8651E-10
     [H,K] commutator            =   9.2422E-06
     UP spin occupancy bounds    = [  0.000:  1.000]
     DN spin occupancy bounds    = [  0.000:  1.000]
     ~~~~~~~~~~~~~~~~~~~~~~~~~~~~~~~~~~~~~~~~~~~~~~~~~~~~~~~~~~~




################################################################################
########################### NGWF CG iteration  006 #############################
################################################################################

>>> Checking for convergence of NGWFs:   NOT CONVERGED
  ========================================================================
         NGWF RMS gradient =  1.3671E-05 >  1.0000E-06  | above tolerance
  Maximum change in energy =  9.9537E-04 >  1.0000E-07  | above tolerance
  ========================================================================

>>> Improving NGWFs using line search:
  ========================================================================
   Predicted total energy    =      -1.76275108735402E+04 Eh
   Predicted gain in energy  =      -1.17694787899381E-01 Eh
  ========================================================================

Writing NGWFs to file "Cr2I6_bilayer_LT_FM_FM_SP.tightbox_ngwfs".... done

>>> Optimising kernel for current NGWFs:
   iter  |      energy (Eh)       | rms gradient |  commutator  |   dE (Eh)
    1        -1.762750800979E+04     1.9764E-05     9.9678E-06
    2        -1.762750887064E+04     1.7730E-05     8.7450E-06    -8.6085E-04
    3        -1.762750916090E+04     7.5118E-06     3.7812E-06    -2.9026E-04
    4        -1.762750923314E+04     5.1193E-06     2.5863E-06    -7.2240E-05
[...]
*    I     436     -0.00273969  -0.00489982  -0.00824144 *
*    I     437     -0.00287386   0.00484580  -0.00823092 *
*    I     438     -0.00559477   0.00002528   0.01051480 *
*    I     439      0.00281170   0.00480723   0.01051360 *
*    I     440      0.00276603  -0.00486151   0.01051186 *
*    Cr    441      0.00014066   0.00007348  -0.00025735 *
*    Cr    442      0.00001122   0.00002031   0.00024744 *
*    I     443      0.00559201  -0.00003365  -0.01051693 *
*    I     444     -0.00281761  -0.00481131  -0.01051963 *
*    I     445     -0.00276325   0.00486130  -0.01051511 *
*    I     446     -0.00562874  -0.00008636   0.00825314 *
*    I     447      0.00276765   0.00488150   0.00821304 *
*    I     448      0.00289300  -0.00484702   0.00822512 *
*    Cr    449     -0.00001193   0.00000234  -0.00022486 *
*    Cr    450     -0.00001866   0.00014948   0.00026213 *
*    I     451      0.00563291   0.00008211  -0.00823534 *
*    I     452     -0.00275272  -0.00488247  -0.00824157 *
*    I     453     -0.00289499   0.00484718  -0.00822331 *
*    I     454     -0.00559165   0.00002437   0.01051113 *
*    I     455      0.00281484   0.00480919   0.01051777 *
*    I     456      0.00276359  -0.00486341   0.01051499 *
*    Cr    457      0.00014948   0.00008391  -0.00026136 *
*    Cr    458      0.00002274   0.00000955   0.00022698 *
*    I     459      0.00559148  -0.00003261  -0.01051367 *
*    I     460     -0.00281800  -0.00481132  -0.01051775 *
*    I     461     -0.00276511   0.00486029  -0.01051347 *
*    I     462     -0.00563422  -0.00007974   0.00824356 *
*    I     463      0.00274165   0.00489849   0.00823276 *
*    I     464      0.00288145  -0.00484475   0.00824285 *
*    Cr    465     -0.00000156  -0.00000507  -0.00024319 *
*    Cr    466     -0.00001603  -0.00001727   0.00027954 *
*    I     467      0.00563164   0.00008988  -0.00824506 *
*    I     468     -0.00275778  -0.00487289  -0.00823110 *
*    I     469     -0.00291086   0.00484821  -0.00820919 *
*    I     470     -0.00559589   0.00002156   0.01051453 *
*    I     471      0.00280840   0.00480741   0.01051680 *
*    I     472      0.00276274  -0.00486493   0.01051290 *
*    Cr    473      0.00014880   0.00007655  -0.00025180 *
*    Cr    474      0.00012770  -0.00005223   0.00027015 *
*    I     475      0.00559311  -0.00003308  -0.01051407 *
*    I     476     -0.00281719  -0.00481403  -0.01052025 *
*    I     477     -0.00276341   0.00486044  -0.01051299 *
*    I     478     -0.00563257  -0.00006842   0.00823352 *
*    I     479      0.00272136   0.00491954   0.00822584 *
*    I     480      0.00286980  -0.00484153   0.00825001 *
*    Cr    481      0.00000056  -0.00000543  -0.00024565 *
*    Cr    482     -0.00001821  -0.00001968   0.00025660 *
*    I     483      0.00563516   0.00010846  -0.00824120 *
*    I     484     -0.00275137  -0.00488087  -0.00822941 *
*    I     485     -0.00289835   0.00487049  -0.00818301 *
*    I     486     -0.00559071   0.00002391   0.01051160 *
*    I     487      0.00280958   0.00480709   0.01051613 *
*    I     488      0.00276478  -0.00485935   0.01051238 *
*    Cr    489      0.00000836  -0.00000632  -0.00027905 *
*    Cr    490      0.00014367  -0.00006467   0.00028545 *
*    I     491      0.00559159  -0.00002607  -0.01051505 *
*    I     492     -0.00281484  -0.00481236  -0.01051680 *
*    I     493     -0.00276295   0.00486487  -0.01051683 *
*    I     494     -0.00563330  -0.00005921   0.00821431 *
*    I     495      0.00272536   0.00488639   0.00824706 *
*    I     496      0.00287188  -0.00483818   0.00825560 *
*    Cr    497      0.00000052  -0.00000889  -0.00024989 *
*    Cr    498     -0.00001907  -0.00000808   0.00024107 *
*    I     499      0.00564053   0.00008892  -0.00821817 *
*    I     500     -0.00273283  -0.00492322  -0.00820423 *
*    I     501     -0.00284800   0.00484768  -0.00823442 *
*    I     502     -0.00559077   0.00002511   0.01051216 *
*    I     503      0.00281468   0.00480692   0.01051824 *
*    I     504      0.00276421  -0.00486216   0.01051459 *
*    Cr    505      0.00001235   0.00001212  -0.00033264 *
*    Cr    506      0.00000771   0.00001531   0.00029879 *
*    I     507      0.00559278  -0.00002955  -0.01051421 *
*    I     508     -0.00281507  -0.00481337  -0.01051713 *
*    I     509     -0.00276534   0.00485997  -0.01051463 *
*    I     510     -0.00561908  -0.00009005   0.00825028 *
*    I     511      0.00272810   0.00486854   0.00826465 *
*    I     512      0.00286249  -0.00482737   0.00826129 *
*    Cr    513     -0.00000051  -0.00001116  -0.00024741 *
*    Cr    514     -0.00003724   0.00000200   0.00028570 *
*    I     515      0.00564621   0.00009619  -0.00821291 *
*    I     516     -0.00271970  -0.00490917  -0.00824448 *
*    I     517     -0.00285711   0.00484644  -0.00822840 *
*    I     518     -0.00559170   0.00002487   0.01051506 *
*    I     519      0.00281234   0.00480465   0.01051624 *
*    I     520      0.00276466  -0.00486077   0.01051193 *
*    Cr    521      0.00002510  -0.00001046  -0.00035779 *
*    Cr    522      0.00000445   0.00002755   0.00029072 *
*    I     523      0.00559091  -0.00003229  -0.01051505 *
*    I     524     -0.00281848  -0.00481165  -0.01051926 *
*    I     525     -0.00276452   0.00486233  -0.01051546 *
*    I     526     -0.00562027  -0.00009231   0.00825886 *
*    I     527      0.00272012   0.00488735   0.00826124 *
*    I     528      0.00290243  -0.00483739   0.00823137 *
*    Cr    529     -0.00000121  -0.00001608  -0.00024819 *
*    Cr    530     -0.00002877  -0.00001529   0.00026756 *
*    I     531      0.00565445   0.00009694  -0.00820618 *
*    I     532     -0.00273275  -0.00489769  -0.00824589 *
*    I     533     -0.00285248   0.00485190  -0.00822747 *
*    I     534     -0.00559140   0.00002164   0.01051221 *
*    I     535      0.00281194   0.00480659   0.01051417 *
*    I     536      0.00276657  -0.00485979   0.01051223 *
*    Cr    537      0.00000941  -0.00001087  -0.00028558 *
*    Cr    538      0.00000596   0.00000929   0.00027209 *
*    I     539      0.00558890  -0.00002957  -0.01051279 *
*    I     540     -0.00281545  -0.00481196  -0.01051829 *
*    I     541     -0.00276408   0.00485994  -0.01051420 *
*    I     542     -0.00561922  -0.00008133   0.00825659 *
*    I     543      0.00272275   0.00489266   0.00824129 *
*    I     544      0.00289507  -0.00484021   0.00823923 *
*    Cr    545     -0.00011892   0.00006044  -0.00026959 *
*    Cr    546     -0.00002617   0.00014653   0.00025653 *
*    I     547      0.00564854   0.00010498  -0.00821937 *
*    I     548     -0.00274195  -0.00489058  -0.00825475 *
*    I     549     -0.00287180   0.00485365  -0.00822182 *
*    I     550     -0.00559596   0.00002049   0.01051348 *
*    I     551      0.00281457   0.00481008   0.01051930 *
*    I     552      0.00276197  -0.00486556   0.01051559 *
*    Cr    553      0.00000730   0.00000388  -0.00027143 *
*    Cr    554      0.00001132   0.00001337   0.00024284 *
*    I     555      0.00558921  -0.00003221  -0.01051369 *
*    I     556     -0.00281903  -0.00481103  -0.01051946 *
*    I     557     -0.00276506   0.00485963  -0.01051486 *
*    I     558     -0.00561700  -0.00007421   0.00826344 *
*    I     559      0.00276884   0.00488025   0.00821295 *
*    I     560      0.00290891  -0.00484707   0.00822455 *
*    Cr    561     -0.00001291  -0.00000516  -0.00024395 *
*    Cr    562     -0.00001985  -0.00001399   0.00027867 *
*    I     563      0.00564489   0.00010869  -0.00823429 *
*    I     564     -0.00276053  -0.00486614  -0.00825058 *
*    I     565     -0.00287114   0.00486837  -0.00820213 *
*    I     566     -0.00559414   0.00002446   0.01051423 *
*    I     567      0.00280944   0.00480710   0.01051434 *
*    I     568      0.00276175  -0.00486605   0.01051423 *
*    Cr    569      0.00000619  -0.00000407  -0.00028363 *
*    Cr    570      0.00001772   0.00000578   0.00024326 *
*    I     571      0.00558945  -0.00003122  -0.01051488 *
*    I     572     -0.00281734  -0.00481066  -0.01051775 *
*    I     573     -0.00276304   0.00486501  -0.01051539 *
*    I     574     -0.00562053  -0.00006061   0.00824671 *
*    I     575      0.00273143   0.00491715   0.00820970 *
*    I     576      0.00288788  -0.00484639   0.00824041 *
*                                                        *
**********************************************************
* TOTAL:           -0.00000000   0.00000000   0.00000000 *
**********************************************************
 
 
***********************************************************
********** Summary of Forces (values in Eh/a) *************
*                                                         *
* ---------------------- Minimum ------------------------ *
* Atom:       337, |F|min =    0.00019818                 *
* Components:     Fx|min       Fy|min       Fz|min        *
*              -0.00000854  -0.00000368  -0.00019796      *
*                                                         *
* ---------------------- Maximum ------------------------ *
* Atom:        72, |F|max =    0.01191344                 *
* Components:     Fx|max       Fy|max       Fz|max        *
*               0.00276056  -0.00486778   0.01051732      *
*                                                         *
* ---------------- Root Mean Square Force --------------- *
*                  |F|rms =    0.00951185                 *
* Components:     Fx|rms       Fy|rms       Fz|rms        *
*               0.00343460   0.00343162   0.00817941      *
***********************************************************
 

------------------------------ TIMING INFORMATION ------------------------------
AVERAGE TIME:   60287.398s on    150 proc(s)                                    
TOTAL TIME:     60287.400s on    150 proc(s)                                    
==================== AVERAGE TIMINGS FROM ALL PROCS (CUMULATIVE) =====================
|| TAG                                         #calls     cpu time   %total  Gflops ||
|| hubbard_species_proj                       :     1        0.00s   0.000%  ------ ||
|| sw_bessel_init_cpu                         :     1        0.01s   0.000%  ------ || (1 procs only)
|| hubbard_projector_character                :     1        0.00s   0.000%  ------ ||
|| hubbard_ngwf_select                        :     1        0.00s   0.000%  ------ ||
|| density_fftbox_interp_mult_imbal           : 33700        0.00s   0.000%  ------ ||
|| hubbard_ngwf_on_grid                       :     1        0.00s   0.000%  ------ ||
|| hash_table_free                            :    68        0.00s   0.000%  ------ ||
|| linalg_invert_sym_matrix                   :     4        0.01s   0.000%  ------ || (144 procs only)
|| hubbard_tensorial_correction               :     2        0.01s   0.000%  ------ ||
|| onetep.F90 final imbalance                 :     1        0.02s   0.000%  ------ ||
|| ewald_calculate_forces_realspace           :     1        0.02s   0.000%  ------ ||
|| linalg_dgemv                               :    25        0.02s   0.000%  ------ ||
|| onetep.F90 main loop imbalance             :     1        0.02s   0.000%  ------ ||
|| ewald_calculate_energy                     :     1        0.04s   0.000%  ------ ||
|| ewald_calculate_forces_recipspace          :     1        0.07s   0.000%  ------ ||
|| sparse_spam3toblacs_real_fast_imbal        :   198        0.08s   0.000%  ------ ||
|| sw_init                                    :  1347        0.10s   0.000%  ------ ||
|| sparse_set_to_garbage                      :  1488        0.10s   0.000%  ------ ||
|| sparse_blacstospam3_real_fast_imbal        :   212        0.10s   0.000%  ------ ||
|| ewald_calculate_forces                     :     1        0.16s   0.000%  ------ ||
|| paw_dij_hartree                            :   722        0.18s   0.000%  ------ ||
|| pseudo_make_structure_factor               :     1        0.21s   0.000%  ------ ||
|| augmentation_density_forces                :     1        0.23s   0.000%  ------ ||
|| sparse_spam3toblacs_real_fast_B2           : 29700        0.50s   0.001%  ------ ||
|| paw_tcore_hartree_on_grid                  :     1        0.53s   0.001%  ------ ||
|| basis_extract_function_from_box            :  3264        0.54s   0.001%  ------ ||
|| restart_hamiltonian_write                  :     2        0.56s   0.001%  ------ ||
|| paw_tcore_hartree_calc_forces              :     1        0.86s   0.001%  ------ ||
|| hubbard_projection_mtx                     :    70        1.22s   0.002%  ------ ||
|| paw_dataset_init                           :     2        1.54s   0.003%  ------ ||
|| paw_tcore_density                          :     1        1.56s   0.003%  ------ ||
|| paw_nlcc_calculate_forces                  :     1        1.73s   0.003%  ------ ||
|| paw_sphere_density_on_grid                 :     1        2.10s   0.003%  ------ ||
|| sparse_init                                :     1        2.25s   0.004%  ------ ||
|| ngwfs_initialise_from_radial               :     4        2.72s   0.005%  ------ ||
|| nonsc_forces_ngwfs_calc                    :     1        3.54s   0.006%  ------ ||
|| paw_species_calc_proj_prec_mat             :     1        6.08s   0.010%  ------ ||
|| restart_kernel_write                       :    36        9.48s   0.016%  ------ ||
|| hubbard_projector_ham                      :   313       10.64s   0.018%  ------ ||
|| hubbard_ham_matrix                         :   314       10.81s   0.018%  ------ ||
|| energy_and_force_init_cell                 :     1       15.14s   0.025%  ------ ||
|| sparse_spam3toblacs_real_fast_B1           : 29700       16.75s   0.028%  ------ ||
|| sparse_spam3toblacs_real_fast              :   198       18.38s   0.030%  ------ ||
|| sparse_embed_array_hotelling_invert        :    68       19.75s   0.033%  ------ ||
|| hubbard_calculate_forces                   :     1       22.77s   0.038%  ------ ||
|| integrals_grad_spam3                       :     4       26.18s   0.043%  ------ ||
|| hubbard_projector_update                   :     1       33.99s   0.056%  ------ ||
|| sparse_blacstospam3_real_fast              :   212       34.05s   0.056%  ------ ||
|| hubbard_energy_total                       :   686       35.28s   0.059%  ------ ||
|| projectors_func_grad_ovlp_box_spam3        :     6       36.22s   0.060%  ------ ||
|| aug_nl_calculate_forces                    :     1       37.42s   0.062%  ------ ||
|| fourier_filter_cell                        :   696       38.33s   0.064% 321.982 ||
|| ngwf_gradient_coeffs                       :    34       38.68s   0.064%  ------ ||
|| hamiltonian_energy_components              :     1       41.35s   0.069%  ------ ||
|| eigenstates_calculate                      :     1       48.53s   0.081%  ------ ||
|| fourier_apply_box_pair                     :  4992       50.61s   0.084%  5.771k ||
|| dense_eigensolve                           :    96       59.52s   0.099%  ------ ||
|| sparse_trace                               : 21242       61.38s   0.102%  ------ ||
|| basis_copy_function_to_box                 : 52905       61.77s   0.102%  ------ ||
|| hartree_on_grid_single                     :   673       62.23s   0.103%  ------ ||
|| edft_diag_ngwf_ham                         :    94       75.91s   0.126%  ------ ||
|| density_init_guess_real                    :     2       76.84s   0.127%  ------ ||
|| fourier_interpolate_cell                   :  1348       90.09s   0.149% 265.357 ||
|| kernel_fix                                 :   296      105.31s   0.175%  ------ ||
|| kernel_purify                              :   951      107.37s   0.178%  ------ ||
|| edft_apply_smearing_operator               :    47      121.94s   0.202%  ------ ||
|| lnv_gradient_norm                          :   296      126.40s   0.210%  ------ ||
|| augmentation_screen_dij_spam3              :   672      143.26s   0.238%  ------ ||
|| forces_calculate                           :     1      144.20s   0.239%  ------ ||
|| paw_dij_xc                                 :   722      229.64s   0.381%  ------ ||
|| aug_nonlocal_mat_spam3_embed_array         :   687      243.77s   0.404%  ------ ||
|| projectors_init_fftbox_recip               :   693      245.27s   0.407%  ------ ||
|| fourier_apply_cell_backward                :  6058      290.29s   0.482% 332.900 ||
|| cell_grid_extract_box_real                 : 26146      339.33s   0.563%  ------ ||
|| cell_grid_deposit_box_real                 : 42430      342.49s   0.568%  ------ ||
|| fourier_filter                             :  9469      376.97s   0.625%  ------ ||
|| fourier_apply_cell_forward                 :  6058      411.48s   0.683% 234.856 ||
|| restart_ngwfs_tightbox_output              :    33      453.03s   0.751%  ------ ||
|| aug_density_on_grid_spam3                  :   674      483.78s   0.802%  ------ ||
|| properties_calculate                       :     1      553.34s   0.918%  ------ ||
|| sparse_product                             : 39654      636.47s   1.056%  ------ ||
|| function_ops_brappd_ketppd_spam3           :   276      660.99s   1.096%  ------ ||
|| xc_energy_potential                        :   673      709.38s   1.177%  ------ ||
|| fourier_interpolate                        :  9469      721.29s   1.196%  ------ ||
|| projectors_func_ovlp_box_spam3             :   278     1032.52s   1.713%  ------ ||
|| integrals_kinetic_spam3                    :   136     1482.29s   2.459%  ------ ||
|| basis_dot_function_with_box                : 31.55M    2356.14s   3.908%  ------ ||
|| density_fftbox_deposit_to_cell             : 33700     2360.96s   3.916%  ------ ||
|| projectors_gradient_batch                  :   272     2375.95s   3.941%  ------ ||
|| edft_calculate                             :     1     2671.56s   4.431%  ------ ||
|| potential_apply_to_ngwf_batch              :  1256     4197.43s   6.962%  ------ ||
|| basis_add_function_to_box                  : 68.52M    5733.14s   9.510%  ------ ||
|| fourier_apply_box                          : 153.1k    5899.69s   9.786%  5.389k ||
|| fourier_interpolate_product                : 32352     6418.13s  10.646%  ------ ||
|| integrals_locpot_mat_els_batch             :  1256     6425.70s  10.658%  ------ ||
|| density_fftbox_interpolate_multiply        : 33700     6677.02s  11.075%  ------ ||
|| projectors_grad_precond_batch              :   136     6881.81s  11.415%  ------ ||
|| integrals_locpot_dbl_grid                  :   628    10659.33s  17.681%  ------ ||
|| ngwf_gradient_build_batch                  :   136    10767.94s  17.861%  ------ ||
|| density_batch_interp_deposit               :  2696    12310.53s  20.420%  ------ ||
|| density_batch_row_sums                     :  2696    12900.21s  21.398%  ------ ||
|| ngwf_gradient_batch                        :   136    15636.83s  25.937%  ------ ||
|| ngwf_gradient_lnv                          :    34    16328.51s  27.084%  ------ ||
|| density_on_dbl_grid                        :  1348    25610.25s  42.480%  ------ ||
|| hamiltonian_lhxc_calculate                 :   670    27253.65s  45.206%  ------ ||
|| lnv_denskernel_optimise_cg                 :    34    34719.95s  57.591%  ------ ||
|| ngwf_cg_optimise                           :     1    56674.02s  94.006%  ------ ||
|| energy_and_forces                          :     1    60270.86s  99.973%  ------ ||
|| total_time                                 :     1    60287.40s 100.000%  ------ ||
======================================================================================
Overhead of generating timer report: 
- 0 ms averaging over threads,
- 10 ms ensuring consistency across MPI ranks,
- 1 ms printing in order.

Job completed: 30-05-2025 08:08 (+0100)

onetep_launcher: ONETEP seems to have finished correctly (zero exit code).
                 Brought to you by PID 257538 on nid001082.
