==================================================================================
It's Mon 12 May 2025 04:32:32 PM BST.
*** Starting onetep_launcher (node nid001554, PIDs 110266 110267 110268 110269 110270 110271)...
    - ONETEP arguments: Cr2I6_bilayer_LT_FM_AFM_nSP.dat
    - Current directory: /mnt/lustre/a2fs-work3/work/e89/e89/phsmea/CrI3_onetep_U/U_2.97/LT_FM/LT_FM_AFM_J/nsp
    - Launcher executable directory: /mnt/lustre/a2fs-work3/work/e89/e89/phsmea/CrI3_onetep_U/U_2.97/LT_FM/LT_FM_AFM_J/nsp
    - (-e) ONETEP executable specified through command-line: /work/e89/e89/phsmea/onetep.archer2_2024_cray
      ... trying /work/e89/e89/phsmea/onetep.archer2_2024_cray
          -> looks OK
*** Setting up environment...
    - (-s) Process stack size: unlimited
    - (-t) OMP_NUM_THREADS: 16
    - (-o) OMP_STACKSIZE: 64M
    - (-c) Maximum core file size: 2048000
    - (-d) decfort_dump_flag: n
    - (-m) I_MPI_OFA_TRANSLATION_CACHE: 0
    - (-m) I_MPI_DAPL_TRANSLATION_CACHE: 0
    - (-m) I_MPI_DAPL_UD_TRANSLATION_CACHE: 0
*** Starting ONETEP...
    - /work/e89/e89/phsmea/onetep.archer2_2024_cray Cr2I6_bilayer_LT_FM_AFM_nSP.dat
=================================================================================
_________________________________________________________________________________
 +---------------------------------------------------------------+
 |                                                               |
 |        ####### #     # ####### ####### ####### ######         |
 |        #     # ##    # #          #    #       #     #        |
 |        #     # # #   # #          #    #       #     #        |
 |        #     # #  #  # #####      #    #####   ######         |
 |        #     # #   # # #          #    #       #              |
 |        #     # #    ## #          #    #       #              |
 |        ####### #     # #######    #    ####### #              |
 |                                                               |
 |        Linear-Scaling Ab Initio Total Energy Program          |
 |                                                               |
 |          Release for academic collaborators of ODG            |
 |                                             Version 7.3.0     |
 | Remote: git@github.com:Miesaz/onetep_mea.git                  |
 | Local branch: master                                          |
 | Commit ID: 4af45e89288c8df5499704252eec3e032ee3d0c8           |
 | Date: Tue Aug 6 11:28:44 2024 +0100                           |
 | Working tree clean                                            |
 |                                                               |
 +---------------------------------------------------------------+
 |                                                               |
 |  Authors:                                                     |
 |  Jacek Dziedzic, Peter D. Haynes, Nicholas D. M. Hine,        |
 |  Arash A. Mostofi, Mike C. Payne and Chris-Kriton Skylaris    |
 |                                                               |
 |  Contributors:                                                |
 |  J. Aarons, L. Andrinopoulos, P. W. Avraam, R. A. Bell,       |
 |  A. Bhandari, G. A. Bramley, R. J. Charlton, S. J. Clark,     |
 |  R. J. Clements, G. C. Constantinescu, F. Corsetti,           |
 |  N. Corsini, O. Dieguez, S. M. M. Dubois, K. K. B. Duff,      |
 |  J. M. Escartin, M. Escobar Azor, A. Greco,                   |
 |  H. Helal, Q. O. Hill, L. P. Lee, J.-H. Li,                   |
 |  T. Li, E. B. Linscott, G. Moynihan, D. D. O`Regan,           |
 |  O. K. Okan, E. Parkinson, M. J. S. Phipps,                   |
 |  C. J. Pickard, J. C. A. Prentice, M. I. J. Probert,          |
 |  L. E. Ratcliff, M. Robinson, A. Ruiz Serrano,                |
 |  M. dos Santos Dias, J. S. Spencer, E. W. Tait,               |
 |  G. Teobaldi, D. Turban, V. Vitale, K. A. Wilkinson,          |
 |  C. Weber, J. C. Womack, Chengcheng Xiao, N. Yeung,           |
 |  and T. J. Zuehlsdorff.                                       |
 |                                                               |
 |                                   Copyright (c) 2004-2024     |
 |                                                               |
 |  Please cite:                                                 |
 |  "The ONETEP linear-scaling density functional theory program"|
 |   J. Chem. Phys. 152(17) 174111 (2020)                        |
 |                                                               |
 |          in all publications arising from your use of ONETEP. |
 |                                                               |
 +---------------------------------------------------------------+
 |                                                               |
 |   ONETEP is based on developments described in the following  |
 |   publications:                                               |
 |                                                               |
 |  "Nonorthogonal generalized Wannier function pseudopotential  |
 |   plane-wave method".                                         |
 |   C.-K. Skylaris, A. A. Mostofi, P. D. Haynes, O. Dieguez,    |
 |   M. C. Payne.                                                |
 |   Phys. Rev. B 66 035119 (2002).                              |
 |                                                               |
 |  "Preconditioned iterative minimization for linear-scaling    |
 |   electronic structure calculations".                         |
 |   A. A. Mostofi, P. D. Haynes, C.-K. Skylaris, M. C. Payne.   |
 |   J. Chem. Phys. 119(17), pp.8842-8848 (2003).                |
 |                                                               |
 |  "Total-energy calculations on a real space grid with         |
 |   localized functions and a plane-wave basis".                |
 |   A. A. Mostofi, C.-K. Skylaris, P. D. Haynes, M. C. Payne.   |
 |   Comput. Phys. Commun. 147, pp.788-802 (2002).               |
 |                                                               |
 |  "Accurate kinetic energy evaluation in electronic structure  |
 |   calculations with localized functions on real space grids"  |
 |   C.-K. Skylaris, A. A. Mostofi, P. D. Haynes, C. J. Pickard, |
 |   M. C. Payne.                                                |
 |   Comput. Phys. Commun. 140, pp.315-322 (2001).               |
 |                                                               |
 |  "Accurate ionic forces and geometry optimization in linear-  |
 |   scaling density-functional theory with local orbitals"      |
 |   N. D. M. Hine, M. Robinson, P. D. Haynes, C.-K. Skylaris,   |
 |   M. C. Payne, and A. A. Mostofi.                             |
 |   Phys. Rev. B 83 195102 (2011).                              |
 |                                                               |
 +---------------------------------------------------------------+

Job started: 12-05-2025 16:32 (+0100)
 
Reading parameters from file "Cr2I6_bilayer_LT_FM_AFM_nSP.dat" ...... done

If your calculation crashes here, before "Checking processes and threads..."
is displayed, then your stack size is insufficient.
If so, use "ulimit -s unlimited" at runtime.
You can disable this check with "check_stack_size F".

Checking processes and threads...
      Default threads: 16
   Running with 150 MPI processes.
   There are 6 MPI processes running on the same node as the root process.
   Each MPI process is using: 
               1 threads for simulation cell FFTs.
               1 threads for threaded FFT box operations.
              16 threads for loops over batched FFT box operations.
              16 threads in other parallel regions.
   MPI Interface: S1 (use mpi_f08) (-DMPI -DUSE_MPI_F08).
   MPI_ASYNC_PROTECTS_NONBLOCKING: Yes. MPI_SUBARRAYS_SUPPORTED: Yes.
   FFTW Interface: OMP-capable and MODERN. (-DUSE_MODERN_FFTW specified).
   GPU Interface: None.
   GPU FFT Backend: None.
... done

Basic input checks...... done

Reading geometry and species blocks from file "Cr2I6_bilayer_LT_FM_AFM_nSP.dat" ...... done


--------------------------------------------------------------------------------
---------------------------------- INPUT FILE ----------------------------------
--------------------------------------------------------------------------------

charge : 0                                                                      
cutoff_energy : 1000 eV                                                         
delta_e_conv : F                                                                
do_properties : T                                                               
edft : F                                                                        
edft_init_maxit : 15                                                            
elec_energy_tol : 1e-07 Ha                                                      
fine_grid_scale : 4                                                             
forces_output_detail : VERBOSE                                                  
MAXIT_LNV     : 15                                                              
MINIT_LNV     : 5                                                               
maxit_ngwf_cg : 100                                                             
ngwf_threshold_orig : 1e-06                                                     
ngwfs_spin_polarized : F                                                        
output_detail : NORMAL                                                          
paw : T                                                                         
read_denskern : F                                                               
read_hamiltonian : F                                                            
read_tightbox_ngwfs : F                                                         
spin : 0                                                                        
spin_polarized : T                                                              
task : SinglePoint                                                              
write_denskern : T                                                              
write_forces : T                                                                
write_hamiltonian : T                                                           
write_tightbox_ngwfs : T                                                        
xc_functional : PBE                                                             
%BLOCK LATTICE_CART                                                             
ang                                                                             
41.261892132    0.000000000    0.000000000                                      
-20.630946066   35.733846792    0.000000000                                     
0.000000000    0.000000000   27.507928088                                       
%ENDBLOCK LATTICE_CART                                                          
%BLOCK POSITIONS_ABS                                                            
ang                                                                             
Cr       2.29230603       3.97040895      17.03520929                           
Cr      -1.14615438       5.95565340      17.04368562                           
I        3.29127824       1.97929933      15.50172901                           
I        0.06846335       4.10088269      15.50172980                           
I       -3.35976942       5.83112629      15.50174515                           
I        1.29815293       1.98813153      18.57647573                           
I        1.07268127       5.82255136      18.57647595                           
I       -2.37086124       4.10061929      18.57646027                           
Cr1      5.73080703       1.98523473      10.46423698                           
Cr1      2.29229229       3.97042256      10.47271549                           
I        6.72497778      -0.00289519       8.93147663                           
I        3.51196949       2.11831465       8.93145308                           
I        0.07849930       3.84024628       8.93144278                           
I        4.73186155       0.00594958      12.00619783                           
I        4.51617900       3.83998833      12.00619302                           
I        1.06740595       2.10972815      12.00620106                           
Cr      -1.14618498       9.92605008      17.03520929                           
Cr      -4.58464539      11.91129453      17.04368562                           
I       -0.14721277       7.93494046      15.50172901                           
I       -3.37002766      10.05652383      15.50172980                           
I       -6.79826043      11.78676742      15.50174515                           
I       -2.14033808       7.94377266      18.57647573                           
I       -2.36580974      11.77819249      18.57647595                           
I       -5.80935225      10.05626043      18.57646027                           
Cr1      2.29231601       7.94087586      10.46423698                           
Cr1     -1.14619872       9.92606369      10.47271549                           
I        3.28648677       5.95274594       8.93147663                           
I        0.07347848       8.07395578       8.93145308                           
I       -3.35999171       9.79588741       8.93144278                           
I        1.29337054       5.96159071      12.00619783                           
I        1.07768799       9.79562946      12.00619302                           
I       -2.37108506       8.06536928      12.00620106                           
Cr      -4.58467600      15.88169122      17.03520929                           
Cr      -8.02313640      17.86693567      17.04368562                           
I       -3.58570378      13.89058160      15.50172901                           
I       -6.80851867      16.01216496      15.50172980                           
I      -10.23675144      17.74240855      15.50174515                           
I       -5.57882909      13.89941380      18.57647573                           
I       -5.80430075      17.73383362      18.57647595                           
I       -9.24784326      16.01190156      18.57646027                           
Cr1     -1.14617500      13.89651700      10.46423698                           
Cr1     -4.58468973      15.88170482      10.47271549                           
I       -0.15200424      11.90838708       8.93147663                           
I       -3.36501253      14.02959691       8.93145308                           
I       -6.79848272      15.75152855       8.93144278                           
I       -2.14512047      11.91723184      12.00619783                           
I       -2.36080302      15.75127059      12.00619302                           
I       -5.80957607      14.02101041      12.00620106                           
Cr      -8.02316701      21.83733235      17.03520929                           
Cr     -11.46162741      23.82257680      17.04368562                           
I       -7.02419479      19.84622273      15.50172901                           
I      -10.24700968      21.96780609      15.50172980                           
I      -13.67524245      23.69804968      15.50174515                           
I       -9.01732010      19.85505493      18.57647573                           
I       -9.24279176      23.68947476      18.57647595                           
I      -12.68633427      21.96754269      18.57646027                           
Cr1     -4.58466601      19.85215813      10.46423698                           
Cr1     -8.02318074      21.83734595      10.47271549                           
I       -3.59049526      17.86402821       8.93147663                           
I       -6.80350354      19.98523804       8.93145308                           
I      -10.23697373      21.70716968       8.93144278                           
I       -5.58361148      17.87287297      12.00619783                           
I       -5.79929403      21.70691172      12.00619302                           
I       -9.24806708      19.97665154      12.00620106                           
Cr     -11.46165802      27.79297348      17.03520929                           
Cr     -14.90011843      29.77821793      17.04368562                           
I      -10.46268580      25.80186386      15.50172901                           
I      -13.68550069      27.92344722      15.50172980                           
I      -17.11373346      29.65369082      15.50174515                           
I      -12.45581112      25.81069606      18.57647573                           
I      -12.68128277      29.64511589      18.57647595                           
I      -16.12482528      27.92318382      18.57646027                           
Cr1     -8.02315702      25.80779926      10.46423698                           
Cr1    -11.46167176      27.79298708      10.47271549                           
I       -7.02898627      23.81966934       8.93147663                           
I      -10.24199455      25.94087917       8.93145308                           
I      -13.67546474      27.66281081       8.93144278                           
I       -9.02210249      23.82851411      12.00619783                           
I       -9.23778504      27.66255286      12.00619302                           
I      -12.68655809      25.93229268      12.00620106                           
Cr     -14.90014903      33.74861461      17.03520929                           
Cr     -18.33860944      35.73385906      17.04368562                           
I      -13.90117681      31.75750499      15.50172901                           
I      -17.12399170      33.87908835      15.50172980                           
I      -20.55222447      35.60933195      15.50174515                           
I      -15.89430213      31.76633719      18.57647573                           
I      -16.11977378      35.60075702      18.57647595                           
I      -19.56331629      33.87882495      18.57646027                           
Cr1    -11.46164803      31.76344039      10.46423698                           
Cr1    -14.90016277      33.74862822      10.47271549                           
I      -10.46747728      29.77531047       8.93147663                           
I      -13.68048556      31.89652031       8.93145308                           
I      -17.11395575      33.61845194       8.93144278                           
I      -12.46059350      29.78415524      12.00619783                           
I      -12.67627606      33.61819399      12.00619302                           
I      -16.12504910      31.88793381      12.00620106                           
Cr       9.16928805       3.97040895      17.03520929                           
Cr       5.73082764       5.95565340      17.04368562                           
I       10.16826026       1.97929933      15.50172901                           
I        6.94544538       4.10088269      15.50172980                           
I        3.51721261       5.83112629      15.50174515                           
I        8.17513495       1.98813153      18.57647573                           
I        7.94966330       5.82255136      18.57647595                           
I        4.50612079       4.10061929      18.57646027                           
Cr1     12.60778905       1.98523473      10.46423698                           
Cr1      9.16927431       3.97042256      10.47271549                           
I       13.60195980      -0.00289519       8.93147663                           
I       10.38895151       2.11831465       8.93145308                           
I        6.95548132       3.84024628       8.93144278                           
I       11.60884358       0.00594958      12.00619783                           
I       11.39316102       3.83998833      12.00619302                           
I        7.94438798       2.10972815      12.00620106                           
Cr       5.73079704       9.92605008      17.03520929                           
Cr       2.29233663      11.91129453      17.04368562                           
I        6.72976925       7.93494046      15.50172901                           
I        3.50695437      10.05652383      15.50172980                           
I        0.07872159      11.78676742      15.50174515                           
I        4.73664394       7.94377266      18.57647573                           
I        4.51117228      11.77819249      18.57647595                           
I        1.06762977      10.05626043      18.57646027                           
Cr1      9.16929804       7.94087586      10.46423698                           
Cr1      5.73078330       9.92606369      10.47271549                           
I       10.16346879       5.95274594       8.93147663                           
I        6.95046050       8.07395578       8.93145308                           
I        3.51699031       9.79588741       8.93144278                           
I        8.17035256       5.96159071      12.00619783                           
I        7.95467001       9.79562946      12.00619302                           
I        4.50589697       8.06536928      12.00620106                           
Cr       2.29230603      15.88169122      17.03520929                           
Cr      -1.14615438      17.86693567      17.04368562                           
I        3.29127824      13.89058160      15.50172901                           
I        0.06846335      16.01216496      15.50172980                           
I       -3.35976942      17.74240855      15.50174515                           
I        1.29815293      13.89941380      18.57647573                           
I        1.07268127      17.73383362      18.57647595                           
I       -2.37086124      16.01190156      18.57646027                           
Cr1      5.73080703      13.89651700      10.46423698                           
Cr1      2.29229229      15.88170482      10.47271549                           
I        6.72497778      11.90838708       8.93147663                           
I        3.51196949      14.02959691       8.93145308                           
I        0.07849930      15.75152855       8.93144278                           
I        4.73186155      11.91723184      12.00619783                           
I        4.51617900      15.75127059      12.00619302                           
I        1.06740595      14.02101041      12.00620106                           
Cr      -1.14618498      21.83733235      17.03520929                           
Cr      -4.58464539      23.82257680      17.04368562                           
I       -0.14721277      19.84622273      15.50172901                           
I       -3.37002766      21.96780609      15.50172980                           
I       -6.79826043      23.69804968      15.50174515                           
I       -2.14033808      19.85505493      18.57647573                           
I       -2.36580974      23.68947476      18.57647595                           
I       -5.80935225      21.96754269      18.57646027                           
Cr1      2.29231601      19.85215813      10.46423698                           
Cr1     -1.14619872      21.83734595      10.47271549                           
I        3.28648677      17.86402821       8.93147663                           
I        0.07347848      19.98523804       8.93145308                           
I       -3.35999171      21.70716968       8.93144278                           
I        1.29337054      17.87287297      12.00619783                           
I        1.07768799      21.70691172      12.00619302                           
I       -2.37108506      19.97665154      12.00620106                           
Cr      -4.58467600      27.79297348      17.03520929                           
Cr      -8.02313640      29.77821793      17.04368562                           
I       -3.58570378      25.80186386      15.50172901                           
I       -6.80851867      27.92344722      15.50172980                           
I      -10.23675144      29.65369082      15.50174515                           
I       -5.57882909      25.81069606      18.57647573                           
I       -5.80430075      29.64511589      18.57647595                           
I       -9.24784326      27.92318382      18.57646027                           
Cr1     -1.14617500      25.80779926      10.46423698                           
Cr1     -4.58468973      27.79298708      10.47271549                           
I       -0.15200424      23.81966934       8.93147663                           
I       -3.36501253      25.94087917       8.93145308                           
I       -6.79848272      27.66281081       8.93144278                           
I       -2.14512047      23.82851411      12.00619783                           
I       -2.36080302      27.66255286      12.00619302                           
I       -5.80957607      25.93229268      12.00620106                           
Cr      -8.02316701      33.74861461      17.03520929                           
Cr     -11.46162741      35.73385906      17.04368562                           
I       -7.02419479      31.75750499      15.50172901                           
I      -10.24700968      33.87908835      15.50172980                           
I      -13.67524245      35.60933195      15.50174515                           
I       -9.01732010      31.76633719      18.57647573                           
I       -9.24279176      35.60075702      18.57647595                           
I      -12.68633427      33.87882495      18.57646027                           
Cr1     -4.58466601      31.76344039      10.46423698                           
Cr1     -8.02318074      33.74862822      10.47271549                           
I       -3.59049526      29.77531047       8.93147663                           
I       -6.80350354      31.89652031       8.93145308                           
I      -10.23697373      33.61845194       8.93144278                           
I       -5.58361148      29.78415524      12.00619783                           
I       -5.79929403      33.61819399      12.00619302                           
I       -9.24806708      31.88793381      12.00620106                           
Cr      16.04627007       3.97040895      17.03520929                           
Cr      12.60780966       5.95565340      17.04368562                           
I       17.04524228       1.97929933      15.50172901                           
I       13.82242740       4.10088269      15.50172980                           
I       10.39419463       5.83112629      15.50174515                           
I       15.05211697       1.98813153      18.57647573                           
I       14.82664532       5.82255136      18.57647595                           
I       11.38310281       4.10061929      18.57646027                           
Cr1     19.48477107       1.98523473      10.46423698                           
Cr1     16.04625633       3.97042256      10.47271549                           
I       20.47894182      -0.00289519       8.93147663                           
I       17.26593353       2.11831465       8.93145308                           
I       13.83246335       3.84024628       8.93144278                           
I       18.48582560       0.00594958      12.00619783                           
I       18.27014304       3.83998833      12.00619302                           
I       14.82137000       2.10972815      12.00620106                           
Cr      12.60777906       9.92605008      17.03520929                           
Cr       9.16931865      11.91129453      17.04368562                           
I       13.60675127       7.93494046      15.50172901                           
I       10.38393639      10.05652383      15.50172980                           
I        6.95570362      11.78676742      15.50174515                           
I       11.61362596       7.94377266      18.57647573                           
I       11.38815431      11.77819249      18.57647595                           
I        7.94461180      10.05626043      18.57646027                           
Cr1     16.04628006       7.94087586      10.46423698                           
Cr1     12.60776532       9.92606369      10.47271549                           
I       17.04045081       5.95274594       8.93147663                           
I       13.82744252       8.07395578       8.93145308                           
I       10.39397233       9.79588741       8.93144278                           
I       15.04733459       5.96159071      12.00619783                           
I       14.83165203       9.79562946      12.00619302                           
I       11.38287899       8.06536928      12.00620106                           
Cr       9.16928805      15.88169122      17.03520929                           
Cr       5.73082764      17.86693567      17.04368562                           
I       10.16826026      13.89058160      15.50172901                           
I        6.94544538      16.01216496      15.50172980                           
I        3.51721261      17.74240855      15.50174515                           
I        8.17513495      13.89941380      18.57647573                           
I        7.94966330      17.73383362      18.57647595                           
I        4.50612079      16.01190156      18.57646027                           
Cr1     12.60778905      13.89651700      10.46423698                           
Cr1      9.16927431      15.88170482      10.47271549                           
I       13.60195980      11.90838708       8.93147663                           
I       10.38895151      14.02959691       8.93145308                           
I        6.95548132      15.75152855       8.93144278                           
I       11.60884358      11.91723184      12.00619783                           
I       11.39316102      15.75127059      12.00619302                           
I        7.94438798      14.02101041      12.00620106                           
Cr       5.73079704      21.83733235      17.03520929                           
Cr       2.29233663      23.82257680      17.04368562                           
I        6.72976925      19.84622273      15.50172901                           
I        3.50695437      21.96780609      15.50172980                           
I        0.07872159      23.69804968      15.50174515                           
I        4.73664394      19.85505493      18.57647573                           
I        4.51117228      23.68947476      18.57647595                           
I        1.06762977      21.96754269      18.57646027                           
Cr1      9.16929804      19.85215813      10.46423698                           
Cr1      5.73078330      21.83734595      10.47271549                           
I       10.16346879      17.86402821       8.93147663                           
I        6.95046050      19.98523804       8.93145308                           
I        3.51699031      21.70716968       8.93144278                           
I        8.17035256      17.87287297      12.00619783                           
I        7.95467001      21.70691172      12.00619302                           
I        4.50589697      19.97665154      12.00620106                           
Cr       2.29230603      27.79297348      17.03520929                           
Cr      -1.14615438      29.77821793      17.04368562                           
I        3.29127824      25.80186386      15.50172901                           
I        0.06846335      27.92344722      15.50172980                           
I       -3.35976942      29.65369082      15.50174515                           
I        1.29815293      25.81069606      18.57647573                           
I        1.07268127      29.64511589      18.57647595                           
I       -2.37086124      27.92318382      18.57646027                           
Cr1      5.73080703      25.80779926      10.46423698                           
Cr1      2.29229229      27.79298708      10.47271549                           
I        6.72497778      23.81966934       8.93147663                           
I        3.51196949      25.94087917       8.93145308                           
I        0.07849930      27.66281081       8.93144278                           
I        4.73186155      23.82851411      12.00619783                           
I        4.51617900      27.66255286      12.00619302                           
I        1.06740595      25.93229268      12.00620106                           
Cr      -1.14618498      33.74861461      17.03520929                           
Cr      -4.58464539      35.73385906      17.04368562                           
I       -0.14721277      31.75750499      15.50172901                           
I       -3.37002766      33.87908835      15.50172980                           
I       -6.79826043      35.60933195      15.50174515                           
I       -2.14033808      31.76633719      18.57647573                           
I       -2.36580974      35.60075702      18.57647595                           
I       -5.80935225      33.87882495      18.57646027                           
Cr1      2.29231601      31.76344039      10.46423698                           
Cr1     -1.14619872      33.74862822      10.47271549                           
I        3.28648677      29.77531047       8.93147663                           
I        0.07347848      31.89652031       8.93145308                           
I       -3.35999171      33.61845194       8.93144278                           
I        1.29337054      29.78415524      12.00619783                           
I        1.07768799      33.61819399      12.00619302                           
I       -2.37108506      31.88793381      12.00620106                           
Cr      22.92325209       3.97040895      17.03520929                           
Cr      19.48479168       5.95565340      17.04368562                           
I       23.92222431       1.97929933      15.50172901                           
I       20.69940942       4.10088269      15.50172980                           
I       17.27117665       5.83112629      15.50174515                           
I       21.92909899       1.98813153      18.57647573                           
I       21.70362734       5.82255136      18.57647595                           
I       18.26008483       4.10061929      18.57646027                           
Cr1     26.36175309       1.98523473      10.46423698                           
Cr1     22.92323835       3.97042256      10.47271549                           
I       27.35592384      -0.00289519       8.93147663                           
I       24.14291556       2.11831465       8.93145308                           
I       20.70944537       3.84024628       8.93144278                           
I       25.36280762       0.00594958      12.00619783                           
I       25.14712507       3.83998833      12.00619302                           
I       21.69835202       2.10972815      12.00620106                           
Cr      19.48476108       9.92605008      17.03520929                           
Cr      16.04630067      11.91129453      17.04368562                           
I       20.48373330       7.93494046      15.50172901                           
I       17.26091841      10.05652383      15.50172980                           
I       13.83268564      11.78676742      15.50174515                           
I       18.49060798       7.94377266      18.57647573                           
I       18.26513633      11.77819249      18.57647595                           
I       14.82159382      10.05626043      18.57646027                           
Cr1     22.92326208       7.94087586      10.46423698                           
Cr1     19.48474734       9.92606369      10.47271549                           
I       23.91743283       5.95274594       8.93147663                           
I       20.70442455       8.07395578       8.93145308                           
I       17.27095436       9.79588741       8.93144278                           
I       21.92431661       5.96159071      12.00619783                           
I       21.70863405       9.79562946      12.00619302                           
I       18.25986101       8.06536928      12.00620106                           
Cr      16.04627007      15.88169122      17.03520929                           
Cr      12.60780966      17.86693567      17.04368562                           
I       17.04524228      13.89058160      15.50172901                           
I       13.82242740      16.01216496      15.50172980                           
I       10.39419463      17.74240855      15.50174515                           
I       15.05211697      13.89941380      18.57647573                           
I       14.82664532      17.73383362      18.57647595                           
I       11.38310281      16.01190156      18.57646027                           
Cr1     19.48477107      13.89651700      10.46423698                           
Cr1     16.04625633      15.88170482      10.47271549                           
I       20.47894182      11.90838708       8.93147663                           
I       17.26593353      14.02959691       8.93145308                           
I       13.83246335      15.75152855       8.93144278                           
I       18.48582560      11.91723184      12.00619783                           
I       18.27014304      15.75127059      12.00619302                           
I       14.82137000      14.02101041      12.00620106                           
Cr      12.60777906      21.83733235      17.03520929                           
Cr       9.16931865      23.82257680      17.04368562                           
I       13.60675127      19.84622273      15.50172901                           
I       10.38393639      21.96780609      15.50172980                           
I        6.95570362      23.69804968      15.50174515                           
I       11.61362596      19.85505493      18.57647573                           
I       11.38815431      23.68947476      18.57647595                           
I        7.94461180      21.96754269      18.57646027                           
Cr1     16.04628006      19.85215813      10.46423698                           
Cr1     12.60776532      21.83734595      10.47271549                           
I       17.04045081      17.86402821       8.93147663                           
I       13.82744252      19.98523804       8.93145308                           
I       10.39397233      21.70716968       8.93144278                           
I       15.04733459      17.87287297      12.00619783                           
I       14.83165203      21.70691172      12.00619302                           
I       11.38287899      19.97665154      12.00620106                           
Cr       9.16928805      27.79297348      17.03520929                           
Cr       5.73082764      29.77821793      17.04368562                           
I       10.16826026      25.80186386      15.50172901                           
I        6.94544538      27.92344722      15.50172980                           
I        3.51721261      29.65369082      15.50174515                           
I        8.17513495      25.81069606      18.57647573                           
I        7.94966330      29.64511589      18.57647595                           
I        4.50612079      27.92318382      18.57646027                           
Cr1     12.60778905      25.80779926      10.46423698                           
Cr1      9.16927431      27.79298708      10.47271549                           
I       13.60195980      23.81966934       8.93147663                           
I       10.38895151      25.94087917       8.93145308                           
I        6.95548132      27.66281081       8.93144278                           
I       11.60884358      23.82851411      12.00619783                           
I       11.39316102      27.66255286      12.00619302                           
I        7.94438798      25.93229268      12.00620106                           
Cr       5.73079704      33.74861461      17.03520929                           
Cr       2.29233663      35.73385906      17.04368562                           
I        6.72976925      31.75750499      15.50172901                           
I        3.50695437      33.87908835      15.50172980                           
I        0.07872159      35.60933195      15.50174515                           
I        4.73664394      31.76633719      18.57647573                           
I        4.51117228      35.60075702      18.57647595                           
I        1.06762977      33.87882495      18.57646027                           
Cr1      9.16929804      31.76344039      10.46423698                           
Cr1      5.73078330      33.74862822      10.47271549                           
I       10.16346879      29.77531047       8.93147663                           
I        6.95046050      31.89652031       8.93145308                           
I        3.51699031      33.61845194       8.93144278                           
I        8.17035256      29.78415524      12.00619783                           
I        7.95467001      33.61819399      12.00619302                           
I        4.50589697      31.88793381      12.00620106                           
Cr      29.80023411       3.97040895      17.03520929                           
Cr      26.36177371       5.95565340      17.04368562                           
I       30.79920633       1.97929933      15.50172901                           
I       27.57639144       4.10088269      15.50172980                           
I       24.14815867       5.83112629      15.50174515                           
I       28.80608102       1.98813153      18.57647573                           
I       28.58060936       5.82255136      18.57647595                           
I       25.13706685       4.10061929      18.57646027                           
Cr1     33.23873511       1.98523473      10.46423698                           
Cr1     29.80022038       3.97042256      10.47271549                           
I       34.23290587      -0.00289519       8.93147663                           
I       31.01989758       2.11831465       8.93145308                           
I       27.58642739       3.84024628       8.93144278                           
I       32.23978964       0.00594958      12.00619783                           
I       32.02410709       3.83998833      12.00619302                           
I       28.57533404       2.10972815      12.00620106                           
Cr      26.36174310       9.92605008      17.03520929                           
Cr      22.92328270      11.91129453      17.04368562                           
I       27.36071532       7.93494046      15.50172901                           
I       24.13790043      10.05652383      15.50172980                           
I       20.70966766      11.78676742      15.50174515                           
I       25.36759001       7.94377266      18.57647573                           
I       25.14211835      11.77819249      18.57647595                           
I       21.69857584      10.05626043      18.57646027                           
Cr1     29.80024410       7.94087586      10.46423698                           
Cr1     26.36172937       9.92606369      10.47271549                           
I       30.79441485       5.95274594       8.93147663                           
I       27.58140657       8.07395578       8.93145308                           
I       24.14793638       9.79588741       8.93144278                           
I       28.80129863       5.96159071      12.00619783                           
I       28.58561608       9.79562946      12.00619302                           
I       25.13684303       8.06536928      12.00620106                           
Cr      22.92325209      15.88169122      17.03520929                           
Cr      19.48479168      17.86693567      17.04368562                           
I       23.92222431      13.89058160      15.50172901                           
I       20.69940942      16.01216496      15.50172980                           
I       17.27117665      17.74240855      15.50174515                           
I       21.92909899      13.89941380      18.57647573                           
I       21.70362734      17.73383362      18.57647595                           
I       18.26008483      16.01190156      18.57646027                           
Cr1     26.36175309      13.89651700      10.46423698                           
Cr1     22.92323835      15.88170482      10.47271549                           
I       27.35592384      11.90838708       8.93147663                           
I       24.14291556      14.02959691       8.93145308                           
I       20.70944537      15.75152855       8.93144278                           
I       25.36280762      11.91723184      12.00619783                           
I       25.14712507      15.75127059      12.00619302                           
I       21.69835202      14.02101041      12.00620106                           
Cr      19.48476108      21.83733235      17.03520929                           
Cr      16.04630067      23.82257680      17.04368562                           
I       20.48373330      19.84622273      15.50172901                           
I       17.26091841      21.96780609      15.50172980                           
I       13.83268564      23.69804968      15.50174515                           
I       18.49060798      19.85505493      18.57647573                           
I       18.26513633      23.68947476      18.57647595                           
I       14.82159382      21.96754269      18.57646027                           
Cr1     22.92326208      19.85215813      10.46423698                           
Cr1     19.48474734      21.83734595      10.47271549                           
I       23.91743283      17.86402821       8.93147663                           
I       20.70442455      19.98523804       8.93145308                           
I       17.27095436      21.70716968       8.93144278                           
I       21.92431661      17.87287297      12.00619783                           
I       21.70863405      21.70691172      12.00619302                           
I       18.25986101      19.97665154      12.00620106                           
Cr      16.04627007      27.79297348      17.03520929                           
Cr      12.60780966      29.77821793      17.04368562                           
I       17.04524228      25.80186386      15.50172901                           
I       13.82242740      27.92344722      15.50172980                           
I       10.39419463      29.65369082      15.50174515                           
I       15.05211697      25.81069606      18.57647573                           
I       14.82664532      29.64511589      18.57647595                           
I       11.38310281      27.92318382      18.57646027                           
Cr1     19.48477107      25.80779926      10.46423698                           
Cr1     16.04625633      27.79298708      10.47271549                           
I       20.47894182      23.81966934       8.93147663                           
I       17.26593353      25.94087917       8.93145308                           
I       13.83246335      27.66281081       8.93144278                           
I       18.48582560      23.82851411      12.00619783                           
I       18.27014304      27.66255286      12.00619302                           
I       14.82137000      25.93229268      12.00620106                           
Cr      12.60777906      33.74861461      17.03520929                           
Cr       9.16931865      35.73385906      17.04368562                           
I       13.60675127      31.75750499      15.50172901                           
I       10.38393639      33.87908835      15.50172980                           
I        6.95570362      35.60933195      15.50174515                           
I       11.61362596      31.76633719      18.57647573                           
I       11.38815431      35.60075702      18.57647595                           
I        7.94461180      33.87882495      18.57646027                           
Cr1     16.04628006      31.76344039      10.46423698                           
Cr1     12.60776532      33.74862822      10.47271549                           
I       17.04045081      29.77531047       8.93147663                           
I       13.82744252      31.89652031       8.93145308                           
I       10.39397233      33.61845194       8.93144278                           
I       15.04733459      29.78415524      12.00619783                           
I       14.83165203      33.61819399      12.00619302                           
I       11.38287899      31.88793381      12.00620106                           
Cr      36.67721614       3.97040895      17.03520929                           
Cr      33.23875573       5.95565340      17.04368562                           
I       37.67618835       1.97929933      15.50172901                           
I       34.45337346       4.10088269      15.50172980                           
I       31.02514069       5.83112629      15.50174515                           
I       35.68306304       1.98813153      18.57647573                           
I       35.45759138       5.82255136      18.57647595                           
I       32.01404887       4.10061929      18.57646027                           
Cr1     40.11571714       1.98523473      10.46423698                           
Cr1     36.67720240       3.97042256      10.47271549                           
I       41.10988789      -0.00289519       8.93147663                           
I       37.89687960       2.11831465       8.93145308                           
I       34.46340941       3.84024628       8.93144278                           
I       39.11677166       0.00594958      12.00619783                           
I       38.90108911       3.83998833      12.00619302                           
I       35.45231606       2.10972815      12.00620106                           
Cr      33.23872513       9.92605008      17.03520929                           
Cr      29.80026472      11.91129453      17.04368562                           
I       34.23769734       7.93494046      15.50172901                           
I       31.01488245      10.05652383      15.50172980                           
I       27.58664968      11.78676742      15.50174515                           
I       32.24457203       7.94377266      18.57647573                           
I       32.01910037      11.77819249      18.57647595                           
I       28.57555786      10.05626043      18.57646027                           
Cr1     36.67722612       7.94087586      10.46423698                           
Cr1     33.23871139       9.92606369      10.47271549                           
I       37.67139688       5.95274594       8.93147663                           
I       34.45838859       8.07395578       8.93145308                           
I       31.02491840       9.79588741       8.93144278                           
I       35.67828065       5.96159071      12.00619783                           
I       35.46259810       9.79562946      12.00619302                           
I       32.01382505       8.06536928      12.00620106                           
Cr      29.80023411      15.88169122      17.03520929                           
Cr      26.36177371      17.86693567      17.04368562                           
I       30.79920633      13.89058160      15.50172901                           
I       27.57639144      16.01216496      15.50172980                           
I       24.14815867      17.74240855      15.50174515                           
I       28.80608102      13.89941380      18.57647573                           
I       28.58060936      17.73383362      18.57647595                           
I       25.13706685      16.01190156      18.57646027                           
Cr1     33.23873511      13.89651700      10.46423698                           
Cr1     29.80022038      15.88170482      10.47271549                           
I       34.23290587      11.90838708       8.93147663                           
I       31.01989758      14.02959691       8.93145308                           
I       27.58642739      15.75152855       8.93144278                           
I       32.23978964      11.91723184      12.00619783                           
I       32.02410709      15.75127059      12.00619302                           
I       28.57533404      14.02101041      12.00620106                           
Cr      26.36174310      21.83733235      17.03520929                           
Cr      22.92328270      23.82257680      17.04368562                           
I       27.36071532      19.84622273      15.50172901                           
I       24.13790043      21.96780609      15.50172980                           
I       20.70966766      23.69804968      15.50174515                           
I       25.36759001      19.85505493      18.57647573                           
I       25.14211835      23.68947476      18.57647595                           
I       21.69857584      21.96754269      18.57646027                           
Cr1     29.80024410      19.85215813      10.46423698                           
Cr1     26.36172937      21.83734595      10.47271549                           
I       30.79441485      17.86402821       8.93147663                           
I       27.58140657      19.98523804       8.93145308                           
I       24.14793638      21.70716968       8.93144278                           
I       28.80129863      17.87287297      12.00619783                           
I       28.58561608      21.70691172      12.00619302                           
I       25.13684303      19.97665154      12.00620106                           
Cr      22.92325209      27.79297348      17.03520929                           
Cr      19.48479168      29.77821793      17.04368562                           
I       23.92222431      25.80186386      15.50172901                           
I       20.69940942      27.92344722      15.50172980                           
I       17.27117665      29.65369082      15.50174515                           
I       21.92909899      25.81069606      18.57647573                           
I       21.70362734      29.64511589      18.57647595                           
I       18.26008483      27.92318382      18.57646027                           
Cr1     26.36175309      25.80779926      10.46423698                           
Cr1     22.92323835      27.79298708      10.47271549                           
I       27.35592384      23.81966934       8.93147663                           
I       24.14291556      25.94087917       8.93145308                           
I       20.70944537      27.66281081       8.93144278                           
I       25.36280762      23.82851411      12.00619783                           
I       25.14712507      27.66255286      12.00619302                           
I       21.69835202      25.93229268      12.00620106                           
Cr      19.48476108      33.74861461      17.03520929                           
Cr      16.04630067      35.73385906      17.04368562                           
I       20.48373330      31.75750499      15.50172901                           
I       17.26091841      33.87908835      15.50172980                           
I       13.83268564      35.60933195      15.50174515                           
I       18.49060798      31.76633719      18.57647573                           
I       18.26513633      35.60075702      18.57647595                           
I       14.82159382      33.87882495      18.57646027                           
Cr1     22.92326208      31.76344039      10.46423698                           
Cr1     19.48474734      33.74862822      10.47271549                           
I       23.91743283      29.77531047       8.93147663                           
I       20.70442455      31.89652031       8.93145308                           
I       17.27095436      33.61845194       8.93144278                           
I       21.92431661      29.78415524      12.00619783                           
I       21.70863405      33.61819399      12.00619302                           
I       18.25986101      31.88793381      12.00620106                           
%ENDBLOCK POSITIONS_ABS                                                         
%BLOCK SPECIES                                                                  
Cr Cr 24 -1 15                                                                  
I   I  53 -1 15                                                                 
Cr1 Cr 24 -1 15                                                                 
%ENDBLOCK SPECIES                                                               
%BLOCK SPECIES_ATOMIC_SET                                                       
Cr "SOLVE INIT SPIN=3"                                                          
I   "SOLVE"                                                                     
Cr1 "SOLVE INIT SPIN=-3"                                                        
%ENDBLOCK SPECIES_ATOMIC_SET                                                    
%BLOCK HUBBARD                                                                  
Cr  2 2.97 0.37 -10.0 0.00 0.0                                                  
Cr1  2 2.97 0.37 -10.0 0.00 0.0                                                 
%ENDBLOCK HUBBARD                                                               
%BLOCK SPECIES_LDOS_GROUPS                                                      
Cr                                                                              
I                                                                               
Cr1                                                                             
%ENDBLOCK SPECIES_LDOS_GROUPS                                                   
%BLOCK SPECIES_POT                                                              
Cr  "../../../../Cr.PBE-paw.abinit"                                             
I   "../../../../I.PBE-paw.abinit"                                              
Cr1  "../../../../Cr.PBE-paw.abinit"                                            
%ENDBLOCK SPECIES_POT                                                           

--------------------------------------------------------------------------------
-------------------------------- END INPUT FILE --------------------------------
--------------------------------------------------------------------------------


 
 ESDF WARNING(1): "charge" (esdf_physical) has no units. Assume "e".
<<<<<<<<<<<<<<<<<<<<<<<<<<<<<<<<< Full system >>>>>>>>>>>>>>>>>>>>>>>>>>>>>>>>>>
<<<<<<<<<<<<<<<<<<<<<<<<<<< PAW Dataset information >>>>>>>>>>>>>>>>>>>>>>>>>>>
File: ../../../../Cr.PBE-paw.abinit; rc = 2.11 bohr; shape type =  2; rshape = 1.80 bohr;
  Atomic number: 24;  ionic charge: 14.000000
    Partial Wave 1: l = 0
    Partial Wave 2: l = 0
    Partial Wave 3: l = 1
    Partial Wave 4: l = 1
    Partial Wave 5: l = 2
    Partial Wave 6: l = 2
  Core charge supplied for Nonlinear Core Corrections
File: ../../../../I.PBE-paw.abinit; rc = 2.30 bohr; shape type =  2; rshape = 2.11 bohr;
  Atomic number: 53;  ionic charge:  7.000000
    Partial Wave 1: l = 0
    Partial Wave 2: l = 0
    Partial Wave 3: l = 1
    Partial Wave 4: l = 1
  Core charge supplied for Nonlinear Core Corrections
<<<<<<<<<<<<<<<<<<<<<<<<<<<<<<<<<<<<<<< >>>>>>>>>>>>>>>>>>>>>>>>>>>>>>>>>>>>>>>

-------------------------- Atom counting information ---------------------------
Symbol    Natoms    Nngwfs    Nprojs
  Cr       144      1872      2592
  I        432      1728      3456
.......   ......    ......    ......
Totals:    576      3600      6048
--------------------------------------------------------------------------------

=============================== PSINC grid sizes ===============================
                      Simulation cell:  175 x 175 x 117
                              FFT-box:  175 x 175 x 117
                                  PPD:    5 x   5 x   1
Grid space d1=  0.445563862424a0 (KE cutoff=  38.26345Eh =1041.20135eV)
Grid space d2=  0.445563862400a0 (KE cutoff=  38.26345Eh =1041.20135eV)
Grid space d3=  0.444294449711a0 (KE cutoff=  38.48241Eh =1047.15957eV)
================================================================================

********************* Fourier parallelisation information **********************
       Coarse grid (whole simulation cell) dimensions:    175   175   117
          Real-space ('12') slabs/proc (min max mean):      0     1     0
         Recip-space ('23') slabs/proc (min max mean):      0     1     0
********************************************************************************

********************* Fourier parallelisation information **********************
       Double grid (whole simulation cell) dimensions:    350   350   234
          Real-space ('12') slabs/proc (min max mean):      1     2     1
         Recip-space ('23') slabs/proc (min max mean):      1     2     1
********************************************************************************

********************* Fourier parallelisation information **********************
         Fine grid (whole simulation cell) dimensions:    700   700   468
          Real-space ('12') slabs/proc (min max mean):      3     4     3
         Recip-space ('23') slabs/proc (min max mean):      2     3     2
********************************************************************************
energy_and_force_init_cell: WARNING in internal_setup_spin:
        even number of electrons in cell and zero spin
        but continuing with spin-polarised calculation

Atom SCF Calculation for Cr : Z (AE atom) =  24 : Z (PS atom) =  14
Config String: 3s2.0 3p6.0 3d5.0 4s1.0 4p0.0 INIT SPIN=3
Orbitals (num,occ):  5     2.00 6.00 5.00 1.00 0.00
Orbitals   (num,l):  5        0    1    2    0    1
Atom SCF converged after  64 iterations to a total energy of    -87.07044631
Adjusting orbital occupancies:
Orbitals (num,spin,occ):  5  1     1.00 3.00 3.50 1.00 0.00
Orbitals   (num,spin,l):  5  1        0    1    2    0    1
Orbitals (num,spin,occ):  5  2     1.00 3.00 1.00 0.50 0.00
Orbitals   (num,spin,l):  5  2        0    1    2    0    1

Atom SCF Calculation for I  : Z (AE atom) =  53 : Z (PS atom) =   7
Config String: 5s2.0 5p5.0
Orbitals (num,occ):  2     2.00 5.00
Orbitals   (num,l):  2        0    1
Atom SCF converged after  28 iterations to a total energy of    -11.61352964

Atom SCF Calculation for Cr : Z (AE atom) =  24 : Z (PS atom) =  14
Config String: 3s2.0 3p6.0 3d5.0 4s1.0 4p0.0 INIT SPIN=-3
Orbitals (num,occ):  5     2.00 6.00 5.00 1.00 0.00
Orbitals   (num,l):  5        0    1    2    0    1
Atom SCF converged after  64 iterations to a total energy of    -87.07044631
Adjusting orbital occupancies:
Orbitals (num,spin,occ):  5  1     1.00 3.00 1.00 0.50 0.00
Orbitals   (num,spin,l):  5  1        0    1    2    0    1
Orbitals (num,spin,occ):  5  2     1.00 3.00 3.50 1.00 0.00
Orbitals   (num,spin,l):  5  2        0    1    2    0    1

Atom SCF Calculation for Cr : Z (AE atom) =  24 : Z (PS atom) =  14
Config String: 3s2.0 3p6.0 3d5.0 4s1.0 4p0.0 INIT SPIN=3
Orbitals (num,occ):  5     2.00 6.00 5.00 1.00 0.00
Orbitals   (num,l):  5        0    1    2    0    1
Atom SCF converged after  64 iterations to a total energy of    -87.07044631

Atom SCF Calculation for I  : Z (AE atom) =  53 : Z (PS atom) =   7
Config String: 5s2.0 5p5.0
Orbitals (num,occ):  2     2.00 5.00
Orbitals   (num,l):  2        0    1
Atom SCF converged after  28 iterations to a total energy of    -11.61352964

Atom SCF Calculation for Cr : Z (AE atom) =  24 : Z (PS atom) =  14
Config String: 3s2.0 3p6.0 3d5.0 4s1.0 4p0.0 INIT SPIN=-3
Orbitals (num,occ):  5     2.00 6.00 5.00 1.00 0.00
Orbitals   (num,l):  5        0    1    2    0    1
Atom SCF converged after  64 iterations to a total energy of    -87.07044631

Determining parallel strategy ...... done
Calculating Ewald energy ...            31583.245177 Hartree
Basis initialisation ...
... done

============================= Charge Augmentation ==============================
                           Aug box size:   49 x  49 x  45
================================================================================
Sparse matrix initialisation ...
 done
NGWF initialisation ... done
 done

================================= Core Density =================================
               Core den box size:  125 x 125 x 105
================================================================================
Density kernel initialisation

--------------------------- Ensemble-DFT optimisation --------------------------
Running ScaLAPACK on  150 processor(s).
With smearing scheme: FERMIDIRAC                                                                      

--------------------------------------------------------------------------------
  Iter                              Commutator    Free_energy(A=E-TS)     DeltaA
#    0                          0.006243993730  -17452.71597617804950  -1.75E+04
#    1                          0.001682234721  -17596.62145017538210  -1.44E+02
#    2                          0.000307250982  -17612.05355420749770  -1.54E+01
#    3                          0.000164562391  -17612.63023362707830  -5.77E-01
#    4                          0.000183314762  -17613.00279290713660  -3.73E-01
#    5                          0.000090985194  -17613.21423534780480  -2.11E-01
#    6                          0.000109568623  -17613.34180828122410  -1.28E-01
#    7                          0.000051471964  -17613.42015582344170  -7.83E-02
#    8                          0.000063664425  -17613.46605533967520  -4.59E-02
#    9                          0.000032481671  -17613.49453375871600  -2.85E-02
#   10                          0.000039740466  -17613.51147399867840  -1.69E-02
#   11                          0.000022179744  -17613.52372160402960  -1.22E-02
#   12                          0.000025403501  -17613.53098338903510  -7.26E-03
#   13                          0.000016555824  -17613.53666816084300  -5.68E-03
#   14                          0.000016799761  -17613.54003042117980  -3.36E-03
#   15                          0.000013277241  -17613.54294786341780  -2.92E-03
Finished EDFT density kernel iterations (  15)


Writing density kernel to file "Cr2I6_bilayer_LT_FM_AFM_nSP.dkn" ... done

Writing Hamiltonian to file "Cr2I6_bilayer_LT_FM_AFM_nSP.ham" ... done

Writing density kernel to file "Cr2I6_bilayer_LT_FM_AFM_nSP.dkn" ... done

>>> Optimising kernel for current NGWFs:
   iter  |      energy (Eh)       | rms gradient |  commutator  |   dE (Eh)
    1        -1.761354225126E+04     2.5333E-05     1.2795E-05
    2        -1.761354363863E+04     3.2053E-05     1.6189E-05    -1.3874E-03
    3        -1.761354510730E+04     4.1904E-05     2.1165E-05    -1.4687E-03
    4        -1.761354689983E+04     5.5634E-05     2.8100E-05    -1.7925E-03
    5        -1.761354786264E+04     4.3688E-05     2.2066E-05    -9.6281E-04
Finished density kernel iterations (   5)

Writing density kernel to file "Cr2I6_bilayer_LT_FM_AFM_nSP.dkn" ... done


>>> Density kernel optimised for the current NGWF basis:
     ~~~~~~~~~~~~~~~~~~~~~~~~~~~~~~~~~~~~~~~~~~~~~~~~~~~~~~~~~~~
     Total energy                =  -1.76135478626409E+04  Eh
     Estimated bandgap (UP spin) =   4.0377E-02  Eh
     Estimated bandgap (DN spin) =   4.0398E-02  Eh
     RMS occupancy error         =   7.9259E-10
     [H,K] commutator            =   2.2066E-05
     UP spin occupancy bounds    = [ -0.000:  1.000]
     DN spin occupancy bounds    = [ -0.000:  1.000]
     ~~~~~~~~~~~~~~~~~~~~~~~~~~~~~~~~~~~~~~~~~~~~~~~~~~~~~~~~~~~




################################################################################
########################### NGWF CG iteration  001 #############################
################################################################################

>>> Checking for convergence of NGWFs:   NOT CONVERGED
  ========================================================================
         NGWF RMS gradient =  9.9062E-05 >  1.0000E-06  | above tolerance
  ========================================================================

>>> Improving NGWFs using line search:
  ========================================================================
   Predicted total energy    =      -1.76214184997050E+04 Eh
   Predicted gain in energy  =      -7.87063706407571E+00 Eh
  ========================================================================

Writing NGWFs to file "Cr2I6_bilayer_LT_FM_AFM_nSP.tightbox_ngwfs".... done

>>> Optimising kernel for current NGWFs:
   iter  |      energy (Eh)       | rms gradient |  commutator  |   dE (Eh)
    1        -1.762140186862E+04     5.2484E-04     2.6508E-04
    2        -1.762177484650E+04     2.0114E-04     1.0159E-04    -3.7298E-01
    3        -1.762181165046E+04     9.2817E-05     4.6879E-05    -3.6804E-02
    4        -1.762182350069E+04     6.5256E-05     3.2959E-05    -1.1850E-02
    5        -1.762182996691E+04     3.2124E-05     1.6225E-05    -6.4662E-03
Finished density kernel iterations (   5)

Writing density kernel to file "Cr2I6_bilayer_LT_FM_AFM_nSP.dkn" ... done


>>> Density kernel optimised for the current NGWF basis:
     ~~~~~~~~~~~~~~~~~~~~~~~~~~~~~~~~~~~~~~~~~~~~~~~~~~~~~~~~~~~
     Total energy                =  -1.76218299669065E+04  Eh
     Estimated bandgap (UP spin) =   4.6527E-02  Eh
     Estimated bandgap (DN spin) =   4.6531E-02  Eh
     RMS occupancy error         =   7.7370E-10
     [H,K] commutator            =   1.6225E-05
     UP spin occupancy bounds    = [ -0.000:  1.000]
     DN spin occupancy bounds    = [ -0.000:  1.000]
     ~~~~~~~~~~~~~~~~~~~~~~~~~~~~~~~~~~~~~~~~~~~~~~~~~~~~~~~~~~~




################################################################################
########################### NGWF CG iteration  002 #############################
################################################################################

>>> Checking for convergence of NGWFs:   NOT CONVERGED
  ========================================================================
         NGWF RMS gradient =  6.7282E-05 >  1.0000E-06  | above tolerance
  Maximum change in energy =  1.4379E-02 >  1.0000E-07  | above tolerance
  ========================================================================

>>> Improving NGWFs using line search:
  ========================================================================
   Predicted total energy    =      -1.76243460088671E+04 Eh
   Predicted gain in energy  =      -2.51604196062181E+00 Eh
  ========================================================================

Writing NGWFs to file "Cr2I6_bilayer_LT_FM_AFM_nSP.tightbox_ngwfs".... done

>>> Optimising kernel for current NGWFs:
   iter  |      energy (Eh)       | rms gradient |  commutator  |   dE (Eh)
    1        -1.762433740504E+04     1.7954E-04     9.0681E-05
    2        -1.762438739669E+04     4.8719E-05     2.4607E-05    -4.9992E-02
    3        -1.762439122387E+04     4.9861E-05     2.5184E-05    -3.8272E-03
    4        -1.762439541028E+04     2.6060E-05     1.3162E-05    -4.1864E-03
    5        -1.762439650267E+04     2.2364E-05     1.1296E-05    -1.0924E-03
Finished density kernel iterations (   5)

Writing density kernel to file "Cr2I6_bilayer_LT_FM_AFM_nSP.dkn" ... done


>>> Density kernel optimised for the current NGWF basis:
     ~~~~~~~~~~~~~~~~~~~~~~~~~~~~~~~~~~~~~~~~~~~~~~~~~~~~~~~~~~~
     Total energy                =  -1.76243965026741E+04  Eh
     Estimated bandgap (UP spin) =   4.5641E-02  Eh
     Estimated bandgap (DN spin) =   4.5681E-02  Eh
     RMS occupancy error         =   1.1356E-10
     [H,K] commutator            =   1.1296E-05
     UP spin occupancy bounds    = [  0.000:  1.000]
     DN spin occupancy bounds    = [  0.000:  1.000]
     ~~~~~~~~~~~~~~~~~~~~~~~~~~~~~~~~~~~~~~~~~~~~~~~~~~~~~~~~~~~




################################################################################
########################### NGWF CG iteration  003 #############################
################################################################################

>>> Checking for convergence of NGWFs:   NOT CONVERGED
  ========================================================================
         NGWF RMS gradient =  4.1647E-05 >  1.0000E-06  | above tolerance
  Maximum change in energy =  1.4379E-02 >  1.0000E-07  | above tolerance
  ========================================================================

>>> Improving NGWFs using line search:
  ========================================================================
   Predicted total energy    =      -1.76254768010560E+04 Eh
   Predicted gain in energy  =      -1.08029838187213E+00 Eh
  ========================================================================

Writing NGWFs to file "Cr2I6_bilayer_LT_FM_AFM_nSP.tightbox_ngwfs".... done

>>> Optimising kernel for current NGWFs:
   iter  |      energy (Eh)       | rms gradient |  commutator  |   dE (Eh)
    1        -1.762546590670E+04     1.8776E-04     9.4831E-05
    2        -1.762550461132E+04     9.0425E-05     4.5671E-05    -3.8705E-02
    3        -1.762551158807E+04     3.3249E-05     1.6793E-05    -6.9768E-03
    4        -1.762551319869E+04     2.4283E-05     1.2265E-05    -1.6106E-03
    5        -1.762551441517E+04     1.3169E-05     6.6516E-06    -1.2165E-03
Finished density kernel iterations (   5)

Writing density kernel to file "Cr2I6_bilayer_LT_FM_AFM_nSP.dkn" ... done


>>> Density kernel optimised for the current NGWF basis:
     ~~~~~~~~~~~~~~~~~~~~~~~~~~~~~~~~~~~~~~~~~~~~~~~~~~~~~~~~~~~
     Total energy                =  -1.76255144151748E+04  Eh
     Estimated bandgap (UP spin) =   4.5283E-02  Eh
     Estimated bandgap (DN spin) =   4.5322E-02  Eh
     RMS occupancy error         =   5.7689E-11
     [H,K] commutator            =   6.6516E-06
     UP spin occupancy bounds    = [  0.000:  1.000]
     DN spin occupancy bounds    = [  0.000:  1.000]
     ~~~~~~~~~~~~~~~~~~~~~~~~~~~~~~~~~~~~~~~~~~~~~~~~~~~~~~~~~~~




################################################################################
########################### NGWF CG iteration  004 #############################
################################################################################

>>> Checking for convergence of NGWFs:   NOT CONVERGED
  ========================================================================
         NGWF RMS gradient =  3.0087E-05 >  1.0000E-06  | above tolerance
  Maximum change in energy =  4.4558E-03 >  1.0000E-07  | above tolerance
  ========================================================================

>>> Improving NGWFs using line search:
  ========================================================================
   Predicted total energy    =      -1.76261116926565E+04 Eh
   Predicted gain in energy  =      -5.97277481756464E-01 Eh
  ========================================================================

Writing NGWFs to file "Cr2I6_bilayer_LT_FM_AFM_nSP.tightbox_ngwfs".... done

>>> Optimising kernel for current NGWFs:
   iter  |      energy (Eh)       | rms gradient |  commutator  |   dE (Eh)
    1        -1.762610102621E+04     6.5176E-05     3.2919E-05
    2        -1.762610794812E+04     3.4145E-05     1.7246E-05    -6.9219E-03
    3        -1.762610936188E+04     2.4975E-05     1.2614E-05    -1.4138E-03
    4        -1.762611056926E+04     1.7908E-05     9.0449E-06    -1.2074E-03
    5        -1.762611091843E+04     1.0203E-05     5.1532E-06    -3.4916E-04
Finished density kernel iterations (   5)

Writing density kernel to file "Cr2I6_bilayer_LT_FM_AFM_nSP.dkn" ... done


>>> Density kernel optimised for the current NGWF basis:
     ~~~~~~~~~~~~~~~~~~~~~~~~~~~~~~~~~~~~~~~~~~~~~~~~~~~~~~~~~~~
     Total energy                =  -1.76261109184271E+04  Eh
     Estimated bandgap (UP spin) =   4.4016E-02  Eh
     Estimated bandgap (DN spin) =   4.3965E-02  Eh
     RMS occupancy error         =   2.3551E-11
     [H,K] commutator            =   5.1532E-06
     UP spin occupancy bounds    = [  0.000:  1.000]
     DN spin occupancy bounds    = [  0.000:  1.000]
     ~~~~~~~~~~~~~~~~~~~~~~~~~~~~~~~~~~~~~~~~~~~~~~~~~~~~~~~~~~~




################################################################################
########################### NGWF CG iteration  005 #############################
################################################################################

>>> Checking for convergence of NGWFs:   NOT CONVERGED
  ========================================================================
         NGWF RMS gradient =  2.1180E-05 >  1.0000E-06  | above tolerance
  Maximum change in energy =  1.9408E-03 >  1.0000E-07  | above tolerance
  ========================================================================

>>> Improving NGWFs using line search:
  ========================================================================
   Predicted total energy    =      -1.76262825208010E+04 Eh
   Predicted gain in energy  =      -1.71602373895439E-01 Eh
  ========================================================================

Writing NGWFs to file "Cr2I6_bilayer_LT_FM_AFM_nSP.tightbox_ngwfs".... done

>>> Optimising kernel for current NGWFs:
   iter  |      energy (Eh)       | rms gradient |  commutator  |   dE (Eh)
    1        -1.762628199005E+04     8.9413E-06     4.5160E-06
    2        -1.762628219324E+04     1.7072E-05     8.6226E-06    -2.0319E-04
    3        -1.762628241701E+04     1.4097E-05     7.1199E-06    -2.2376E-04
    4        -1.762628257540E+04     1.1307E-05     5.7110E-06    -1.5839E-04
    5        -1.762628257140E+04     2.2497E-05     1.1363E-05     4.0033E-06
Finished density kernel iterations (   5)

Writing density kernel to file "Cr2I6_bilayer_LT_FM_AFM_nSP.dkn" ... done


>>> Density kernel optimised for the current NGWF basis:
     ~~~~~~~~~~~~~~~~~~~~~~~~~~~~~~~~~~~~~~~~~~~~~~~~~~~~~~~~~~~
     Total energy                =  -1.76262825713955E+04  Eh
     Estimated bandgap (UP spin) =   4.3720E-02  Eh
     Estimated bandgap (DN spin) =   4.3780E-02  Eh
     RMS occupancy error         =   2.2202E-10
     [H,K] commutator            =   1.1363E-05
     UP spin occupancy bounds    = [  0.000:  1.000]
     DN spin occupancy bounds    = [  0.000:  1.000]
[...]
*    I     436     -0.00301729  -0.00523039  -0.00863225 *
*    I     437     -0.00302289   0.00524975  -0.00862032 *
*    I     438     -0.00588404  -0.00000392   0.01102831 *
*    I     439      0.00293375   0.00507596   0.01102953 *
*    I     440      0.00293827  -0.00509770   0.01102767 *
*    Cr    441      0.00010873   0.00005052  -0.00022181 *
*    Cr    442      0.00001010   0.00002098   0.00009352 *
*    I     443      0.00588146  -0.00000376  -0.01103131 *
*    I     444     -0.00293595  -0.00507877  -0.01103187 *
*    I     445     -0.00293736   0.00509585  -0.01102849 *
*    I     446     -0.00605166  -0.00000759   0.00863959 *
*    I     447      0.00304337   0.00521318   0.00860489 *
*    I     448      0.00303671  -0.00525073   0.00861412 *
*    Cr    449     -0.00001065  -0.00000485  -0.00008173 *
*    Cr    450     -0.00001976   0.00010025   0.00021905 *
*    I     451      0.00605702   0.00000571  -0.00862530 *
*    I     452     -0.00303059  -0.00521249  -0.00862875 *
*    I     453     -0.00303837   0.00525113  -0.00861333 *
*    I     454     -0.00588281  -0.00000224   0.01102635 *
*    I     455      0.00293450   0.00507829   0.01103330 *
*    I     456      0.00293809  -0.00509711   0.01102853 *
*    Cr    457      0.00010952   0.00006431  -0.00021773 *
*    Cr    458      0.00001567   0.00001015   0.00008341 *
*    I     459      0.00588150  -0.00000354  -0.01102913 *
*    I     460     -0.00293656  -0.00507937  -0.01103199 *
*    I     461     -0.00293830   0.00509454  -0.01102672 *
*    I     462     -0.00605687  -0.00000060   0.00862985 *
*    I     463      0.00302083   0.00522692   0.00862225 *
*    I     464      0.00302785  -0.00524821   0.00862951 *
*    Cr    465     -0.00000511  -0.00001019  -0.00009154 *
*    Cr    466     -0.00002039  -0.00001904   0.00023058 *
*    I     467      0.00605482   0.00001106  -0.00863268 *
*    I     468     -0.00303248  -0.00520732  -0.00862220 *
*    I     469     -0.00305290   0.00525084  -0.00860407 *
*    I     470     -0.00588535  -0.00000696   0.01102792 *
*    I     471      0.00293109   0.00507647   0.01103176 *
*    I     472      0.00293557  -0.00510007   0.01102895 *
*    Cr    473      0.00010821   0.00006478  -0.00021466 *
*    Cr    474      0.00009651  -0.00003558   0.00010718 *
*    I     475      0.00588291  -0.00000401  -0.01102698 *
*    I     476     -0.00293562  -0.00508126  -0.01103399 *
*    I     477     -0.00293651   0.00509402  -0.01102661 *
*    I     478     -0.00605520   0.00000777   0.00862066 *
*    I     479      0.00300232   0.00524464   0.00861846 *
*    I     480      0.00301733  -0.00524466   0.00863623 *
*    Cr    481      0.00000031  -0.00000652  -0.00009301 *
*    Cr    482     -0.00001821  -0.00001868   0.00021828 *
*    I     483      0.00605876   0.00003160  -0.00863244 *
*    I     484     -0.00302672  -0.00521533  -0.00862015 *
*    I     485     -0.00304358   0.00527045  -0.00858117 *
*    I     486     -0.00588190  -0.00000229   0.01102763 *
*    I     487      0.00293161   0.00507560   0.01103199 *
*    I     488      0.00293747  -0.00509615   0.01102786 *
*    Cr    489      0.00000154   0.00000190  -0.00022982 *
*    Cr    490      0.00010428  -0.00004355   0.00011982 *
*    I     491      0.00588343   0.00000072  -0.01102920 *
*    I     492     -0.00293577  -0.00507970  -0.01103290 *
*    I     493     -0.00293638   0.00509888  -0.01102995 *
*    I     494     -0.00605760   0.00001352   0.00860708 *
*    I     495      0.00300364   0.00521848   0.00863644 *
*    I     496      0.00302026  -0.00524114   0.00864240 *
*    Cr    497     -0.00000125  -0.00000817  -0.00009545 *
*    Cr    498     -0.00001852  -0.00000874   0.00020720 *
*    I     499      0.00606449   0.00001214  -0.00861041 *
*    I     500     -0.00301314  -0.00524792  -0.00859773 *
*    I     501     -0.00299855   0.00525149  -0.00862189 *
*    I     502     -0.00588199  -0.00000194   0.01102778 *
*    I     503      0.00293317   0.00507626   0.01103220 *
*    I     504      0.00293848  -0.00509607   0.01102792 *
*    Cr    505      0.00001026   0.00001484  -0.00026491 *
*    Cr    506      0.00000763   0.00001354   0.00012880 *
*    I     507      0.00588363  -0.00000220  -0.01102890 *
*    I     508     -0.00293564  -0.00508087  -0.01103245 *
*    I     509     -0.00293923   0.00509445  -0.01102754 *
*    I     510     -0.00604353  -0.00001485   0.00863816 *
*    I     511      0.00300583   0.00520329   0.00865295 *
*    I     512      0.00301159  -0.00523197   0.00864651 *
*    Cr    513     -0.00000281  -0.00000999  -0.00009558 *
*    Cr    514     -0.00002787  -0.00000205   0.00023211 *
*    I     515      0.00606798   0.00001615  -0.00860440 *
*    I     516     -0.00299817  -0.00523863  -0.00863540 *
*    I     517     -0.00300922   0.00525038  -0.00861846 *
*    I     518     -0.00588133  -0.00000422   0.01102863 *
*    I     519      0.00293382   0.00507425   0.01103264 *
*    I     520      0.00293697  -0.00509762   0.01102769 *
*    Cr    521      0.00002153  -0.00000362  -0.00027416 *
*    Cr    522      0.00000411   0.00002858   0.00012312 *
*    I     523      0.00588064  -0.00000210  -0.01102786 *
*    I     524     -0.00293633  -0.00507890  -0.01103190 *
*    I     525     -0.00293801   0.00509641  -0.01102883 *
*    I     526     -0.00604371  -0.00001325   0.00864503 *
*    I     527      0.00299846   0.00521847   0.00864767 *
*    I     528      0.00304586  -0.00524012   0.00862155 *
*    Cr    529     -0.00000447  -0.00001022  -0.00009603 *
*    Cr    530     -0.00002414  -0.00001208   0.00022585 *
*    I     531      0.00607513   0.00001784  -0.00860009 *
*    I     532     -0.00300958  -0.00522846  -0.00863625 *
*    I     533     -0.00300482   0.00525574  -0.00861741 *
*    I     534     -0.00588242  -0.00000412   0.01102760 *
*    I     535      0.00293325   0.00507552   0.01102990 *
*    I     536      0.00293868  -0.00509670   0.01102629 *
*    Cr    537      0.00001301  -0.00001315  -0.00023512 *
*    Cr    538      0.00000516   0.00001218   0.00010922 *
*    I     539      0.00588003  -0.00000206  -0.01102841 *
*    I     540     -0.00293590  -0.00507910  -0.01103339 *
*    I     541     -0.00293760   0.00509455  -0.01102747 *
*    I     542     -0.00604444  -0.00000588   0.00864530 *
*    I     543      0.00300176   0.00522532   0.00863082 *
*    I     544      0.00303966  -0.00524326   0.00862875 *
*    Cr    545     -0.00009126   0.00004199  -0.00010701 *
*    Cr    546     -0.00001846   0.00010250   0.00021952 *
*    I     547      0.00606920   0.00002522  -0.00861308 *
*    I     548     -0.00302062  -0.00521976  -0.00864121 *
*    I     549     -0.00301951   0.00525652  -0.00861092 *
*    I     550     -0.00588648  -0.00000609   0.01102984 *
*    I     551      0.00293352   0.00507861   0.01103431 *
*    I     552      0.00293563  -0.00509871   0.01102747 *
*    Cr    553      0.00000945   0.00000153  -0.00022162 *
*    Cr    554      0.00000887   0.00001286   0.00009139 *
*    I     555      0.00587916  -0.00000146  -0.01102783 *
*    I     556     -0.00293671  -0.00507872  -0.01103229 *
*    I     557     -0.00293842   0.00509461  -0.01102850 *
*    I     558     -0.00604110   0.00000433   0.00864818 *
*    I     559      0.00304421   0.00521215   0.00860357 *
*    I     560      0.00305109  -0.00524999   0.00861490 *
*    Cr    561     -0.00001127  -0.00001169  -0.00009444 *
*    Cr    562     -0.00001620  -0.00001625   0.00022459 *
*    I     563      0.00606539   0.00002688  -0.00862534 *
*    I     564     -0.00303648  -0.00520006  -0.00863960 *
*    I     565     -0.00302046   0.00527071  -0.00859491 *
*    I     566     -0.00588362  -0.00000458   0.01102752 *
*    I     567      0.00293116   0.00507636   0.01103179 *
*    I     568      0.00293410  -0.00510166   0.01102893 *
*    Cr    569      0.00000527   0.00000316  -0.00023034 *
*    Cr    570      0.00000974   0.00000904   0.00009297 *
*    I     571      0.00588028  -0.00000248  -0.01102821 *
*    I     572     -0.00293564  -0.00507878  -0.01103331 *
*    I     573     -0.00293687   0.00509862  -0.01102880 *
*    I     574     -0.00604514   0.00001508   0.00863277 *
*    I     575      0.00301224   0.00524088   0.00860324 *
*    I     576      0.00303316  -0.00524909   0.00862886 *
*                                                        *
**********************************************************
* TOTAL:            0.00000000   0.00000000   0.00000000 *
**********************************************************
 
 
***********************************************************
********** Summary of Forces (values in Eh/a) *************
*                                                         *
* ---------------------- Minimum ------------------------ *
* Atom:       337, |F|min =    0.00006357                 *
* Components:     Fx|min       Fy|min       Fz|min        *
*              -0.00000406  -0.00000407  -0.00006331      *
*                                                         *
* ---------------------- Maximum ------------------------ *
* Atom:       550, |F|max =    0.01250232                 *
* Components:     Fx|max       Fy|max       Fz|max        *
*              -0.00588648  -0.00000609   0.01102984      *
*                                                         *
* ---------------- Root Mean Square Force --------------- *
*                  |F|rms =    0.01000936                 *
* Components:     Fx|rms       Fy|rms       Fz|rms        *
*               0.00365364   0.00365043   0.00857395      *
***********************************************************
 

------------------------------ TIMING INFORMATION ------------------------------
AVERAGE TIME:   34103.635s on    150 proc(s)                                    
TOTAL TIME:     34103.636s on    150 proc(s)                                    
==================== AVERAGE TIMINGS FROM ALL PROCS (CUMULATIVE) =====================
|| TAG                                         #calls     cpu time   %total  Gflops ||
|| hubbard_species_proj                       :     1        0.00s   0.000%  ------ ||
|| sw_bessel_init_cpu                         :     1        0.01s   0.000%  ------ || (1 procs only)
|| hubbard_projector_character                :     1        0.00s   0.000%  ------ ||
|| hubbard_ngwf_select                        :     1        0.00s   0.000%  ------ ||
|| density_fftbox_interp_mult_imbal           : 18150        0.00s   0.000%  ------ ||
|| hubbard_ngwf_on_grid                       :     1        0.00s   0.000%  ------ ||
|| hash_table_free                            :    48        0.00s   0.000%  ------ ||
|| linalg_invert_sym_matrix                   :     2        0.01s   0.000%  ------ || (144 procs only)
|| hubbard_tensorial_correction               :     2        0.01s   0.000%  ------ ||
|| ewald_calculate_forces_realspace           :     1        0.02s   0.000%  ------ ||
|| onetep.F90 final imbalance                 :     1        0.02s   0.000%  ------ ||
|| onetep.F90 main loop imbalance             :     1        0.02s   0.000%  ------ ||
|| linalg_dgemv                               :    29        0.02s   0.000%  ------ ||
|| ewald_calculate_energy                     :     1        0.04s   0.000%  ------ ||
|| ewald_calculate_forces_recipspace          :     1        0.08s   0.000%  ------ ||
|| sparse_spam3toblacs_real_fast_imbal        :   210        0.08s   0.000%  ------ ||
|| sparse_set_to_garbage                      :   712        0.08s   0.000%  ------ ||
|| sw_init                                    :   725        0.10s   0.000%  ------ ||
|| paw_dij_hartree                            :   401        0.11s   0.000%  ------ ||
|| sparse_blacstospam3_real_fast_imbal        :   224        0.11s   0.000%  ------ ||
|| ewald_calculate_forces                     :     1        0.12s   0.000%  ------ ||
|| pseudo_make_structure_factor               :     1        0.16s   0.000%  ------ ||
|| augmentation_density_forces                :     1        0.23s   0.001%  ------ ||
|| basis_extract_function_from_box            :  2304        0.38s   0.001%  ------ ||
|| paw_tcore_hartree_on_grid                  :     1        0.50s   0.001%  ------ ||
|| restart_hamiltonian_write                  :     2        0.51s   0.002%  ------ ||
|| sparse_spam3toblacs_real_fast_B2           : 31500        0.51s   0.002%  ------ ||
|| paw_tcore_hartree_calc_forces              :     1        0.64s   0.002%  ------ ||
|| hubbard_projection_mtx                     :    50        0.72s   0.002%  ------ ||
|| paw_tcore_density                          :     1        1.21s   0.004%  ------ ||
|| ngwfs_initialise_from_radial               :     2        1.33s   0.004%  ------ ||
|| paw_nlcc_calculate_forces                  :     1        1.43s   0.004%  ------ ||
|| paw_sphere_density_on_grid                 :     1        1.51s   0.004%  ------ ||
|| paw_dataset_init                           :     2        1.52s   0.004%  ------ ||
|| nonsc_forces_ngwfs_calc                    :     1        1.80s   0.005%  ------ ||
|| sparse_init                                :     1        2.17s   0.006%  ------ ||
|| hubbard_ham_matrix                         :   166        4.83s   0.014%  ------ ||
|| hubbard_projector_ham                      :   165        5.25s   0.015%  ------ ||
|| paw_species_calc_proj_prec_mat             :     1        5.97s   0.018%  ------ ||
|| restart_kernel_write                       :    26        6.50s   0.019%  ------ ||
|| sparse_embed_array_hotelling_invert        :    48        7.49s   0.022%  ------ ||
|| hubbard_calculate_forces                   :     1        9.39s   0.028%  ------ ||
|| integrals_grad_spam3                       :     2       11.05s   0.032%  ------ ||
|| energy_and_force_init_cell                 :     1       14.49s   0.043%  ------ ||
|| hubbard_projector_update                   :     1       15.32s   0.045%  ------ ||
|| sparse_spam3toblacs_real_fast_B1           : 31500       16.10s   0.047%  ------ ||
|| projectors_func_grad_ovlp_box_spam3        :     3       17.47s   0.051%  ------ ||
|| sparse_spam3toblacs_real_fast              :   210       17.80s   0.052%  ------ ||
|| fourier_filter_cell                        :   380       18.35s   0.054% 367.186 ||
|| aug_nl_calculate_forces                    :     1       18.45s   0.054%  ------ ||
|| hubbard_energy_total                       :   375       20.57s   0.060%  ------ ||
|| ngwf_gradient_coeffs                       :    24       24.58s   0.072%  ------ ||
|| sparse_trace                               : 11598       30.13s   0.088%  ------ ||
|| hartree_on_grid_single                     :   362       30.22s   0.089%  ------ ||
|| fourier_apply_box_pair                     :  2918       31.74s   0.093%  5.380k ||
|| basis_copy_function_to_box                 : 27700       32.86s   0.096%  ------ ||
|| sparse_blacstospam3_real_fast              :   224       35.37s   0.104%  ------ ||
|| hamiltonian_energy_components              :     1       39.62s   0.116%  ------ ||
|| fourier_interpolate_cell                   :   726       42.64s   0.125% 301.957 ||
|| eigenstates_calculate                      :     1       44.50s   0.130%  ------ ||
|| density_init_guess_real                    :     2       58.01s   0.170%  ------ ||
|| dense_eigensolve                           :   102       60.60s   0.178%  ------ ||
|| kernel_purify                              :   479       66.85s   0.196%  ------ ||
|| kernel_fix                                 :   148       67.22s   0.197%  ------ ||
|| augmentation_screen_dij_spam3              :   361       74.54s   0.219%  ------ ||
|| lnv_gradient_norm                          :   148       74.73s   0.219%  ------ ||
|| edft_diag_ngwf_ham                         :   100       77.22s   0.226%  ------ ||
|| paw_dij_xc                                 :   401       82.84s   0.243%  ------ ||
|| aug_nonlocal_mat_spam3_embed_array         :   376       89.80s   0.263%  ------ ||
|| forces_calculate                           :     1      107.92s   0.316%  ------ ||
|| edft_apply_smearing_operator               :    50      126.25s   0.370%  ------ ||
|| fourier_apply_cell_backward                :  3259      133.49s   0.391% 389.438 ||
|| projectors_init_fftbox_recip               :   391      135.49s   0.397%  ------ ||
|| fourier_apply_cell_forward                 :  3259      141.50s   0.415% 367.397 ||
|| aug_density_on_grid_spam3                  :   363      178.76s   0.524%  ------ ||
|| cell_grid_deposit_box_real                 : 23148      178.90s   0.525%  ------ ||
|| restart_ngwfs_tightbox_output              :    23      198.56s   0.582%  ------ ||
|| fourier_filter                             :  5295      213.13s   0.625%  ------ ||
|| function_ops_brappd_ketppd_spam3           :    98      229.25s   0.672%  ------ ||
|| cell_grid_extract_box_real                 : 14218      262.56s   0.770%  ------ ||
|| xc_energy_potential                        :   362      281.20s   0.825%  ------ ||
|| projectors_func_ovlp_box_spam3             :    99      345.11s   1.012%  ------ ||
|| sparse_product                             : 21898      389.70s   1.143%  ------ ||
|| fourier_interpolate                        :  5295      399.85s   1.172%  ------ ||
|| integrals_kinetic_spam3                    :    48      518.76s   1.521%  ------ ||
|| properties_calculate                       :     1      526.74s   1.545%  ------ ||
|| basis_dot_function_with_box                : 15.75M    1152.39s   3.379%  ------ ||
|| density_fftbox_deposit_to_cell             : 18150     1178.17s   3.455%  ------ ||
|| projectors_gradient_batch                  :   192     1678.88s   4.923%  ------ ||
|| potential_apply_to_ngwf_batch              :   664     2198.60s   6.447%  ------ ||
|| edft_calculate                             :     1     2688.47s   7.883%  ------ ||
|| fourier_apply_box                          : 82805     3160.80s   9.268%  5.483k ||
|| integrals_locpot_mat_els_batch             :   664     3233.46s   9.481%  ------ ||
|| basis_add_function_to_box                  : 38.99M    3320.39s   9.736%  ------ ||
|| fourier_interpolate_product                : 17424     3438.84s  10.084%  ------ ||
|| density_fftbox_interpolate_multiply        : 18150     3577.07s  10.489%  ------ ||
|| projectors_grad_precond_batch              :    96     4893.55s  14.349%  ------ ||
|| integrals_locpot_dbl_grid                  :   332     5448.73s  15.977%  ------ ||
|| density_batch_interp_deposit               :  1452     6513.28s  19.098%  ------ ||
|| density_batch_row_sums                     :  1452     6756.56s  19.812%  ------ ||
|| ngwf_gradient_build_batch                  :    96     7584.85s  22.241%  ------ ||
|| ngwf_gradient_batch                        :    96    11076.62s  32.479%  ------ ||
|| ngwf_gradient_lnv                          :    24    11608.21s  34.038%  ------ ||
|| density_on_dbl_grid                        :   726    13429.70s  39.379%  ------ ||
|| hamiltonian_lhxc_calculate                 :   359    14037.32s  41.161%  ------ ||
|| lnv_denskernel_optimise_cg                 :    24    16290.65s  47.768%  ------ ||
|| ngwf_cg_optimise                           :     1    30606.73s  89.746%  ------ ||
|| energy_and_forces                          :     1    34087.71s  99.953%  ------ ||
|| total_time                                 :     1    34103.63s 100.000%  ------ ||
======================================================================================
Overhead of generating timer report: 
- 0 ms averaging over threads,
- 10 ms ensuring consistency across MPI ranks,
- 2 ms printing in order.

Job completed: 13-05-2025 02:00 (+0100)

onetep_launcher: ONETEP seems to have finished correctly (zero exit code).
                 Brought to you by PID 110266 on nid001554.
