==================================================================================
It's Wed 07 May 2025 10:04:01 AM BST.
*** Starting onetep_launcher (node nid005810, PIDs 47634 47635 47636 47637 47638 47639)...
    - ONETEP arguments: Cr2I6_bilayer_LT_FM_AFM_nSP.dat
    - Current directory: /mnt/lustre/a2fs-work3/work/e89/e89/phsmea/CrI3_onetep_U/U_2.97/LT_FM/LT_FM_AFM_J/nsp
    - Launcher executable directory: /mnt/lustre/a2fs-work3/work/e89/e89/phsmea/CrI3_onetep_U/U_2.97/LT_FM/LT_FM_AFM_J/nsp
    - (-e) ONETEP executable specified through command-line: /work/e89/e89/phsmea/onetep.archer2_2024_cray
      ... trying /work/e89/e89/phsmea/onetep.archer2_2024_cray
          -> looks OK
*** Setting up environment...
    - (-s) Process stack size: unlimited
    - (-t) OMP_NUM_THREADS: 16
    - (-o) OMP_STACKSIZE: 64M
    - (-c) Maximum core file size: 2048000
    - (-d) decfort_dump_flag: n
    - (-m) I_MPI_OFA_TRANSLATION_CACHE: 0
    - (-m) I_MPI_DAPL_TRANSLATION_CACHE: 0
    - (-m) I_MPI_DAPL_UD_TRANSLATION_CACHE: 0
*** Starting ONETEP...
    - /work/e89/e89/phsmea/onetep.archer2_2024_cray Cr2I6_bilayer_LT_FM_AFM_nSP.dat
=================================================================================
_________________________________________________________________________________
 +---------------------------------------------------------------+
 |                                                               |
 |        ####### #     # ####### ####### ####### ######         |
 |        #     # ##    # #          #    #       #     #        |
 |        #     # # #   # #          #    #       #     #        |
 |        #     # #  #  # #####      #    #####   ######         |
 |        #     # #   # # #          #    #       #              |
 |        #     # #    ## #          #    #       #              |
 |        ####### #     # #######    #    ####### #              |
 |                                                               |
 |        Linear-Scaling Ab Initio Total Energy Program          |
 |                                                               |
 |          Release for academic collaborators of ODG            |
 |                                             Version 7.3.0     |
 | Remote: git@github.com:Miesaz/onetep_mea.git                  |
 | Local branch: master                                          |
 | Commit ID: 4af45e89288c8df5499704252eec3e032ee3d0c8           |
 | Date: Tue Aug 6 11:28:44 2024 +0100                           |
 | Working tree clean                                            |
 |                                                               |
 +---------------------------------------------------------------+
 |                                                               |
 |  Authors:                                                     |
 |  Jacek Dziedzic, Peter D. Haynes, Nicholas D. M. Hine,        |
 |  Arash A. Mostofi, Mike C. Payne and Chris-Kriton Skylaris    |
 |                                                               |
 |  Contributors:                                                |
 |  J. Aarons, L. Andrinopoulos, P. W. Avraam, R. A. Bell,       |
 |  A. Bhandari, G. A. Bramley, R. J. Charlton, S. J. Clark,     |
 |  R. J. Clements, G. C. Constantinescu, F. Corsetti,           |
 |  N. Corsini, O. Dieguez, S. M. M. Dubois, K. K. B. Duff,      |
 |  J. M. Escartin, M. Escobar Azor, A. Greco,                   |
 |  H. Helal, Q. O. Hill, L. P. Lee, J.-H. Li,                   |
 |  T. Li, E. B. Linscott, G. Moynihan, D. D. O`Regan,           |
 |  O. K. Okan, E. Parkinson, M. J. S. Phipps,                   |
 |  C. J. Pickard, J. C. A. Prentice, M. I. J. Probert,          |
 |  L. E. Ratcliff, M. Robinson, A. Ruiz Serrano,                |
 |  M. dos Santos Dias, J. S. Spencer, E. W. Tait,               |
 |  G. Teobaldi, D. Turban, V. Vitale, K. A. Wilkinson,          |
 |  C. Weber, J. C. Womack, Chengcheng Xiao, N. Yeung,           |
 |  and T. J. Zuehlsdorff.                                       |
 |                                                               |
 |                                   Copyright (c) 2004-2024     |
 |                                                               |
 |  Please cite:                                                 |
 |  "The ONETEP linear-scaling density functional theory program"|
 |   J. Chem. Phys. 152(17) 174111 (2020)                        |
 |                                                               |
 |          in all publications arising from your use of ONETEP. |
 |                                                               |
 +---------------------------------------------------------------+
 |                                                               |
 |   ONETEP is based on developments described in the following  |
 |   publications:                                               |
 |                                                               |
 |  "Nonorthogonal generalized Wannier function pseudopotential  |
 |   plane-wave method".                                         |
 |   C.-K. Skylaris, A. A. Mostofi, P. D. Haynes, O. Dieguez,    |
 |   M. C. Payne.                                                |
 |   Phys. Rev. B 66 035119 (2002).                              |
 |                                                               |
 |  "Preconditioned iterative minimization for linear-scaling    |
 |   electronic structure calculations".                         |
 |   A. A. Mostofi, P. D. Haynes, C.-K. Skylaris, M. C. Payne.   |
 |   J. Chem. Phys. 119(17), pp.8842-8848 (2003).                |
 |                                                               |
 |  "Total-energy calculations on a real space grid with         |
 |   localized functions and a plane-wave basis".                |
 |   A. A. Mostofi, C.-K. Skylaris, P. D. Haynes, M. C. Payne.   |
 |   Comput. Phys. Commun. 147, pp.788-802 (2002).               |
 |                                                               |
 |  "Accurate kinetic energy evaluation in electronic structure  |
 |   calculations with localized functions on real space grids"  |
 |   C.-K. Skylaris, A. A. Mostofi, P. D. Haynes, C. J. Pickard, |
 |   M. C. Payne.                                                |
 |   Comput. Phys. Commun. 140, pp.315-322 (2001).               |
 |                                                               |
 |  "Accurate ionic forces and geometry optimization in linear-  |
 |   scaling density-functional theory with local orbitals"      |
 |   N. D. M. Hine, M. Robinson, P. D. Haynes, C.-K. Skylaris,   |
 |   M. C. Payne, and A. A. Mostofi.                             |
 |   Phys. Rev. B 83 195102 (2011).                              |
 |                                                               |
 +---------------------------------------------------------------+

Job started: 07-05-2025 10:04 (+0100)
 
Reading parameters from file "Cr2I6_bilayer_LT_FM_AFM_nSP.dat" ...... done

If your calculation crashes here, before "Checking processes and threads..."
is displayed, then your stack size is insufficient.
If so, use "ulimit -s unlimited" at runtime.
You can disable this check with "check_stack_size F".

Checking processes and threads...
      Default threads: 16
   Running with 150 MPI processes.
   There are 6 MPI processes running on the same node as the root process.
   Each MPI process is using: 
               1 threads for simulation cell FFTs.
               1 threads for threaded FFT box operations.
              16 threads for loops over batched FFT box operations.
              16 threads in other parallel regions.
   MPI Interface: S1 (use mpi_f08) (-DMPI -DUSE_MPI_F08).
   MPI_ASYNC_PROTECTS_NONBLOCKING: Yes. MPI_SUBARRAYS_SUPPORTED: Yes.
   FFTW Interface: OMP-capable and MODERN. (-DUSE_MODERN_FFTW specified).
   GPU Interface: None.
   GPU FFT Backend: None.
... done

Basic input checks...... done

Reading geometry and species blocks from file "Cr2I6_bilayer_LT_FM_AFM_nSP.dat" ...... done


--------------------------------------------------------------------------------
---------------------------------- INPUT FILE ----------------------------------
--------------------------------------------------------------------------------

charge : 0                                                                      
cutoff_energy : 1000 eV                                                         
delta_e_conv : F                                                                
do_properties : T                                                               
edft : F                                                                        
edft_init_maxit : 15                                                            
elec_energy_tol : 1e-07 Ha                                                      
fine_grid_scale : 4                                                             
forces_output_detail : VERBOSE                                                  
MAXIT_LNV     : 15                                                              
MINIT_LNV     : 5                                                               
maxit_ngwf_cg : 100                                                             
ngwf_threshold_orig : 1e-06                                                     
ngwfs_spin_polarized : F                                                        
output_detail : NORMAL                                                          
paw : T                                                                         
read_denskern : T                                                               
read_hamiltonian : F                                                            
read_tightbox_ngwfs : T                                                         
spin : 0                                                                        
spin_polarized : T                                                              
task : SinglePoint                                                              
write_denskern : T                                                              
write_forces : T                                                                
write_hamiltonian : T                                                           
write_tightbox_ngwfs : T                                                        
xc_functional : PBE                                                             
%BLOCK LATTICE_CART                                                             
ang                                                                             
41.261892132    0.000000000    0.000000000                                      
-20.630946066   35.733846792    0.000000000                                     
0.000000000    0.000000000   27.507928088                                       
%ENDBLOCK LATTICE_CART                                                          
%BLOCK POSITIONS_ABS                                                            
ang                                                                             
Cr       2.29230603       3.97040895      17.03520929                           
Cr      -1.14615438       5.95565340      17.04368562                           
I        3.29127824       1.97929933      15.50172901                           
I        0.06846335       4.10088269      15.50172980                           
I       -3.35976942       5.83112629      15.50174515                           
I        1.29815293       1.98813153      18.57647573                           
I        1.07268127       5.82255136      18.57647595                           
I       -2.37086124       4.10061929      18.57646027                           
Cr      5.73080703       1.98523473      10.46423698                            
Cr      2.29229229       3.97042256      10.47271549                            
I        6.72497778      -0.00289519       8.93147663                           
I        3.51196949       2.11831465       8.93145308                           
I        0.07849930       3.84024628       8.93144278                           
I        4.73186155       0.00594958      12.00619783                           
I        4.51617900       3.83998833      12.00619302                           
I        1.06740595       2.10972815      12.00620106                           
Cr      -1.14618498       9.92605008      17.03520929                           
Cr      -4.58464539      11.91129453      17.04368562                           
I       -0.14721277       7.93494046      15.50172901                           
I       -3.37002766      10.05652383      15.50172980                           
I       -6.79826043      11.78676742      15.50174515                           
I       -2.14033808       7.94377266      18.57647573                           
I       -2.36580974      11.77819249      18.57647595                           
I       -5.80935225      10.05626043      18.57646027                           
Cr      2.29231601       7.94087586      10.46423698                            
Cr     -1.14619872       9.92606369      10.47271549                            
I        3.28648677       5.95274594       8.93147663                           
I        0.07347848       8.07395578       8.93145308                           
I       -3.35999171       9.79588741       8.93144278                           
I        1.29337054       5.96159071      12.00619783                           
I        1.07768799       9.79562946      12.00619302                           
I       -2.37108506       8.06536928      12.00620106                           
Cr      -4.58467600      15.88169122      17.03520929                           
Cr      -8.02313640      17.86693567      17.04368562                           
I       -3.58570378      13.89058160      15.50172901                           
I       -6.80851867      16.01216496      15.50172980                           
I      -10.23675144      17.74240855      15.50174515                           
I       -5.57882909      13.89941380      18.57647573                           
I       -5.80430075      17.73383362      18.57647595                           
I       -9.24784326      16.01190156      18.57646027                           
Cr     -1.14617500      13.89651700      10.46423698                            
Cr     -4.58468973      15.88170482      10.47271549                            
I       -0.15200424      11.90838708       8.93147663                           
I       -3.36501253      14.02959691       8.93145308                           
I       -6.79848272      15.75152855       8.93144278                           
I       -2.14512047      11.91723184      12.00619783                           
I       -2.36080302      15.75127059      12.00619302                           
I       -5.80957607      14.02101041      12.00620106                           
Cr      -8.02316701      21.83733235      17.03520929                           
Cr     -11.46162741      23.82257680      17.04368562                           
I       -7.02419479      19.84622273      15.50172901                           
I      -10.24700968      21.96780609      15.50172980                           
I      -13.67524245      23.69804968      15.50174515                           
I       -9.01732010      19.85505493      18.57647573                           
I       -9.24279176      23.68947476      18.57647595                           
I      -12.68633427      21.96754269      18.57646027                           
Cr     -4.58466601      19.85215813      10.46423698                            
Cr     -8.02318074      21.83734595      10.47271549                            
I       -3.59049526      17.86402821       8.93147663                           
I       -6.80350354      19.98523804       8.93145308                           
I      -10.23697373      21.70716968       8.93144278                           
I       -5.58361148      17.87287297      12.00619783                           
I       -5.79929403      21.70691172      12.00619302                           
I       -9.24806708      19.97665154      12.00620106                           
Cr     -11.46165802      27.79297348      17.03520929                           
Cr     -14.90011843      29.77821793      17.04368562                           
I      -10.46268580      25.80186386      15.50172901                           
I      -13.68550069      27.92344722      15.50172980                           
I      -17.11373346      29.65369082      15.50174515                           
I      -12.45581112      25.81069606      18.57647573                           
I      -12.68128277      29.64511589      18.57647595                           
I      -16.12482528      27.92318382      18.57646027                           
Cr     -8.02315702      25.80779926      10.46423698                            
Cr    -11.46167176      27.79298708      10.47271549                            
I       -7.02898627      23.81966934       8.93147663                           
I      -10.24199455      25.94087917       8.93145308                           
I      -13.67546474      27.66281081       8.93144278                           
I       -9.02210249      23.82851411      12.00619783                           
I       -9.23778504      27.66255286      12.00619302                           
I      -12.68655809      25.93229268      12.00620106                           
Cr     -14.90014903      33.74861461      17.03520929                           
Cr     -18.33860944      35.73385906      17.04368562                           
I      -13.90117681      31.75750499      15.50172901                           
I      -17.12399170      33.87908835      15.50172980                           
I      -20.55222447      35.60933195      15.50174515                           
I      -15.89430213      31.76633719      18.57647573                           
I      -16.11977378      35.60075702      18.57647595                           
I      -19.56331629      33.87882495      18.57646027                           
Cr    -11.46164803      31.76344039      10.46423698                            
Cr    -14.90016277      33.74862822      10.47271549                            
I      -10.46747728      29.77531047       8.93147663                           
I      -13.68048556      31.89652031       8.93145308                           
I      -17.11395575      33.61845194       8.93144278                           
I      -12.46059350      29.78415524      12.00619783                           
I      -12.67627606      33.61819399      12.00619302                           
I      -16.12504910      31.88793381      12.00620106                           
Cr       9.16928805       3.97040895      17.03520929                           
Cr       5.73082764       5.95565340      17.04368562                           
I       10.16826026       1.97929933      15.50172901                           
I        6.94544538       4.10088269      15.50172980                           
I        3.51721261       5.83112629      15.50174515                           
I        8.17513495       1.98813153      18.57647573                           
I        7.94966330       5.82255136      18.57647595                           
I        4.50612079       4.10061929      18.57646027                           
Cr     12.60778905       1.98523473      10.46423698                            
Cr      9.16927431       3.97042256      10.47271549                            
I       13.60195980      -0.00289519       8.93147663                           
I       10.38895151       2.11831465       8.93145308                           
I        6.95548132       3.84024628       8.93144278                           
I       11.60884358       0.00594958      12.00619783                           
I       11.39316102       3.83998833      12.00619302                           
I        7.94438798       2.10972815      12.00620106                           
Cr       5.73079704       9.92605008      17.03520929                           
Cr       2.29233663      11.91129453      17.04368562                           
I        6.72976925       7.93494046      15.50172901                           
I        3.50695437      10.05652383      15.50172980                           
I        0.07872159      11.78676742      15.50174515                           
I        4.73664394       7.94377266      18.57647573                           
I        4.51117228      11.77819249      18.57647595                           
I        1.06762977      10.05626043      18.57646027                           
Cr      9.16929804       7.94087586      10.46423698                            
Cr      5.73078330       9.92606369      10.47271549                            
I       10.16346879       5.95274594       8.93147663                           
I        6.95046050       8.07395578       8.93145308                           
I        3.51699031       9.79588741       8.93144278                           
I        8.17035256       5.96159071      12.00619783                           
I        7.95467001       9.79562946      12.00619302                           
I        4.50589697       8.06536928      12.00620106                           
Cr       2.29230603      15.88169122      17.03520929                           
Cr      -1.14615438      17.86693567      17.04368562                           
I        3.29127824      13.89058160      15.50172901                           
I        0.06846335      16.01216496      15.50172980                           
I       -3.35976942      17.74240855      15.50174515                           
I        1.29815293      13.89941380      18.57647573                           
I        1.07268127      17.73383362      18.57647595                           
I       -2.37086124      16.01190156      18.57646027                           
Cr      5.73080703      13.89651700      10.46423698                            
Cr      2.29229229      15.88170482      10.47271549                            
I        6.72497778      11.90838708       8.93147663                           
I        3.51196949      14.02959691       8.93145308                           
I        0.07849930      15.75152855       8.93144278                           
I        4.73186155      11.91723184      12.00619783                           
I        4.51617900      15.75127059      12.00619302                           
I        1.06740595      14.02101041      12.00620106                           
Cr      -1.14618498      21.83733235      17.03520929                           
Cr      -4.58464539      23.82257680      17.04368562                           
I       -0.14721277      19.84622273      15.50172901                           
I       -3.37002766      21.96780609      15.50172980                           
I       -6.79826043      23.69804968      15.50174515                           
I       -2.14033808      19.85505493      18.57647573                           
I       -2.36580974      23.68947476      18.57647595                           
I       -5.80935225      21.96754269      18.57646027                           
Cr      2.29231601      19.85215813      10.46423698                            
Cr     -1.14619872      21.83734595      10.47271549                            
I        3.28648677      17.86402821       8.93147663                           
I        0.07347848      19.98523804       8.93145308                           
I       -3.35999171      21.70716968       8.93144278                           
I        1.29337054      17.87287297      12.00619783                           
I        1.07768799      21.70691172      12.00619302                           
I       -2.37108506      19.97665154      12.00620106                           
Cr      -4.58467600      27.79297348      17.03520929                           
Cr      -8.02313640      29.77821793      17.04368562                           
I       -3.58570378      25.80186386      15.50172901                           
I       -6.80851867      27.92344722      15.50172980                           
I      -10.23675144      29.65369082      15.50174515                           
I       -5.57882909      25.81069606      18.57647573                           
I       -5.80430075      29.64511589      18.57647595                           
I       -9.24784326      27.92318382      18.57646027                           
Cr     -1.14617500      25.80779926      10.46423698                            
Cr     -4.58468973      27.79298708      10.47271549                            
I       -0.15200424      23.81966934       8.93147663                           
I       -3.36501253      25.94087917       8.93145308                           
I       -6.79848272      27.66281081       8.93144278                           
I       -2.14512047      23.82851411      12.00619783                           
I       -2.36080302      27.66255286      12.00619302                           
I       -5.80957607      25.93229268      12.00620106                           
Cr      -8.02316701      33.74861461      17.03520929                           
Cr     -11.46162741      35.73385906      17.04368562                           
I       -7.02419479      31.75750499      15.50172901                           
I      -10.24700968      33.87908835      15.50172980                           
I      -13.67524245      35.60933195      15.50174515                           
I       -9.01732010      31.76633719      18.57647573                           
I       -9.24279176      35.60075702      18.57647595                           
I      -12.68633427      33.87882495      18.57646027                           
Cr     -4.58466601      31.76344039      10.46423698                            
Cr     -8.02318074      33.74862822      10.47271549                            
I       -3.59049526      29.77531047       8.93147663                           
I       -6.80350354      31.89652031       8.93145308                           
I      -10.23697373      33.61845194       8.93144278                           
I       -5.58361148      29.78415524      12.00619783                           
I       -5.79929403      33.61819399      12.00619302                           
I       -9.24806708      31.88793381      12.00620106                           
Cr      16.04627007       3.97040895      17.03520929                           
Cr      12.60780966       5.95565340      17.04368562                           
I       17.04524228       1.97929933      15.50172901                           
I       13.82242740       4.10088269      15.50172980                           
I       10.39419463       5.83112629      15.50174515                           
I       15.05211697       1.98813153      18.57647573                           
I       14.82664532       5.82255136      18.57647595                           
I       11.38310281       4.10061929      18.57646027                           
Cr     19.48477107       1.98523473      10.46423698                            
Cr     16.04625633       3.97042256      10.47271549                            
I       20.47894182      -0.00289519       8.93147663                           
I       17.26593353       2.11831465       8.93145308                           
I       13.83246335       3.84024628       8.93144278                           
I       18.48582560       0.00594958      12.00619783                           
I       18.27014304       3.83998833      12.00619302                           
I       14.82137000       2.10972815      12.00620106                           
Cr      12.60777906       9.92605008      17.03520929                           
Cr       9.16931865      11.91129453      17.04368562                           
I       13.60675127       7.93494046      15.50172901                           
I       10.38393639      10.05652383      15.50172980                           
I        6.95570362      11.78676742      15.50174515                           
I       11.61362596       7.94377266      18.57647573                           
I       11.38815431      11.77819249      18.57647595                           
I        7.94461180      10.05626043      18.57646027                           
Cr     16.04628006       7.94087586      10.46423698                            
Cr     12.60776532       9.92606369      10.47271549                            
I       17.04045081       5.95274594       8.93147663                           
I       13.82744252       8.07395578       8.93145308                           
I       10.39397233       9.79588741       8.93144278                           
I       15.04733459       5.96159071      12.00619783                           
I       14.83165203       9.79562946      12.00619302                           
I       11.38287899       8.06536928      12.00620106                           
Cr       9.16928805      15.88169122      17.03520929                           
Cr       5.73082764      17.86693567      17.04368562                           
I       10.16826026      13.89058160      15.50172901                           
I        6.94544538      16.01216496      15.50172980                           
I        3.51721261      17.74240855      15.50174515                           
I        8.17513495      13.89941380      18.57647573                           
I        7.94966330      17.73383362      18.57647595                           
I        4.50612079      16.01190156      18.57646027                           
Cr     12.60778905      13.89651700      10.46423698                            
Cr      9.16927431      15.88170482      10.47271549                            
I       13.60195980      11.90838708       8.93147663                           
I       10.38895151      14.02959691       8.93145308                           
I        6.95548132      15.75152855       8.93144278                           
I       11.60884358      11.91723184      12.00619783                           
I       11.39316102      15.75127059      12.00619302                           
I        7.94438798      14.02101041      12.00620106                           
Cr       5.73079704      21.83733235      17.03520929                           
Cr       2.29233663      23.82257680      17.04368562                           
I        6.72976925      19.84622273      15.50172901                           
I        3.50695437      21.96780609      15.50172980                           
I        0.07872159      23.69804968      15.50174515                           
I        4.73664394      19.85505493      18.57647573                           
I        4.51117228      23.68947476      18.57647595                           
I        1.06762977      21.96754269      18.57646027                           
Cr      9.16929804      19.85215813      10.46423698                            
Cr      5.73078330      21.83734595      10.47271549                            
I       10.16346879      17.86402821       8.93147663                           
I        6.95046050      19.98523804       8.93145308                           
I        3.51699031      21.70716968       8.93144278                           
I        8.17035256      17.87287297      12.00619783                           
I        7.95467001      21.70691172      12.00619302                           
I        4.50589697      19.97665154      12.00620106                           
Cr       2.29230603      27.79297348      17.03520929                           
Cr      -1.14615438      29.77821793      17.04368562                           
I        3.29127824      25.80186386      15.50172901                           
I        0.06846335      27.92344722      15.50172980                           
I       -3.35976942      29.65369082      15.50174515                           
I        1.29815293      25.81069606      18.57647573                           
I        1.07268127      29.64511589      18.57647595                           
I       -2.37086124      27.92318382      18.57646027                           
Cr      5.73080703      25.80779926      10.46423698                            
Cr      2.29229229      27.79298708      10.47271549                            
I        6.72497778      23.81966934       8.93147663                           
I        3.51196949      25.94087917       8.93145308                           
I        0.07849930      27.66281081       8.93144278                           
I        4.73186155      23.82851411      12.00619783                           
I        4.51617900      27.66255286      12.00619302                           
I        1.06740595      25.93229268      12.00620106                           
Cr      -1.14618498      33.74861461      17.03520929                           
Cr      -4.58464539      35.73385906      17.04368562                           
I       -0.14721277      31.75750499      15.50172901                           
I       -3.37002766      33.87908835      15.50172980                           
I       -6.79826043      35.60933195      15.50174515                           
I       -2.14033808      31.76633719      18.57647573                           
I       -2.36580974      35.60075702      18.57647595                           
I       -5.80935225      33.87882495      18.57646027                           
Cr      2.29231601      31.76344039      10.46423698                            
Cr     -1.14619872      33.74862822      10.47271549                            
I        3.28648677      29.77531047       8.93147663                           
I        0.07347848      31.89652031       8.93145308                           
I       -3.35999171      33.61845194       8.93144278                           
I        1.29337054      29.78415524      12.00619783                           
I        1.07768799      33.61819399      12.00619302                           
I       -2.37108506      31.88793381      12.00620106                           
Cr      22.92325209       3.97040895      17.03520929                           
Cr      19.48479168       5.95565340      17.04368562                           
I       23.92222431       1.97929933      15.50172901                           
I       20.69940942       4.10088269      15.50172980                           
I       17.27117665       5.83112629      15.50174515                           
I       21.92909899       1.98813153      18.57647573                           
I       21.70362734       5.82255136      18.57647595                           
I       18.26008483       4.10061929      18.57646027                           
Cr     26.36175309       1.98523473      10.46423698                            
Cr     22.92323835       3.97042256      10.47271549                            
I       27.35592384      -0.00289519       8.93147663                           
I       24.14291556       2.11831465       8.93145308                           
I       20.70944537       3.84024628       8.93144278                           
I       25.36280762       0.00594958      12.00619783                           
I       25.14712507       3.83998833      12.00619302                           
I       21.69835202       2.10972815      12.00620106                           
Cr      19.48476108       9.92605008      17.03520929                           
Cr      16.04630067      11.91129453      17.04368562                           
I       20.48373330       7.93494046      15.50172901                           
I       17.26091841      10.05652383      15.50172980                           
I       13.83268564      11.78676742      15.50174515                           
I       18.49060798       7.94377266      18.57647573                           
I       18.26513633      11.77819249      18.57647595                           
I       14.82159382      10.05626043      18.57646027                           
Cr     22.92326208       7.94087586      10.46423698                            
Cr     19.48474734       9.92606369      10.47271549                            
I       23.91743283       5.95274594       8.93147663                           
I       20.70442455       8.07395578       8.93145308                           
I       17.27095436       9.79588741       8.93144278                           
I       21.92431661       5.96159071      12.00619783                           
I       21.70863405       9.79562946      12.00619302                           
I       18.25986101       8.06536928      12.00620106                           
Cr      16.04627007      15.88169122      17.03520929                           
Cr      12.60780966      17.86693567      17.04368562                           
I       17.04524228      13.89058160      15.50172901                           
I       13.82242740      16.01216496      15.50172980                           
I       10.39419463      17.74240855      15.50174515                           
I       15.05211697      13.89941380      18.57647573                           
I       14.82664532      17.73383362      18.57647595                           
I       11.38310281      16.01190156      18.57646027                           
Cr     19.48477107      13.89651700      10.46423698                            
Cr     16.04625633      15.88170482      10.47271549                            
I       20.47894182      11.90838708       8.93147663                           
I       17.26593353      14.02959691       8.93145308                           
I       13.83246335      15.75152855       8.93144278                           
I       18.48582560      11.91723184      12.00619783                           
I       18.27014304      15.75127059      12.00619302                           
I       14.82137000      14.02101041      12.00620106                           
Cr      12.60777906      21.83733235      17.03520929                           
Cr       9.16931865      23.82257680      17.04368562                           
I       13.60675127      19.84622273      15.50172901                           
I       10.38393639      21.96780609      15.50172980                           
I        6.95570362      23.69804968      15.50174515                           
I       11.61362596      19.85505493      18.57647573                           
I       11.38815431      23.68947476      18.57647595                           
I        7.94461180      21.96754269      18.57646027                           
Cr     16.04628006      19.85215813      10.46423698                            
Cr     12.60776532      21.83734595      10.47271549                            
I       17.04045081      17.86402821       8.93147663                           
I       13.82744252      19.98523804       8.93145308                           
I       10.39397233      21.70716968       8.93144278                           
I       15.04733459      17.87287297      12.00619783                           
I       14.83165203      21.70691172      12.00619302                           
I       11.38287899      19.97665154      12.00620106                           
Cr       9.16928805      27.79297348      17.03520929                           
Cr       5.73082764      29.77821793      17.04368562                           
I       10.16826026      25.80186386      15.50172901                           
I        6.94544538      27.92344722      15.50172980                           
I        3.51721261      29.65369082      15.50174515                           
I        8.17513495      25.81069606      18.57647573                           
I        7.94966330      29.64511589      18.57647595                           
I        4.50612079      27.92318382      18.57646027                           
Cr     12.60778905      25.80779926      10.46423698                            
Cr      9.16927431      27.79298708      10.47271549                            
I       13.60195980      23.81966934       8.93147663                           
I       10.38895151      25.94087917       8.93145308                           
I        6.95548132      27.66281081       8.93144278                           
I       11.60884358      23.82851411      12.00619783                           
I       11.39316102      27.66255286      12.00619302                           
I        7.94438798      25.93229268      12.00620106                           
Cr       5.73079704      33.74861461      17.03520929                           
Cr       2.29233663      35.73385906      17.04368562                           
I        6.72976925      31.75750499      15.50172901                           
I        3.50695437      33.87908835      15.50172980                           
I        0.07872159      35.60933195      15.50174515                           
I        4.73664394      31.76633719      18.57647573                           
I        4.51117228      35.60075702      18.57647595                           
I        1.06762977      33.87882495      18.57646027                           
Cr      9.16929804      31.76344039      10.46423698                            
Cr      5.73078330      33.74862822      10.47271549                            
I       10.16346879      29.77531047       8.93147663                           
I        6.95046050      31.89652031       8.93145308                           
I        3.51699031      33.61845194       8.93144278                           
I        8.17035256      29.78415524      12.00619783                           
I        7.95467001      33.61819399      12.00619302                           
I        4.50589697      31.88793381      12.00620106                           
Cr      29.80023411       3.97040895      17.03520929                           
Cr      26.36177371       5.95565340      17.04368562                           
I       30.79920633       1.97929933      15.50172901                           
I       27.57639144       4.10088269      15.50172980                           
I       24.14815867       5.83112629      15.50174515                           
I       28.80608102       1.98813153      18.57647573                           
I       28.58060936       5.82255136      18.57647595                           
I       25.13706685       4.10061929      18.57646027                           
Cr     33.23873511       1.98523473      10.46423698                            
Cr     29.80022038       3.97042256      10.47271549                            
I       34.23290587      -0.00289519       8.93147663                           
I       31.01989758       2.11831465       8.93145308                           
I       27.58642739       3.84024628       8.93144278                           
I       32.23978964       0.00594958      12.00619783                           
I       32.02410709       3.83998833      12.00619302                           
I       28.57533404       2.10972815      12.00620106                           
Cr      26.36174310       9.92605008      17.03520929                           
Cr      22.92328270      11.91129453      17.04368562                           
I       27.36071532       7.93494046      15.50172901                           
I       24.13790043      10.05652383      15.50172980                           
I       20.70966766      11.78676742      15.50174515                           
I       25.36759001       7.94377266      18.57647573                           
I       25.14211835      11.77819249      18.57647595                           
I       21.69857584      10.05626043      18.57646027                           
Cr     29.80024410       7.94087586      10.46423698                            
Cr     26.36172937       9.92606369      10.47271549                            
I       30.79441485       5.95274594       8.93147663                           
I       27.58140657       8.07395578       8.93145308                           
I       24.14793638       9.79588741       8.93144278                           
I       28.80129863       5.96159071      12.00619783                           
I       28.58561608       9.79562946      12.00619302                           
I       25.13684303       8.06536928      12.00620106                           
Cr      22.92325209      15.88169122      17.03520929                           
Cr      19.48479168      17.86693567      17.04368562                           
I       23.92222431      13.89058160      15.50172901                           
I       20.69940942      16.01216496      15.50172980                           
I       17.27117665      17.74240855      15.50174515                           
I       21.92909899      13.89941380      18.57647573                           
I       21.70362734      17.73383362      18.57647595                           
I       18.26008483      16.01190156      18.57646027                           
Cr     26.36175309      13.89651700      10.46423698                            
Cr     22.92323835      15.88170482      10.47271549                            
I       27.35592384      11.90838708       8.93147663                           
I       24.14291556      14.02959691       8.93145308                           
I       20.70944537      15.75152855       8.93144278                           
I       25.36280762      11.91723184      12.00619783                           
I       25.14712507      15.75127059      12.00619302                           
I       21.69835202      14.02101041      12.00620106                           
Cr      19.48476108      21.83733235      17.03520929                           
Cr      16.04630067      23.82257680      17.04368562                           
I       20.48373330      19.84622273      15.50172901                           
I       17.26091841      21.96780609      15.50172980                           
I       13.83268564      23.69804968      15.50174515                           
I       18.49060798      19.85505493      18.57647573                           
I       18.26513633      23.68947476      18.57647595                           
I       14.82159382      21.96754269      18.57646027                           
Cr     22.92326208      19.85215813      10.46423698                            
Cr     19.48474734      21.83734595      10.47271549                            
I       23.91743283      17.86402821       8.93147663                           
I       20.70442455      19.98523804       8.93145308                           
I       17.27095436      21.70716968       8.93144278                           
I       21.92431661      17.87287297      12.00619783                           
I       21.70863405      21.70691172      12.00619302                           
I       18.25986101      19.97665154      12.00620106                           
Cr      16.04627007      27.79297348      17.03520929                           
Cr      12.60780966      29.77821793      17.04368562                           
I       17.04524228      25.80186386      15.50172901                           
I       13.82242740      27.92344722      15.50172980                           
I       10.39419463      29.65369082      15.50174515                           
I       15.05211697      25.81069606      18.57647573                           
I       14.82664532      29.64511589      18.57647595                           
I       11.38310281      27.92318382      18.57646027                           
Cr     19.48477107      25.80779926      10.46423698                            
Cr     16.04625633      27.79298708      10.47271549                            
I       20.47894182      23.81966934       8.93147663                           
I       17.26593353      25.94087917       8.93145308                           
I       13.83246335      27.66281081       8.93144278                           
I       18.48582560      23.82851411      12.00619783                           
I       18.27014304      27.66255286      12.00619302                           
I       14.82137000      25.93229268      12.00620106                           
Cr      12.60777906      33.74861461      17.03520929                           
Cr       9.16931865      35.73385906      17.04368562                           
I       13.60675127      31.75750499      15.50172901                           
I       10.38393639      33.87908835      15.50172980                           
I        6.95570362      35.60933195      15.50174515                           
I       11.61362596      31.76633719      18.57647573                           
I       11.38815431      35.60075702      18.57647595                           
I        7.94461180      33.87882495      18.57646027                           
Cr     16.04628006      31.76344039      10.46423698                            
Cr     12.60776532      33.74862822      10.47271549                            
I       17.04045081      29.77531047       8.93147663                           
I       13.82744252      31.89652031       8.93145308                           
I       10.39397233      33.61845194       8.93144278                           
I       15.04733459      29.78415524      12.00619783                           
I       14.83165203      33.61819399      12.00619302                           
I       11.38287899      31.88793381      12.00620106                           
Cr      36.67721614       3.97040895      17.03520929                           
Cr      33.23875573       5.95565340      17.04368562                           
I       37.67618835       1.97929933      15.50172901                           
I       34.45337346       4.10088269      15.50172980                           
I       31.02514069       5.83112629      15.50174515                           
I       35.68306304       1.98813153      18.57647573                           
I       35.45759138       5.82255136      18.57647595                           
I       32.01404887       4.10061929      18.57646027                           
Cr     40.11571714       1.98523473      10.46423698                            
Cr     36.67720240       3.97042256      10.47271549                            
I       41.10988789      -0.00289519       8.93147663                           
I       37.89687960       2.11831465       8.93145308                           
I       34.46340941       3.84024628       8.93144278                           
I       39.11677166       0.00594958      12.00619783                           
I       38.90108911       3.83998833      12.00619302                           
I       35.45231606       2.10972815      12.00620106                           
Cr      33.23872513       9.92605008      17.03520929                           
Cr      29.80026472      11.91129453      17.04368562                           
I       34.23769734       7.93494046      15.50172901                           
I       31.01488245      10.05652383      15.50172980                           
I       27.58664968      11.78676742      15.50174515                           
I       32.24457203       7.94377266      18.57647573                           
I       32.01910037      11.77819249      18.57647595                           
I       28.57555786      10.05626043      18.57646027                           
Cr     36.67722612       7.94087586      10.46423698                            
Cr     33.23871139       9.92606369      10.47271549                            
I       37.67139688       5.95274594       8.93147663                           
I       34.45838859       8.07395578       8.93145308                           
I       31.02491840       9.79588741       8.93144278                           
I       35.67828065       5.96159071      12.00619783                           
I       35.46259810       9.79562946      12.00619302                           
I       32.01382505       8.06536928      12.00620106                           
Cr      29.80023411      15.88169122      17.03520929                           
Cr      26.36177371      17.86693567      17.04368562                           
I       30.79920633      13.89058160      15.50172901                           
I       27.57639144      16.01216496      15.50172980                           
I       24.14815867      17.74240855      15.50174515                           
I       28.80608102      13.89941380      18.57647573                           
I       28.58060936      17.73383362      18.57647595                           
I       25.13706685      16.01190156      18.57646027                           
Cr     33.23873511      13.89651700      10.46423698                            
Cr     29.80022038      15.88170482      10.47271549                            
I       34.23290587      11.90838708       8.93147663                           
I       31.01989758      14.02959691       8.93145308                           
I       27.58642739      15.75152855       8.93144278                           
I       32.23978964      11.91723184      12.00619783                           
I       32.02410709      15.75127059      12.00619302                           
I       28.57533404      14.02101041      12.00620106                           
Cr      26.36174310      21.83733235      17.03520929                           
Cr      22.92328270      23.82257680      17.04368562                           
I       27.36071532      19.84622273      15.50172901                           
I       24.13790043      21.96780609      15.50172980                           
I       20.70966766      23.69804968      15.50174515                           
I       25.36759001      19.85505493      18.57647573                           
I       25.14211835      23.68947476      18.57647595                           
I       21.69857584      21.96754269      18.57646027                           
Cr     29.80024410      19.85215813      10.46423698                            
Cr     26.36172937      21.83734595      10.47271549                            
I       30.79441485      17.86402821       8.93147663                           
I       27.58140657      19.98523804       8.93145308                           
I       24.14793638      21.70716968       8.93144278                           
I       28.80129863      17.87287297      12.00619783                           
I       28.58561608      21.70691172      12.00619302                           
I       25.13684303      19.97665154      12.00620106                           
Cr      22.92325209      27.79297348      17.03520929                           
Cr      19.48479168      29.77821793      17.04368562                           
I       23.92222431      25.80186386      15.50172901                           
I       20.69940942      27.92344722      15.50172980                           
I       17.27117665      29.65369082      15.50174515                           
I       21.92909899      25.81069606      18.57647573                           
I       21.70362734      29.64511589      18.57647595                           
I       18.26008483      27.92318382      18.57646027                           
Cr     26.36175309      25.80779926      10.46423698                            
Cr     22.92323835      27.79298708      10.47271549                            
I       27.35592384      23.81966934       8.93147663                           
I       24.14291556      25.94087917       8.93145308                           
I       20.70944537      27.66281081       8.93144278                           
I       25.36280762      23.82851411      12.00619783                           
I       25.14712507      27.66255286      12.00619302                           
I       21.69835202      25.93229268      12.00620106                           
Cr      19.48476108      33.74861461      17.03520929                           
Cr      16.04630067      35.73385906      17.04368562                           
I       20.48373330      31.75750499      15.50172901                           
I       17.26091841      33.87908835      15.50172980                           
I       13.83268564      35.60933195      15.50174515                           
I       18.49060798      31.76633719      18.57647573                           
I       18.26513633      35.60075702      18.57647595                           
I       14.82159382      33.87882495      18.57646027                           
Cr     22.92326208      31.76344039      10.46423698                            
Cr     19.48474734      33.74862822      10.47271549                            
I       23.91743283      29.77531047       8.93147663                           
I       20.70442455      31.89652031       8.93145308                           
I       17.27095436      33.61845194       8.93144278                           
I       21.92431661      29.78415524      12.00619783                           
I       21.70863405      33.61819399      12.00619302                           
I       18.25986101      31.88793381      12.00620106                           
%ENDBLOCK POSITIONS_ABS                                                         
%BLOCK SPECIES                                                                  
Cr Cr 24 -1 15                                                                  
I   I  53 -1 15                                                                 
%ENDBLOCK SPECIES                                                               
%BLOCK SPECIES_ATOMIC_SET                                                       
Cr "SOLVE INIT SPIN=3"                                                          
I   "SOLVE"                                                                     
%ENDBLOCK SPECIES_ATOMIC_SET                                                    
%BLOCK HUBBARD                                                                  
Cr  2 2.97 0.37 -10.0 0.00 0.0                                                  
%ENDBLOCK HUBBARD                                                               
%BLOCK SPECIES_LDOS_GROUPS                                                      
Cr                                                                              
I                                                                               
%ENDBLOCK SPECIES_LDOS_GROUPS                                                   
%BLOCK SPECIES_POT                                                              
Cr  "../../../../Cr.PBE-paw.abinit"                                             
I   "../../../../I.PBE-paw.abinit"                                              
%ENDBLOCK SPECIES_POT                                                           

--------------------------------------------------------------------------------
-------------------------------- END INPUT FILE --------------------------------
--------------------------------------------------------------------------------


 
 ESDF WARNING(1): "charge" (esdf_physical) has no units. Assume "e".
<<<<<<<<<<<<<<<<<<<<<<<<<<<<<<<<< Full system >>>>>>>>>>>>>>>>>>>>>>>>>>>>>>>>>>
<<<<<<<<<<<<<<<<<<<<<<<<<<< PAW Dataset information >>>>>>>>>>>>>>>>>>>>>>>>>>>
File: ../../../../Cr.PBE-paw.abinit; rc = 2.11 bohr; shape type =  2; rshape = 1.80 bohr;
  Atomic number: 24;  ionic charge: 14.000000
    Partial Wave 1: l = 0
    Partial Wave 2: l = 0
    Partial Wave 3: l = 1
    Partial Wave 4: l = 1
    Partial Wave 5: l = 2
    Partial Wave 6: l = 2
  Core charge supplied for Nonlinear Core Corrections
File: ../../../../I.PBE-paw.abinit; rc = 2.30 bohr; shape type =  2; rshape = 2.11 bohr;
  Atomic number: 53;  ionic charge:  7.000000
    Partial Wave 1: l = 0
    Partial Wave 2: l = 0
    Partial Wave 3: l = 1
    Partial Wave 4: l = 1
  Core charge supplied for Nonlinear Core Corrections
<<<<<<<<<<<<<<<<<<<<<<<<<<<<<<<<<<<<<<< >>>>>>>>>>>>>>>>>>>>>>>>>>>>>>>>>>>>>>>

-------------------------- Atom counting information ---------------------------
Symbol    Natoms    Nngwfs    Nprojs
  Cr       144      1872      2592
  I        432      1728      3456
.......   ......    ......    ......
Totals:    576      3600      6048
--------------------------------------------------------------------------------

=============================== PSINC grid sizes ===============================
                      Simulation cell:  175 x 175 x 117
                              FFT-box:  175 x 175 x 117
                                  PPD:    5 x   5 x   1
Grid space d1=  0.445563862424a0 (KE cutoff=  38.26345Eh =1041.20135eV)
Grid space d2=  0.445563862400a0 (KE cutoff=  38.26345Eh =1041.20135eV)
Grid space d3=  0.444294449711a0 (KE cutoff=  38.48241Eh =1047.15957eV)
================================================================================

********************* Fourier parallelisation information **********************
       Coarse grid (whole simulation cell) dimensions:    175   175   117
          Real-space ('12') slabs/proc (min max mean):      0     1     0
         Recip-space ('23') slabs/proc (min max mean):      0     1     0
********************************************************************************

********************* Fourier parallelisation information **********************
       Double grid (whole simulation cell) dimensions:    350   350   234
          Real-space ('12') slabs/proc (min max mean):      1     2     1
         Recip-space ('23') slabs/proc (min max mean):      1     2     1
********************************************************************************

********************* Fourier parallelisation information **********************
         Fine grid (whole simulation cell) dimensions:    700   700   468
          Real-space ('12') slabs/proc (min max mean):      3     4     3
         Recip-space ('23') slabs/proc (min max mean):      2     3     2
********************************************************************************
energy_and_force_init_cell: WARNING in internal_setup_spin:
        even number of electrons in cell and zero spin
        but continuing with spin-polarised calculation

Atom SCF Calculation for Cr : Z (AE atom) =  24 : Z (PS atom) =  14
Config String: 3s2.0 3p6.0 3d5.0 4s1.0 4p0.0 INIT SPIN=3
Orbitals (num,occ):  5     2.00 6.00 5.00 1.00 0.00
Orbitals   (num,l):  5        0    1    2    0    1
Atom SCF converged after  64 iterations to a total energy of    -87.07044631
Adjusting orbital occupancies:
Orbitals (num,spin,occ):  5  1     1.00 3.00 3.50 1.00 0.00
Orbitals   (num,spin,l):  5  1        0    1    2    0    1
Orbitals (num,spin,occ):  5  2     1.00 3.00 1.00 0.50 0.00
Orbitals   (num,spin,l):  5  2        0    1    2    0    1

Atom SCF Calculation for I  : Z (AE atom) =  53 : Z (PS atom) =   7
Config String: 5s2.0 5p5.0
Orbitals (num,occ):  2     2.00 5.00
Orbitals   (num,l):  2        0    1
Atom SCF converged after  28 iterations to a total energy of    -11.61352964

Atom SCF Calculation for Cr : Z (AE atom) =  24 : Z (PS atom) =  14
Config String: 3s2.0 3p6.0 3d5.0 4s1.0 4p0.0 INIT SPIN=3
Orbitals (num,occ):  5     2.00 6.00 5.00 1.00 0.00
Orbitals   (num,l):  5        0    1    2    0    1
Atom SCF converged after  64 iterations to a total energy of    -87.07044631

Atom SCF Calculation for I  : Z (AE atom) =  53 : Z (PS atom) =   7
Config String: 5s2.0 5p5.0
Orbitals (num,occ):  2     2.00 5.00
Orbitals   (num,l):  2        0    1
Atom SCF converged after  28 iterations to a total energy of    -11.61352964

Determining parallel strategy ...... done
Calculating Ewald energy ...            31583.245177 Hartree
Basis initialisation ...
... done

============================= Charge Augmentation ==============================
                           Aug box size:   49 x  49 x  45
================================================================================
Sparse matrix initialisation ...
 done

Reading NGWFs from file "Cr2I6_bilayer_LT_FM_AFM_nSP.tightbox_ngwfs" ... done
 done

================================= Core Density =================================
               Core den box size:  125 x 125 x 105
================================================================================

Reading density kernel from file "Cr2I6_bilayer_LT_FM_AFM_nSP.dkn" ... done

>>> Optimising kernel for current NGWFs:


>>> Density kernel optimised for the current NGWF basis:
     ~~~~~~~~~~~~~~~~~~~~~~~~~~~~~~~~~~~~~~~~~~~~~~~~~~~~~~~~~~~
     Total energy                =  -1.76306926317048E+04  Eh
     Estimated bandgap (UP spin) =  -8.5186E-03  Eh
     Estimated bandgap (DN spin) =   4.2866E-02  Eh
     RMS occupancy error         =   1.6974E-03
     [H,K] commutator            =   3.4578E-06
     UP spin occupancy bounds    = [  0.002:  1.003]
     DN spin occupancy bounds    = [  0.000:  1.001]
     ~~~~~~~~~~~~~~~~~~~~~~~~~~~~~~~~~~~~~~~~~~~~~~~~~~~~~~~~~~~




################################################################################
########################### NGWF CG iteration  001 #############################
################################################################################

>>> Checking for convergence of NGWFs:   NOT CONVERGED
  ========================================================================
         NGWF RMS gradient =  8.8523E-06 >  1.0000E-06  | above tolerance
  ========================================================================

>>> Improving NGWFs using line search:
  ========================================================================
   Predicted total energy    =      -1.76307069057800E+04 Eh
   Predicted gain in energy  =      -1.42740752598911E-02 Eh
  ========================================================================

Writing NGWFs to file "Cr2I6_bilayer_LT_FM_AFM_nSP.tightbox_ngwfs".... done

>>> Optimising kernel for current NGWFs:
   iter  |      energy (Eh)       | rms gradient |  commutator  |   dE (Eh)
    1        -1.763068595715E+04     3.3201E-04     3.4960E-06
    2        -1.763068598242E+04     3.3201E-04     3.3483E-06    -2.5269E-05
    3        -1.763068600622E+04     3.3201E-04     3.2371E-06    -2.3801E-05
    4        -1.763068602885E+04     3.3201E-04     3.1535E-06    -2.2627E-05
    5        -1.763068605057E+04     3.3201E-04     3.0902E-06    -2.1720E-05
Finished density kernel iterations (   5)

Writing density kernel to file "Cr2I6_bilayer_LT_FM_AFM_nSP.dkn" ... done


>>> Density kernel optimised for the current NGWF basis:
     ~~~~~~~~~~~~~~~~~~~~~~~~~~~~~~~~~~~~~~~~~~~~~~~~~~~~~~~~~~~
     Total energy                =  -1.76306860505689E+04  Eh
     Estimated bandgap (UP spin) =  -8.5498E-03  Eh
     Estimated bandgap (DN spin) =   4.2775E-02  Eh
     RMS occupancy error         =   1.5727E-03
     [H,K] commutator            =   3.0902E-06
     UP spin occupancy bounds    = [  0.002:  1.002]
     DN spin occupancy bounds    = [  0.000:  1.000]
     ~~~~~~~~~~~~~~~~~~~~~~~~~~~~~~~~~~~~~~~~~~~~~~~~~~~~~~~~~~~




################################################################################
########################### NGWF CG iteration  002 #############################
################################################################################

>>> Checking for convergence of NGWFs:   NOT CONVERGED
  ========================================================================
         NGWF RMS gradient =  9.4997E-06 >  1.0000E-06  | above tolerance
  Maximum change in energy =  1.1426E-05 >  1.0000E-07  | above tolerance
  ========================================================================

>>> Improving NGWFs using line search:
WARNING in services_cubic_fit_minimum:
  cubic step (   -6.84738) less than zero - setting to safe value
  ========================================================================
   Predicted total energy    =      -1.76307649653472E+04 Eh
   Predicted gain in energy  =      -7.89147782816144E-02 Eh
  ========================================================================

Writing NGWFs to file "Cr2I6_bilayer_LT_FM_AFM_nSP.tightbox_ngwfs".... done

>>> Optimising kernel for current NGWFs:
   iter  |      energy (Eh)       | rms gradient |  commutator  |   dE (Eh)
    1        -1.763068689356E+04     3.3201E-04     3.2675E-06
    2        -1.763068691636E+04     3.3201E-04     3.1943E-06    -2.2801E-05
    3        -1.763068693853E+04     3.3201E-04     3.1327E-06    -2.2166E-05
    4        -1.763068696013E+04     3.3201E-04     3.0810E-06    -2.1602E-05
    5        -1.763068698123E+04     3.3201E-04     3.0377E-06    -2.1098E-05
    6        -1.763068700188E+04     3.3201E-04     3.0016E-06    -2.0655E-05
Finished density kernel iterations (   6)

Writing density kernel to file "Cr2I6_bilayer_LT_FM_AFM_nSP.dkn" ... done


>>> Density kernel optimised for the current NGWF basis:
     ~~~~~~~~~~~~~~~~~~~~~~~~~~~~~~~~~~~~~~~~~~~~~~~~~~~~~~~~~~~
     Total energy                =  -1.76306870018819E+04  Eh
     Estimated bandgap (UP spin) =  -8.5346E-03  Eh
     Estimated bandgap (DN spin) =   4.2829E-02  Eh
     RMS occupancy error         =   1.5727E-03
     [H,K] commutator            =   3.0016E-06
     UP spin occupancy bounds    = [  0.002:  1.002]
     DN spin occupancy bounds    = [  0.000:  1.000]
     ~~~~~~~~~~~~~~~~~~~~~~~~~~~~~~~~~~~~~~~~~~~~~~~~~~~~~~~~~~~




################################################################################
########################### NGWF CG iteration  003 #############################
################################################################################

>>> Checking for convergence of NGWFs:   NOT CONVERGED
  ========================================================================
         NGWF RMS gradient =  9.4974E-06 >  1.0000E-06  | above tolerance
  Maximum change in energy =  1.1426E-05 >  1.0000E-07  | above tolerance
  ========================================================================

>>> Improving NGWFs using line search:
Resetting NGWF CG
  ========================================================================
   Predicted total energy    =      -1.76306971221073E+04 Eh
   Predicted gain in energy  =      -1.01202253863448E-02 Eh
  ========================================================================

Writing NGWFs to file "Cr2I6_bilayer_LT_FM_AFM_nSP.tightbox_ngwfs".... done

>>> Optimising kernel for current NGWFs:
   iter  |      energy (Eh)       | rms gradient |  commutator  |   dE (Eh)
    1        -1.763068827462E+04     3.3199E-04     3.3591E-06
    2        -1.763068829791E+04     3.3199E-04     3.2297E-06    -2.3297E-05
    3        -1.763068832009E+04     3.3199E-04     3.1419E-06    -2.2175E-05
    4        -1.763068834146E+04     3.3199E-04     3.0814E-06    -2.1369E-05
    5        -1.763068836222E+04     3.3199E-04     3.0382E-06    -2.0764E-05
    6        -1.763068838252E+04     3.3199E-04     3.0055E-06    -2.0301E-05
    7        -1.763068840246E+04     3.3199E-04     2.9790E-06    -1.9939E-05
Finished density kernel iterations (   7)

Writing density kernel to file "Cr2I6_bilayer_LT_FM_AFM_nSP.dkn" ... done


>>> Density kernel optimised for the current NGWF basis:
     ~~~~~~~~~~~~~~~~~~~~~~~~~~~~~~~~~~~~~~~~~~~~~~~~~~~~~~~~~~~
     Total energy                =  -1.76306884024592E+04  Eh
     Estimated bandgap (UP spin) =  -8.5206E-03  Eh
     Estimated bandgap (DN spin) =   4.2838E-02  Eh
     RMS occupancy error         =   1.5727E-03
     [H,K] commutator            =   2.9790E-06
     UP spin occupancy bounds    = [  0.002:  1.002]
     DN spin occupancy bounds    = [ -0.000:  1.000]
     ~~~~~~~~~~~~~~~~~~~~~~~~~~~~~~~~~~~~~~~~~~~~~~~~~~~~~~~~~~~




################################################################################
########################### NGWF CG iteration  004 #############################
################################################################################

>>> Checking for convergence of NGWFs:   NOT CONVERGED
  ========================================================================
         NGWF RMS gradient =  9.4823E-06 >  1.0000E-06  | above tolerance
  Maximum change in energy =  2.4316E-06 >  1.0000E-07  | above tolerance
  ========================================================================

>>> Improving NGWFs using line search:
  ========================================================================
   Predicted total energy    =      -1.76306985574131E+04 Eh
   Predicted gain in energy  =      -1.01549539103871E-02 Eh
  ========================================================================

Writing NGWFs to file "Cr2I6_bilayer_LT_FM_AFM_nSP.tightbox_ngwfs".... done

>>> Optimising kernel for current NGWFs:
   iter  |      energy (Eh)       | rms gradient |  commutator  |   dE (Eh)
    1        -1.763068964544E+04     3.3197E-04     3.2433E-06
    2        -1.763068966761E+04     3.3197E-04     3.1601E-06    -2.2171E-05
    3        -1.763068968907E+04     3.3197E-04     3.0953E-06    -2.1461E-05
    4        -1.763068970997E+04     3.3197E-04     3.0444E-06    -2.0896E-05
    5        -1.763068973039E+04     3.3197E-04     3.0039E-06    -2.0421E-05
    6        -1.763068975041E+04     3.3197E-04     2.9712E-06    -2.0020E-05
    7        -1.763068977009E+04     3.3197E-04     2.9444E-06    -1.9681E-05
    8        -1.763068978953E+04     3.3197E-04     2.9239E-06    -1.9445E-05
Finished density kernel iterations (   8)

Writing density kernel to file "Cr2I6_bilayer_LT_FM_AFM_nSP.dkn" ... done


>>> Density kernel optimised for the current NGWF basis:
     ~~~~~~~~~~~~~~~~~~~~~~~~~~~~~~~~~~~~~~~~~~~~~~~~~~~~~~~~~~~
     Total energy                =  -1.76306897895331E+04  Eh
     Estimated bandgap (UP spin) =  -8.4963E-03  Eh
     Estimated bandgap (DN spin) =   4.2815E-02  Eh
     RMS occupancy error         =   1.5727E-03
     [H,K] commutator            =   2.9239E-06
     UP spin occupancy bounds    = [  0.002:  1.002]
     DN spin occupancy bounds    = [  0.000:  1.000]
     ~~~~~~~~~~~~~~~~~~~~~~~~~~~~~~~~~~~~~~~~~~~~~~~~~~~~~~~~~~~




################################################################################
########################### NGWF CG iteration  005 #############################
################################################################################

>>> Checking for convergence of NGWFs:   NOT CONVERGED
  ========================================================================
         NGWF RMS gradient =  9.4703E-06 >  1.0000E-06  | above tolerance
  Maximum change in energy =  2.4316E-06 >  1.0000E-07  | above tolerance
  ========================================================================

>>> Improving NGWFs using line search:
  ========================================================================
   Predicted total energy    =      -1.76306999289761E+04 Eh
   Predicted gain in energy  =      -1.01394429912034E-02 Eh
  ========================================================================

Writing NGWFs to file "Cr2I6_bilayer_LT_FM_AFM_nSP.tightbox_ngwfs".... done

>>> Optimising kernel for current NGWFs:
   iter  |      energy (Eh)       | rms gradient |  commutator  |   dE (Eh)
    1        -1.763069100103E+04     3.3195E-04     3.2057E-06
    2        -1.763069102264E+04     3.3195E-04     3.1138E-06    -2.1608E-05
    3        -1.763069104349E+04     3.3195E-04     3.0496E-06    -2.0854E-05
    4        -1.763069106378E+04     3.3195E-04     3.0037E-06    -2.0292E-05
    5        -1.763069108364E+04     3.3196E-04     2.9697E-06    -1.9853E-05
    6        -1.763069110314E+04     3.3196E-04     2.9430E-06    -1.9507E-05
    7        -1.763069112237E+04     3.3196E-04     2.9211E-06    -1.9226E-05
    8        -1.763069114155E+04     3.3196E-04     2.8982E-06    -1.9179E-05
    9        -1.763069116052E+04     3.3196E-04     2.8809E-06    -1.8969E-05
Finished density kernel iterations (   9)

Writing density kernel to file "Cr2I6_bilayer_LT_FM_AFM_nSP.dkn" ... done


>>> Density kernel optimised for the current NGWF basis:
     ~~~~~~~~~~~~~~~~~~~~~~~~~~~~~~~~~~~~~~~~~~~~~~~~~~~~~~~~~~~
     Total energy                =  -1.76306911605183E+04  Eh
     Estimated bandgap (UP spin) =  -8.4576E-03  Eh
     Estimated bandgap (DN spin) =   4.2836E-02  Eh
     RMS occupancy error         =   1.5727E-03
     [H,K] commutator            =   2.8809E-06
     UP spin occupancy bounds    = [  0.002:  1.002]
     DN spin occupancy bounds    = [  0.000:  1.000]
     ~~~~~~~~~~~~~~~~~~~~~~~~~~~~~~~~~~~~~~~~~~~~~~~~~~~~~~~~~~~




################################################################################
########################### NGWF CG iteration  006 #############################
################################################################################

>>> Checking for convergence of NGWFs:   NOT CONVERGED
  ========================================================================
         NGWF RMS gradient =  9.4609E-06 >  1.0000E-06  | above tolerance
  Maximum change in energy =  2.4081E-06 >  1.0000E-07  | above tolerance
  ========================================================================

>>> Improving NGWFs using line search:
  ========================================================================
   Predicted total energy    =      -1.76307012743114E+04 Eh
   Predicted gain in energy  =      -1.01137930687401E-02 Eh
  ========================================================================

Writing NGWFs to file "Cr2I6_bilayer_LT_FM_AFM_nSP.tightbox_ngwfs".... done

>>> Optimising kernel for current NGWFs:
   iter  |      energy (Eh)       | rms gradient |  commutator  |   dE (Eh)
    1        -1.763069234397E+04     3.3194E-04     3.1469E-06
    2        -1.763069236487E+04     3.3194E-04     3.0594E-06    -2.0902E-05
    3        -1.763069238507E+04     3.3194E-04     3.0004E-06    -2.0201E-05
    4        -1.763069240476E+04     3.3194E-04     2.9598E-06    -1.9691E-05
    5        -1.763069242406E+04     3.3194E-04     2.9304E-06    -1.9303E-05
    6        -1.763069244306E+04     3.3194E-04     2.9078E-06    -1.9002E-05
    7        -1.763069246183E+04     3.3194E-04     2.8891E-06    -1.8763E-05
    8        -1.763069248061E+04     3.3194E-04     2.8676E-06    -1.8785E-05
    9        -1.763069249920E+04     3.3194E-04     2.8517E-06    -1.8588E-05
   10        -1.763069251763E+04     3.3194E-04     2.8393E-06    -1.8424E-05
Finished density kernel iterations (  10)

Writing density kernel to file "Cr2I6_bilayer_LT_FM_AFM_nSP.dkn" ... done


>>> Density kernel optimised for the current NGWF basis:
     ~~~~~~~~~~~~~~~~~~~~~~~~~~~~~~~~~~~~~~~~~~~~~~~~~~~~~~~~~~~
     Total energy                =  -1.76306925176253E+04  Eh
     Estimated bandgap (UP spin) =  -8.4381E-03  Eh
     Estimated bandgap (DN spin) =   4.2807E-02  Eh
     RMS occupancy error         =   1.5727E-03
     [H,K] commutator            =   2.8393E-06
     UP spin occupancy bounds    = [  0.002:  1.002]
     DN spin occupancy bounds    = [  0.000:  1.000]
     ~~~~~~~~~~~~~~~~~~~~~~~~~~~~~~~~~~~~~~~~~~~~~~~~~~~~~~~~~~~




################################################################################
########################### NGWF CG iteration  007 #############################
[...]
    6        -1.763069373946E+04     3.3193E-04     2.8715E-06    -1.8622E-05
    7        -1.763069375789E+04     3.3193E-04     2.8563E-06    -1.8427E-05
    8        -1.763069377634E+04     3.3193E-04     2.8359E-06    -1.8451E-05
    9        -1.763069379460E+04     3.3193E-04     2.8215E-06    -1.8263E-05
   10        -1.763069381271E+04     3.3193E-04     2.8106E-06    -1.8111E-05
   11        -1.763069383068E+04     3.3193E-04     2.8016E-06    -1.7973E-05
Finished density kernel iterations (  11)

Writing density kernel to file "Cr2I6_bilayer_LT_FM_AFM_nSP.dkn" ... done


>>> Density kernel optimised for the current NGWF basis:
     ~~~~~~~~~~~~~~~~~~~~~~~~~~~~~~~~~~~~~~~~~~~~~~~~~~~~~~~~~~~
     Total energy                =  -1.76306938306844E+04  Eh
     Estimated bandgap (UP spin) =  -8.4337E-03  Eh
     Estimated bandgap (DN spin) =   4.2781E-02  Eh
     RMS occupancy error         =   1.5727E-03
     [H,K] commutator            =   2.8016E-06
     UP spin occupancy bounds    = [  0.002:  1.002]
     DN spin occupancy bounds    = [  0.000:  1.000]
     ~~~~~~~~~~~~~~~~~~~~~~~~~~~~~~~~~~~~~~~~~~~~~~~~~~~~~~~~~~~




################################################################################
########################### NGWF CG iteration  008 #############################
################################################################################

>>> Checking for convergence of NGWFs:   NOT CONVERGED
  ========================================================================
         NGWF RMS gradient =  9.4450E-06 >  1.0000E-06  | above tolerance
  Maximum change in energy =  2.3561E-06 >  1.0000E-07  | above tolerance
  ========================================================================

>>> Improving NGWFs using line search:
  ========================================================================
   Predicted total energy    =      -1.76307038731181E+04 Eh
   Predicted gain in energy  =      -1.00424337797449E-02 Eh
  ========================================================================

Writing NGWFs to file "Cr2I6_bilayer_LT_FM_AFM_nSP.tightbox_ngwfs".... done

>>> Optimising kernel for current NGWFs:
   iter  |      energy (Eh)       | rms gradient |  commutator  |   dE (Eh)
    1        -1.763069493624E+04     3.3191E-04     3.0344E-06
    2        -1.763069495596E+04     3.3191E-04     2.9526E-06    -1.9718E-05
    3        -1.763069497504E+04     3.3191E-04     2.9031E-06    -1.9078E-05
    4        -1.763069499369E+04     3.3191E-04     2.8727E-06    -1.8654E-05
    5        -1.763069501204E+04     3.3191E-04     2.8528E-06    -1.8354E-05
    6        -1.763069503018E+04     3.3191E-04     2.8381E-06    -1.8137E-05
    7        -1.763069504815E+04     3.3191E-04     2.8256E-06    -1.7972E-05
    8        -1.763069506624E+04     3.3191E-04     2.8050E-06    -1.8083E-05
    9        -1.763069508413E+04     3.3191E-04     2.7914E-06    -1.7894E-05
   10        -1.763069510188E+04     3.3191E-04     2.7817E-06    -1.7746E-05
   11        -1.763069511949E+04     3.3191E-04     2.7739E-06    -1.7616E-05
   12        -1.763069513699E+04     3.3191E-04     2.7670E-06    -1.7499E-05
Finished density kernel iterations (  12)

Writing density kernel to file "Cr2I6_bilayer_LT_FM_AFM_nSP.dkn" ... done


>>> Density kernel optimised for the current NGWF basis:
     ~~~~~~~~~~~~~~~~~~~~~~~~~~~~~~~~~~~~~~~~~~~~~~~~~~~~~~~~~~~
     Total energy                =  -1.76306951369919E+04  Eh
     Estimated bandgap (UP spin) =  -8.4109E-03  Eh
     Estimated bandgap (DN spin) =   4.2813E-02  Eh
     RMS occupancy error         =   1.5727E-03
     [H,K] commutator            =   2.7670E-06
     UP spin occupancy bounds    = [  0.002:  1.002]
     DN spin occupancy bounds    = [  0.000:  1.000]
     ~~~~~~~~~~~~~~~~~~~~~~~~~~~~~~~~~~~~~~~~~~~~~~~~~~~~~~~~~~~




################################################################################
########################### NGWF CG iteration  009 #############################
################################################################################

>>> Checking for convergence of NGWFs:   NOT CONVERGED
  ========================================================================
         NGWF RMS gradient =  9.4377E-06 >  1.0000E-06  | above tolerance
  Maximum change in energy =  2.2796E-06 >  1.0000E-07  | above tolerance
  ========================================================================

>>> Improving NGWFs using line search:
  ========================================================================
   Predicted total energy    =      -1.76307051672142E+04 Eh
   Predicted gain in energy  =      -1.00302223254403E-02 Eh
  ========================================================================

Writing NGWFs to file "Cr2I6_bilayer_LT_FM_AFM_nSP.tightbox_ngwfs".... done

>>> Optimising kernel for current NGWFs:
   iter  |      energy (Eh)       | rms gradient |  commutator  |   dE (Eh)
    1        -1.763069621747E+04     3.3190E-04     2.9967E-06
    2        -1.763069623665E+04     3.3190E-04     2.9115E-06    -1.9183E-05
    3        -1.763069625517E+04     3.3190E-04     2.8623E-06    -1.8525E-05
    4        -1.763069627328E+04     3.3190E-04     2.8340E-06    -1.8107E-05
    5        -1.763069629111E+04     3.3190E-04     2.8169E-06    -1.7826E-05
    6        -1.763069630874E+04     3.3190E-04     2.8050E-06    -1.7633E-05
    7        -1.763069632623E+04     3.3190E-04     2.7948E-06    -1.7493E-05
    8        -1.763069634391E+04     3.3190E-04     2.7740E-06    -1.7682E-05
    9        -1.763069636141E+04     3.3190E-04     2.7610E-06    -1.7493E-05
   10        -1.763069637876E+04     3.3190E-04     2.7523E-06    -1.7350E-05
   11        -1.763069639599E+04     3.3190E-04     2.7457E-06    -1.7228E-05
   12        -1.763069641311E+04     3.3190E-04     2.7399E-06    -1.7120E-05
   13        -1.763069643013E+04     3.3190E-04     2.7343E-06    -1.7024E-05
Finished density kernel iterations (  13)

Writing density kernel to file "Cr2I6_bilayer_LT_FM_AFM_nSP.dkn" ... done


>>> Density kernel optimised for the current NGWF basis:
     ~~~~~~~~~~~~~~~~~~~~~~~~~~~~~~~~~~~~~~~~~~~~~~~~~~~~~~~~~~~
     Total energy                =  -1.76306964301290E+04  Eh
     Estimated bandgap (UP spin) =  -8.3875E-03  Eh
     Estimated bandgap (DN spin) =   4.2820E-02  Eh
     RMS occupancy error         =   1.5727E-03
     [H,K] commutator            =   2.7343E-06
     UP spin occupancy bounds    = [  0.002:  1.002]
     DN spin occupancy bounds    = [  0.000:  1.000]
     ~~~~~~~~~~~~~~~~~~~~~~~~~~~~~~~~~~~~~~~~~~~~~~~~~~~~~~~~~~~




################################################################################
########################### NGWF CG iteration  010 #############################
################################################################################

>>> Checking for convergence of NGWFs:   NOT CONVERGED
  ========================================================================
         NGWF RMS gradient =  9.4305E-06 >  1.0000E-06  | above tolerance
  Maximum change in energy =  2.2679E-06 >  1.0000E-07  | above tolerance
  ========================================================================

>>> Improving NGWFs using line search:
  ========================================================================
   Predicted total energy    =      -1.76307064343204E+04 Eh
   Predicted gain in energy  =      -1.00041913283349E-02 Eh
  ========================================================================

Writing NGWFs to file "Cr2I6_bilayer_LT_FM_AFM_nSP.tightbox_ngwfs".... done

>>> Optimising kernel for current NGWFs:
   iter  |      energy (Eh)       | rms gradient |  commutator  |   dE (Eh)
    1        -1.763069748484E+04     3.3188E-04     2.9594E-06
    2        -1.763069750348E+04     3.3188E-04     2.8719E-06    -1.8642E-05
    3        -1.763069752146E+04     3.3188E-04     2.8231E-06    -1.7975E-05
    4        -1.763069753903E+04     3.3188E-04     2.7967E-06    -1.7566E-05
    5        -1.763069755633E+04     3.3188E-04     2.7819E-06    -1.7302E-05
    6        -1.763069757346E+04     3.3189E-04     2.7722E-06    -1.7129E-05
    7        -1.763069759047E+04     3.3189E-04     2.7640E-06    -1.7010E-05
    8        -1.763069760773E+04     3.3189E-04     2.7431E-06    -1.7263E-05
    9        -1.763069762481E+04     3.3189E-04     2.7308E-06    -1.7075E-05
   10        -1.763069764174E+04     3.3189E-04     2.7229E-06    -1.6938E-05
   11        -1.763069765857E+04     3.3188E-04     2.7172E-06    -1.6823E-05
   12        -1.763069767529E+04     3.3188E-04     2.7123E-06    -1.6723E-05
   13        -1.763069769193E+04     3.3188E-04     2.7075E-06    -1.6635E-05
   14        -1.763069770841E+04     3.3188E-04     2.6998E-06    -1.6483E-05
Finished density kernel iterations (  14)

Writing density kernel to file "Cr2I6_bilayer_LT_FM_AFM_nSP.dkn" ... done


>>> Density kernel optimised for the current NGWF basis:
     ~~~~~~~~~~~~~~~~~~~~~~~~~~~~~~~~~~~~~~~~~~~~~~~~~~~~~~~~~~~
     Total energy                =  -1.76306977084082E+04  Eh
     Estimated bandgap (UP spin) =  -8.3609E-03  Eh
     Estimated bandgap (DN spin) =   4.2784E-02  Eh
     RMS occupancy error         =   1.5727E-03
     [H,K] commutator            =   2.6998E-06
     UP spin occupancy bounds    = [  0.002:  1.002]
     DN spin occupancy bounds    = [  0.000:  1.000]
     ~~~~~~~~~~~~~~~~~~~~~~~~~~~~~~~~~~~~~~~~~~~~~~~~~~~~~~~~~~~




################################################################################
########################### NGWF CG iteration  011 #############################
################################################################################

>>> Checking for convergence of NGWFs:   NOT CONVERGED
  ========================================================================
         NGWF RMS gradient =  9.4235E-06 >  1.0000E-06  | above tolerance
  Maximum change in energy =  2.2450E-06 >  1.0000E-07  | above tolerance
  ========================================================================

>>> Improving NGWFs using line search:
  ========================================================================
   Predicted total energy    =      -1.76307075753940E+04 Eh
   Predicted gain in energy  =      -9.86698575070477E-03 Eh
  ========================================================================

Writing NGWFs to file "Cr2I6_bilayer_LT_FM_AFM_nSP.tightbox_ngwfs".... done

>>> Optimising kernel for current NGWFs:
   iter  |      energy (Eh)       | rms gradient |  commutator  |   dE (Eh)
    1        -1.763069869535E+04     3.3187E-04     2.9063E-06
    2        -1.763069871333E+04     3.3187E-04     2.8289E-06    -1.7972E-05
    3        -1.763069873073E+04     3.3187E-04     2.7849E-06    -1.7404E-05
    4        -1.763069874777E+04     3.3187E-04     2.7605E-06    -1.7044E-05
    5        -1.763069876458E+04     3.3187E-04     2.7464E-06    -1.6806E-05
    6        -1.763069878123E+04     3.3187E-04     2.7370E-06    -1.6648E-05
    7        -1.763069879777E+04     3.3187E-04     2.7293E-06    -1.6539E-05
    8        -1.763069881455E+04     3.3187E-04     2.7113E-06    -1.6781E-05
    9        -1.763069883117E+04     3.3187E-04     2.7004E-06    -1.6621E-05
   10        -1.763069884767E+04     3.3187E-04     2.6934E-06    -1.6501E-05
   11        -1.763069886407E+04     3.3187E-04     2.6882E-06    -1.6399E-05
   12        -1.763069888038E+04     3.3187E-04     2.6837E-06    -1.6308E-05
   13        -1.763069889660E+04     3.3187E-04     2.6793E-06    -1.6228E-05
   14        -1.763069891270E+04     3.3187E-04     2.6726E-06    -1.6091E-05
   15        -1.763069892873E+04     3.3187E-04     2.6675E-06    -1.6039E-05
Finished density kernel iterations (  15)

Writing density kernel to file "Cr2I6_bilayer_LT_FM_AFM_nSP.dkn" ... done


>>> Density kernel optimised for the current NGWF basis:
     ~~~~~~~~~~~~~~~~~~~~~~~~~~~~~~~~~~~~~~~~~~~~~~~~~~~~~~~~~~~
     Total energy                =  -1.76306989287343E+04  Eh
     Estimated bandgap (UP spin) =  -8.2814E-03  Eh
     Estimated bandgap (DN spin) =   4.2809E-02  Eh
     RMS occupancy error         =   1.5727E-03
     [H,K] commutator            =   2.6675E-06
     UP spin occupancy bounds    = [  0.002:  1.002]
     DN spin occupancy bounds    = [  0.000:  1.000]
     ~~~~~~~~~~~~~~~~~~~~~~~~~~~~~~~~~~~~~~~~~~~~~~~~~~~~~~~~~~~




################################################################################
########################### NGWF CG iteration  012 #############################
################################################################################

>>> Checking for convergence of NGWFs:   NOT CONVERGED
  ========================================================================
         NGWF RMS gradient =  9.4166E-06 >  1.0000E-06  | above tolerance
  Maximum change in energy =  2.2192E-06 >  1.0000E-07  | above tolerance
  ========================================================================

>>> Improving NGWFs using line search:
  ========================================================================
   Predicted total energy    =      -1.76307088442187E+04 Eh
   Predicted gain in energy  =      -9.91548438105383E-03 Eh
  ========================================================================

Writing NGWFs to file "Cr2I6_bilayer_LT_FM_AFM_nSP.tightbox_ngwfs".... done

>>> Optimising kernel for current NGWFs:
   iter  |      energy (Eh)       | rms gradient |  commutator  |   dE (Eh)
    1        -1.763069990049E+04     3.3185E-04     2.8565E-06
    2        -1.763069991785E+04     3.3185E-04     2.7911E-06    -1.7364E-05
    3        -1.763069993474E+04     3.3185E-04     2.7523E-06    -1.6889E-05
    4        -1.763069995132E+04     3.3186E-04     2.7294E-06    -1.6577E-05
    5        -1.763069996768E+04     3.3186E-04     2.7152E-06    -1.6361E-05
    6        -1.763069998389E+04     3.3186E-04     2.7053E-06    -1.6209E-05
    7        -1.763069999999E+04     3.3186E-04     2.6972E-06    -1.6099E-05
    8        -1.763070001626E+04     3.3186E-04     2.6822E-06    -1.6277E-05
    9        -1.763070003241E+04     3.3186E-04     2.6727E-06    -1.6150E-05
   10        -1.763070004846E+04     3.3186E-04     2.6661E-06    -1.6050E-05
   11        -1.763070006443E+04     3.3186E-04     2.6610E-06    -1.5962E-05
   12        -1.763070008031E+04     3.3186E-04     2.6565E-06    -1.5881E-05
   13        -1.763070009611E+04     3.3186E-04     2.6521E-06    -1.5807E-05
   14        -1.763070011181E+04     3.3186E-04     2.6462E-06    -1.5694E-05
   15        -1.763070012746E+04     3.3186E-04     2.6417E-06    -1.5648E-05
Finished density kernel iterations (  15)

Writing density kernel to file "Cr2I6_bilayer_LT_FM_AFM_nSP.dkn" ... done


>>> Density kernel optimised for the current NGWF basis:
     ~~~~~~~~~~~~~~~~~~~~~~~~~~~~~~~~~~~~~~~~~~~~~~~~~~~~~~~~~~~
     Total energy                =  -1.76307001274555E+04  Eh
     Estimated bandgap (UP spin) =  -8.2849E-03  Eh
     Estimated bandgap (DN spin) =   4.2757E-02  Eh
     RMS occupancy error         =   1.5727E-03
     [H,K] commutator            =   2.6417E-06
     UP spin occupancy bounds    = [  0.002:  1.002]
     DN spin occupancy bounds    = [  0.000:  1.000]
     ~~~~~~~~~~~~~~~~~~~~~~~~~~~~~~~~~~~~~~~~~~~~~~~~~~~~~~~~~~~




################################################################################
########################### NGWF CG iteration  013 #############################
################################################################################

>>> Checking for convergence of NGWFs:   NOT CONVERGED
  ========================================================================
         NGWF RMS gradient =  9.4097E-06 >  1.0000E-06  | above tolerance
  Maximum change in energy =  2.1186E-06 >  1.0000E-07  | above tolerance
  ========================================================================

>>> Improving NGWFs using line search:
  ========================================================================
   Predicted total energy    =      -1.76307100348442E+04 Eh
   Predicted gain in energy  =      -9.90738871405483E-03 Eh
  ========================================================================

Writing NGWFs to file "Cr2I6_bilayer_LT_FM_AFM_nSP.tightbox_ngwfs".... done

>>> Optimising kernel for current NGWFs:
   iter  |      energy (Eh)       | rms gradient |  commutator  |   dE (Eh)
    1        -1.763070107778E+04     3.3184E-04     2.8267E-06
    2        -1.763070109478E+04     3.3184E-04     2.7633E-06    -1.7001E-05
    3        -1.763070111131E+04     3.3184E-04     2.7255E-06    -1.6530E-05
    4        -1.763070112752E+04     3.3184E-04     2.7031E-06    -1.6218E-05
    5        -1.763070114352E+04     3.3184E-04     2.6891E-06    -1.5999E-05
    6        -1.763070115937E+04     3.3184E-04     2.6794E-06    -1.5844E-05
    7        -1.763070117510E+04     3.3184E-04     2.6715E-06    -1.5730E-05
    8        -1.763070119096E+04     3.3184E-04     2.6570E-06    -1.5865E-05
    9        -1.763070120671E+04     3.3184E-04     2.6477E-06    -1.5751E-05
   10        -1.763070122238E+04     3.3184E-04     2.6414E-06    -1.5662E-05
   11        -1.763070123796E+04     3.3184E-04     2.6364E-06    -1.5582E-05
   12        -1.763070125347E+04     3.3184E-04     2.6320E-06    -1.5508E-05
   13        -1.763070126891E+04     3.3184E-04     2.6278E-06    -1.5441E-05
   14        -1.763070128426E+04     3.3184E-04     2.6222E-06    -1.5356E-05
   15        -1.763070129957E+04     3.3184E-04     2.6178E-06    -1.5309E-05
Finished density kernel iterations (  15)

Writing density kernel to file "Cr2I6_bilayer_LT_FM_AFM_nSP.dkn" ... done


>>> Density kernel optimised for the current NGWF basis:
     ~~~~~~~~~~~~~~~~~~~~~~~~~~~~~~~~~~~~~~~~~~~~~~~~~~~~~~~~~~~
     Total energy                =  -1.76307012995706E+04  Eh
     Estimated bandgap (UP spin) =  -8.2406E-03  Eh
     Estimated bandgap (DN spin) =   4.2766E-02  Eh
     RMS occupancy error         =   1.5727E-03
     [H,K] commutator            =   2.6178E-06
     UP spin occupancy bounds    = [  0.002:  1.002]
     DN spin occupancy bounds    = [  0.000:  1.000]
     ~~~~~~~~~~~~~~~~~~~~~~~~~~~~~~~~~~~~~~~~~~~~~~~~~~~~~~~~~~~




################################################################################
########################### NGWF CG iteration  014 #############################
################################################################################

>>> Checking for convergence of NGWFs:   NOT CONVERGED
  ========================================================================
         NGWF RMS gradient =  9.4029E-06 >  1.0000E-06  | above tolerance
  Maximum change in energy =  2.0811E-06 >  1.0000E-07  | above tolerance
  ========================================================================

>>> Improving NGWFs using line search:
  ========================================================================
   Predicted total energy    =      -1.76307111843735E+04 Eh
   Predicted gain in energy  =      -9.88480289015570E-03 Eh
  ========================================================================

Writing NGWFs to file "Cr2I6_bilayer_LT_FM_AFM_nSP.tightbox_ngwfs".... done

>>> Optimising kernel for current NGWFs:
   iter  |      energy (Eh)       | rms gradient |  commutator  |   dE (Eh)
    1        -1.763070222720E+04     3.3183E-04     2.8057E-06
    2        -1.763070224394E+04     3.3183E-04     2.7383E-06    -1.6737E-05
    3        -1.763070226017E+04     3.3183E-04     2.6992E-06    -1.6234E-05
    4        -1.763070227608E+04     3.3183E-04     2.6769E-06    -1.5906E-05
    5        -1.763070229176E+04     3.3183E-04     2.6636E-06    -1.5680E-05

onetep_launcher: !!! ONETEP finished with an error

************************************************
*** onetep_launcher terminated               ***
************************************************
