==================================================================================
It's Thu 29 May 2025 03:41:22 PM BST.
*** Starting onetep_launcher (node nid001489, PIDs 242163 242164 242165 242166 242167 242168)...
    - ONETEP arguments: Cr2I6_bilayer_LT_FM_AFM_nSP.dat
    - Current directory: /mnt/lustre/a2fs-work3/work/e89/e89/phsmea/CrI3_onetep_U/U_2.97/LT_FM/LT_FM_AFM/nsp
    - Launcher executable directory: /mnt/lustre/a2fs-work3/work/e89/e89/phsmea/CrI3_onetep_U/U_2.97/LT_FM/LT_FM_AFM/nsp
    - (-e) ONETEP executable specified through command-line: /work/e89/e89/phsmea/onetep.archer2_2024_cray
      ... trying /work/e89/e89/phsmea/onetep.archer2_2024_cray
          -> looks OK
*** Setting up environment...
    - (-s) Process stack size: unlimited
    - (-t) OMP_NUM_THREADS: 16
    - (-o) OMP_STACKSIZE: 64M
    - (-c) Maximum core file size: 2048000
    - (-d) decfort_dump_flag: n
    - (-m) I_MPI_OFA_TRANSLATION_CACHE: 0
    - (-m) I_MPI_DAPL_TRANSLATION_CACHE: 0
    - (-m) I_MPI_DAPL_UD_TRANSLATION_CACHE: 0
*** Starting ONETEP...
    - /work/e89/e89/phsmea/onetep.archer2_2024_cray Cr2I6_bilayer_LT_FM_AFM_nSP.dat
=================================================================================
_________________________________________________________________________________
 +---------------------------------------------------------------+
 |                                                               |
 |        ####### #     # ####### ####### ####### ######         |
 |        #     # ##    # #          #    #       #     #        |
 |        #     # # #   # #          #    #       #     #        |
 |        #     # #  #  # #####      #    #####   ######         |
 |        #     # #   # # #          #    #       #              |
 |        #     # #    ## #          #    #       #              |
 |        ####### #     # #######    #    ####### #              |
 |                                                               |
 |        Linear-Scaling Ab Initio Total Energy Program          |
 |                                                               |
 |          Release for academic collaborators of ODG            |
 |                                             Version 7.3.0     |
 | Remote: git@github.com:Miesaz/onetep_mea.git                  |
 | Local branch: master                                          |
 | Commit ID: 4af45e89288c8df5499704252eec3e032ee3d0c8           |
 | Date: Tue Aug 6 11:28:44 2024 +0100                           |
 | Working tree clean                                            |
 |                                                               |
 +---------------------------------------------------------------+
 |                                                               |
 |  Authors:                                                     |
 |  Jacek Dziedzic, Peter D. Haynes, Nicholas D. M. Hine,        |
 |  Arash A. Mostofi, Mike C. Payne and Chris-Kriton Skylaris    |
 |                                                               |
 |  Contributors:                                                |
 |  J. Aarons, L. Andrinopoulos, P. W. Avraam, R. A. Bell,       |
 |  A. Bhandari, G. A. Bramley, R. J. Charlton, S. J. Clark,     |
 |  R. J. Clements, G. C. Constantinescu, F. Corsetti,           |
 |  N. Corsini, O. Dieguez, S. M. M. Dubois, K. K. B. Duff,      |
 |  J. M. Escartin, M. Escobar Azor, A. Greco,                   |
 |  H. Helal, Q. O. Hill, L. P. Lee, J.-H. Li,                   |
 |  T. Li, E. B. Linscott, G. Moynihan, D. D. O`Regan,           |
 |  O. K. Okan, E. Parkinson, M. J. S. Phipps,                   |
 |  C. J. Pickard, J. C. A. Prentice, M. I. J. Probert,          |
 |  L. E. Ratcliff, M. Robinson, A. Ruiz Serrano,                |
 |  M. dos Santos Dias, J. S. Spencer, E. W. Tait,               |
 |  G. Teobaldi, D. Turban, V. Vitale, K. A. Wilkinson,          |
 |  C. Weber, J. C. Womack, Chengcheng Xiao, N. Yeung,           |
 |  and T. J. Zuehlsdorff.                                       |
 |                                                               |
 |                                   Copyright (c) 2004-2024     |
 |                                                               |
 |  Please cite:                                                 |
 |  "The ONETEP linear-scaling density functional theory program"|
 |   J. Chem. Phys. 152(17) 174111 (2020)                        |
 |                                                               |
 |          in all publications arising from your use of ONETEP. |
 |                                                               |
 +---------------------------------------------------------------+
 |                                                               |
 |   ONETEP is based on developments described in the following  |
 |   publications:                                               |
 |                                                               |
 |  "Nonorthogonal generalized Wannier function pseudopotential  |
 |   plane-wave method".                                         |
 |   C.-K. Skylaris, A. A. Mostofi, P. D. Haynes, O. Dieguez,    |
 |   M. C. Payne.                                                |
 |   Phys. Rev. B 66 035119 (2002).                              |
 |                                                               |
 |  "Preconditioned iterative minimization for linear-scaling    |
 |   electronic structure calculations".                         |
 |   A. A. Mostofi, P. D. Haynes, C.-K. Skylaris, M. C. Payne.   |
 |   J. Chem. Phys. 119(17), pp.8842-8848 (2003).                |
 |                                                               |
 |  "Total-energy calculations on a real space grid with         |
 |   localized functions and a plane-wave basis".                |
 |   A. A. Mostofi, C.-K. Skylaris, P. D. Haynes, M. C. Payne.   |
 |   Comput. Phys. Commun. 147, pp.788-802 (2002).               |
 |                                                               |
 |  "Accurate kinetic energy evaluation in electronic structure  |
 |   calculations with localized functions on real space grids"  |
 |   C.-K. Skylaris, A. A. Mostofi, P. D. Haynes, C. J. Pickard, |
 |   M. C. Payne.                                                |
 |   Comput. Phys. Commun. 140, pp.315-322 (2001).               |
 |                                                               |
 |  "Accurate ionic forces and geometry optimization in linear-  |
 |   scaling density-functional theory with local orbitals"      |
 |   N. D. M. Hine, M. Robinson, P. D. Haynes, C.-K. Skylaris,   |
 |   M. C. Payne, and A. A. Mostofi.                             |
 |   Phys. Rev. B 83 195102 (2011).                              |
 |                                                               |
 +---------------------------------------------------------------+

Job started: 29-05-2025 15:41 (+0100)
 
Reading parameters from file "Cr2I6_bilayer_LT_FM_AFM_nSP.dat" ...... done

If your calculation crashes here, before "Checking processes and threads..."
is displayed, then your stack size is insufficient.
If so, use "ulimit -s unlimited" at runtime.
You can disable this check with "check_stack_size F".

Checking processes and threads...
      Default threads: 16
   Running with 150 MPI processes.
   There are 6 MPI processes running on the same node as the root process.
   Each MPI process is using: 
               1 threads for simulation cell FFTs.
               1 threads for threaded FFT box operations.
              16 threads for loops over batched FFT box operations.
              16 threads in other parallel regions.
   MPI Interface: S1 (use mpi_f08) (-DMPI -DUSE_MPI_F08).
   MPI_ASYNC_PROTECTS_NONBLOCKING: Yes. MPI_SUBARRAYS_SUPPORTED: Yes.
   FFTW Interface: OMP-capable and MODERN. (-DUSE_MODERN_FFTW specified).
   GPU Interface: None.
   GPU FFT Backend: None.
... done

Basic input checks...... done

Reading geometry and species blocks from file "Cr2I6_bilayer_LT_FM_AFM_nSP.dat" ...... done


--------------------------------------------------------------------------------
---------------------------------- INPUT FILE ----------------------------------
--------------------------------------------------------------------------------

charge : 0                                                                      
cutoff_energy : 1000 eV                                                         
delta_e_conv : F                                                                
do_properties : T                                                               
edft : F                                                                        
edft_init_maxit : 15                                                            
elec_energy_tol : 1e-07 Ha                                                      
fine_grid_scale : 4                                                             
forces_output_detail : VERBOSE                                                  
MAXIT_LNV     : 15                                                              
MINIT_LNV     : 5                                                               
maxit_ngwf_cg : 100                                                             
ngwf_threshold_orig : 1e-06                                                     
ngwfs_spin_polarized : F                                                        
output_detail : NORMAL                                                          
paw : T                                                                         
read_denskern : F                                                               
read_hamiltonian : F                                                            
read_tightbox_ngwfs : F                                                         
spin : 0                                                                        
spin_polarized : T                                                              
task : SinglePoint                                                              
write_denskern : T                                                              
write_forces : T                                                                
write_hamiltonian : T                                                           
write_tightbox_ngwfs : T                                                        
xc_functional : PBE                                                             
%BLOCK LATTICE_CART                                                             
ang                                                                             
41.261892132    0.000000000    0.000000000                                      
-20.630946066   35.733846792    0.000000000                                     
0.000000000    0.000000000   27.507928088                                       
%ENDBLOCK LATTICE_CART                                                          
%BLOCK POSITIONS_ABS                                                            
ang                                                                             
Cr       2.29230603       3.97040895      17.03520929                           
Cr      -1.14615438       5.95565340      17.04368562                           
I        3.29127824       1.97929933      15.50172901                           
I        0.06846335       4.10088269      15.50172980                           
I       -3.35976942       5.83112629      15.50174515                           
I        1.29815293       1.98813153      18.57647573                           
I        1.07268127       5.82255136      18.57647595                           
I       -2.37086124       4.10061929      18.57646027                           
Cr1      5.73080703       1.98523473      10.46423698                           
Cr1      2.29229229       3.97042256      10.47271549                           
I        6.72497778      -0.00289519       8.93147663                           
I        3.51196949       2.11831465       8.93145308                           
I        0.07849930       3.84024628       8.93144278                           
I        4.73186155       0.00594958      12.00619783                           
I        4.51617900       3.83998833      12.00619302                           
I        1.06740595       2.10972815      12.00620106                           
Cr      -1.14618498       9.92605008      17.03520929                           
Cr      -4.58464539      11.91129453      17.04368562                           
I       -0.14721277       7.93494046      15.50172901                           
I       -3.37002766      10.05652383      15.50172980                           
I       -6.79826043      11.78676742      15.50174515                           
I       -2.14033808       7.94377266      18.57647573                           
I       -2.36580974      11.77819249      18.57647595                           
I       -5.80935225      10.05626043      18.57646027                           
Cr1      2.29231601       7.94087586      10.46423698                           
Cr1     -1.14619872       9.92606369      10.47271549                           
I        3.28648677       5.95274594       8.93147663                           
I        0.07347848       8.07395578       8.93145308                           
I       -3.35999171       9.79588741       8.93144278                           
I        1.29337054       5.96159071      12.00619783                           
I        1.07768799       9.79562946      12.00619302                           
I       -2.37108506       8.06536928      12.00620106                           
Cr      -4.58467600      15.88169122      17.03520929                           
Cr      -8.02313640      17.86693567      17.04368562                           
I       -3.58570378      13.89058160      15.50172901                           
I       -6.80851867      16.01216496      15.50172980                           
I      -10.23675144      17.74240855      15.50174515                           
I       -5.57882909      13.89941380      18.57647573                           
I       -5.80430075      17.73383362      18.57647595                           
I       -9.24784326      16.01190156      18.57646027                           
Cr1     -1.14617500      13.89651700      10.46423698                           
Cr1     -4.58468973      15.88170482      10.47271549                           
I       -0.15200424      11.90838708       8.93147663                           
I       -3.36501253      14.02959691       8.93145308                           
I       -6.79848272      15.75152855       8.93144278                           
I       -2.14512047      11.91723184      12.00619783                           
I       -2.36080302      15.75127059      12.00619302                           
I       -5.80957607      14.02101041      12.00620106                           
Cr      -8.02316701      21.83733235      17.03520929                           
Cr     -11.46162741      23.82257680      17.04368562                           
I       -7.02419479      19.84622273      15.50172901                           
I      -10.24700968      21.96780609      15.50172980                           
I      -13.67524245      23.69804968      15.50174515                           
I       -9.01732010      19.85505493      18.57647573                           
I       -9.24279176      23.68947476      18.57647595                           
I      -12.68633427      21.96754269      18.57646027                           
Cr1     -4.58466601      19.85215813      10.46423698                           
Cr1     -8.02318074      21.83734595      10.47271549                           
I       -3.59049526      17.86402821       8.93147663                           
I       -6.80350354      19.98523804       8.93145308                           
I      -10.23697373      21.70716968       8.93144278                           
I       -5.58361148      17.87287297      12.00619783                           
I       -5.79929403      21.70691172      12.00619302                           
I       -9.24806708      19.97665154      12.00620106                           
Cr     -11.46165802      27.79297348      17.03520929                           
Cr     -14.90011843      29.77821793      17.04368562                           
I      -10.46268580      25.80186386      15.50172901                           
I      -13.68550069      27.92344722      15.50172980                           
I      -17.11373346      29.65369082      15.50174515                           
I      -12.45581112      25.81069606      18.57647573                           
I      -12.68128277      29.64511589      18.57647595                           
I      -16.12482528      27.92318382      18.57646027                           
Cr1     -8.02315702      25.80779926      10.46423698                           
Cr1    -11.46167176      27.79298708      10.47271549                           
I       -7.02898627      23.81966934       8.93147663                           
I      -10.24199455      25.94087917       8.93145308                           
I      -13.67546474      27.66281081       8.93144278                           
I       -9.02210249      23.82851411      12.00619783                           
I       -9.23778504      27.66255286      12.00619302                           
I      -12.68655809      25.93229268      12.00620106                           
Cr     -14.90014903      33.74861461      17.03520929                           
Cr     -18.33860944      35.73385906      17.04368562                           
I      -13.90117681      31.75750499      15.50172901                           
I      -17.12399170      33.87908835      15.50172980                           
I      -20.55222447      35.60933195      15.50174515                           
I      -15.89430213      31.76633719      18.57647573                           
I      -16.11977378      35.60075702      18.57647595                           
I      -19.56331629      33.87882495      18.57646027                           
Cr1    -11.46164803      31.76344039      10.46423698                           
Cr1    -14.90016277      33.74862822      10.47271549                           
I      -10.46747728      29.77531047       8.93147663                           
I      -13.68048556      31.89652031       8.93145308                           
I      -17.11395575      33.61845194       8.93144278                           
I      -12.46059350      29.78415524      12.00619783                           
I      -12.67627606      33.61819399      12.00619302                           
I      -16.12504910      31.88793381      12.00620106                           
Cr       9.16928805       3.97040895      17.03520929                           
Cr       5.73082764       5.95565340      17.04368562                           
I       10.16826026       1.97929933      15.50172901                           
I        6.94544538       4.10088269      15.50172980                           
I        3.51721261       5.83112629      15.50174515                           
I        8.17513495       1.98813153      18.57647573                           
I        7.94966330       5.82255136      18.57647595                           
I        4.50612079       4.10061929      18.57646027                           
Cr1     12.60778905       1.98523473      10.46423698                           
Cr1      9.16927431       3.97042256      10.47271549                           
I       13.60195980      -0.00289519       8.93147663                           
I       10.38895151       2.11831465       8.93145308                           
I        6.95548132       3.84024628       8.93144278                           
I       11.60884358       0.00594958      12.00619783                           
I       11.39316102       3.83998833      12.00619302                           
I        7.94438798       2.10972815      12.00620106                           
Cr       5.73079704       9.92605008      17.03520929                           
Cr       2.29233663      11.91129453      17.04368562                           
I        6.72976925       7.93494046      15.50172901                           
I        3.50695437      10.05652383      15.50172980                           
I        0.07872159      11.78676742      15.50174515                           
I        4.73664394       7.94377266      18.57647573                           
I        4.51117228      11.77819249      18.57647595                           
I        1.06762977      10.05626043      18.57646027                           
Cr1      9.16929804       7.94087586      10.46423698                           
Cr1      5.73078330       9.92606369      10.47271549                           
I       10.16346879       5.95274594       8.93147663                           
I        6.95046050       8.07395578       8.93145308                           
I        3.51699031       9.79588741       8.93144278                           
I        8.17035256       5.96159071      12.00619783                           
I        7.95467001       9.79562946      12.00619302                           
I        4.50589697       8.06536928      12.00620106                           
Cr       2.29230603      15.88169122      17.03520929                           
Cr      -1.14615438      17.86693567      17.04368562                           
I        3.29127824      13.89058160      15.50172901                           
I        0.06846335      16.01216496      15.50172980                           
I       -3.35976942      17.74240855      15.50174515                           
I        1.29815293      13.89941380      18.57647573                           
I        1.07268127      17.73383362      18.57647595                           
I       -2.37086124      16.01190156      18.57646027                           
Cr1      5.73080703      13.89651700      10.46423698                           
Cr1      2.29229229      15.88170482      10.47271549                           
I        6.72497778      11.90838708       8.93147663                           
I        3.51196949      14.02959691       8.93145308                           
I        0.07849930      15.75152855       8.93144278                           
I        4.73186155      11.91723184      12.00619783                           
I        4.51617900      15.75127059      12.00619302                           
I        1.06740595      14.02101041      12.00620106                           
Cr      -1.14618498      21.83733235      17.03520929                           
Cr      -4.58464539      23.82257680      17.04368562                           
I       -0.14721277      19.84622273      15.50172901                           
I       -3.37002766      21.96780609      15.50172980                           
I       -6.79826043      23.69804968      15.50174515                           
I       -2.14033808      19.85505493      18.57647573                           
I       -2.36580974      23.68947476      18.57647595                           
I       -5.80935225      21.96754269      18.57646027                           
Cr1      2.29231601      19.85215813      10.46423698                           
Cr1     -1.14619872      21.83734595      10.47271549                           
I        3.28648677      17.86402821       8.93147663                           
I        0.07347848      19.98523804       8.93145308                           
I       -3.35999171      21.70716968       8.93144278                           
I        1.29337054      17.87287297      12.00619783                           
I        1.07768799      21.70691172      12.00619302                           
I       -2.37108506      19.97665154      12.00620106                           
Cr      -4.58467600      27.79297348      17.03520929                           
Cr      -8.02313640      29.77821793      17.04368562                           
I       -3.58570378      25.80186386      15.50172901                           
I       -6.80851867      27.92344722      15.50172980                           
I      -10.23675144      29.65369082      15.50174515                           
I       -5.57882909      25.81069606      18.57647573                           
I       -5.80430075      29.64511589      18.57647595                           
I       -9.24784326      27.92318382      18.57646027                           
Cr1     -1.14617500      25.80779926      10.46423698                           
Cr1     -4.58468973      27.79298708      10.47271549                           
I       -0.15200424      23.81966934       8.93147663                           
I       -3.36501253      25.94087917       8.93145308                           
I       -6.79848272      27.66281081       8.93144278                           
I       -2.14512047      23.82851411      12.00619783                           
I       -2.36080302      27.66255286      12.00619302                           
I       -5.80957607      25.93229268      12.00620106                           
Cr      -8.02316701      33.74861461      17.03520929                           
Cr     -11.46162741      35.73385906      17.04368562                           
I       -7.02419479      31.75750499      15.50172901                           
I      -10.24700968      33.87908835      15.50172980                           
I      -13.67524245      35.60933195      15.50174515                           
I       -9.01732010      31.76633719      18.57647573                           
I       -9.24279176      35.60075702      18.57647595                           
I      -12.68633427      33.87882495      18.57646027                           
Cr1     -4.58466601      31.76344039      10.46423698                           
Cr1     -8.02318074      33.74862822      10.47271549                           
I       -3.59049526      29.77531047       8.93147663                           
I       -6.80350354      31.89652031       8.93145308                           
I      -10.23697373      33.61845194       8.93144278                           
I       -5.58361148      29.78415524      12.00619783                           
I       -5.79929403      33.61819399      12.00619302                           
I       -9.24806708      31.88793381      12.00620106                           
Cr      16.04627007       3.97040895      17.03520929                           
Cr      12.60780966       5.95565340      17.04368562                           
I       17.04524228       1.97929933      15.50172901                           
I       13.82242740       4.10088269      15.50172980                           
I       10.39419463       5.83112629      15.50174515                           
I       15.05211697       1.98813153      18.57647573                           
I       14.82664532       5.82255136      18.57647595                           
I       11.38310281       4.10061929      18.57646027                           
Cr1     19.48477107       1.98523473      10.46423698                           
Cr1     16.04625633       3.97042256      10.47271549                           
I       20.47894182      -0.00289519       8.93147663                           
I       17.26593353       2.11831465       8.93145308                           
I       13.83246335       3.84024628       8.93144278                           
I       18.48582560       0.00594958      12.00619783                           
I       18.27014304       3.83998833      12.00619302                           
I       14.82137000       2.10972815      12.00620106                           
Cr      12.60777906       9.92605008      17.03520929                           
Cr       9.16931865      11.91129453      17.04368562                           
I       13.60675127       7.93494046      15.50172901                           
I       10.38393639      10.05652383      15.50172980                           
I        6.95570362      11.78676742      15.50174515                           
I       11.61362596       7.94377266      18.57647573                           
I       11.38815431      11.77819249      18.57647595                           
I        7.94461180      10.05626043      18.57646027                           
Cr1     16.04628006       7.94087586      10.46423698                           
Cr1     12.60776532       9.92606369      10.47271549                           
I       17.04045081       5.95274594       8.93147663                           
I       13.82744252       8.07395578       8.93145308                           
I       10.39397233       9.79588741       8.93144278                           
I       15.04733459       5.96159071      12.00619783                           
I       14.83165203       9.79562946      12.00619302                           
I       11.38287899       8.06536928      12.00620106                           
Cr       9.16928805      15.88169122      17.03520929                           
Cr       5.73082764      17.86693567      17.04368562                           
I       10.16826026      13.89058160      15.50172901                           
I        6.94544538      16.01216496      15.50172980                           
I        3.51721261      17.74240855      15.50174515                           
I        8.17513495      13.89941380      18.57647573                           
I        7.94966330      17.73383362      18.57647595                           
I        4.50612079      16.01190156      18.57646027                           
Cr1     12.60778905      13.89651700      10.46423698                           
Cr1      9.16927431      15.88170482      10.47271549                           
I       13.60195980      11.90838708       8.93147663                           
I       10.38895151      14.02959691       8.93145308                           
I        6.95548132      15.75152855       8.93144278                           
I       11.60884358      11.91723184      12.00619783                           
I       11.39316102      15.75127059      12.00619302                           
I        7.94438798      14.02101041      12.00620106                           
Cr       5.73079704      21.83733235      17.03520929                           
Cr       2.29233663      23.82257680      17.04368562                           
I        6.72976925      19.84622273      15.50172901                           
I        3.50695437      21.96780609      15.50172980                           
I        0.07872159      23.69804968      15.50174515                           
I        4.73664394      19.85505493      18.57647573                           
I        4.51117228      23.68947476      18.57647595                           
I        1.06762977      21.96754269      18.57646027                           
Cr1      9.16929804      19.85215813      10.46423698                           
Cr1      5.73078330      21.83734595      10.47271549                           
I       10.16346879      17.86402821       8.93147663                           
I        6.95046050      19.98523804       8.93145308                           
I        3.51699031      21.70716968       8.93144278                           
I        8.17035256      17.87287297      12.00619783                           
I        7.95467001      21.70691172      12.00619302                           
I        4.50589697      19.97665154      12.00620106                           
Cr       2.29230603      27.79297348      17.03520929                           
Cr      -1.14615438      29.77821793      17.04368562                           
I        3.29127824      25.80186386      15.50172901                           
I        0.06846335      27.92344722      15.50172980                           
I       -3.35976942      29.65369082      15.50174515                           
I        1.29815293      25.81069606      18.57647573                           
I        1.07268127      29.64511589      18.57647595                           
I       -2.37086124      27.92318382      18.57646027                           
Cr1      5.73080703      25.80779926      10.46423698                           
Cr1      2.29229229      27.79298708      10.47271549                           
I        6.72497778      23.81966934       8.93147663                           
I        3.51196949      25.94087917       8.93145308                           
I        0.07849930      27.66281081       8.93144278                           
I        4.73186155      23.82851411      12.00619783                           
I        4.51617900      27.66255286      12.00619302                           
I        1.06740595      25.93229268      12.00620106                           
Cr      -1.14618498      33.74861461      17.03520929                           
Cr      -4.58464539      35.73385906      17.04368562                           
I       -0.14721277      31.75750499      15.50172901                           
I       -3.37002766      33.87908835      15.50172980                           
I       -6.79826043      35.60933195      15.50174515                           
I       -2.14033808      31.76633719      18.57647573                           
I       -2.36580974      35.60075702      18.57647595                           
I       -5.80935225      33.87882495      18.57646027                           
Cr1      2.29231601      31.76344039      10.46423698                           
Cr1     -1.14619872      33.74862822      10.47271549                           
I        3.28648677      29.77531047       8.93147663                           
I        0.07347848      31.89652031       8.93145308                           
I       -3.35999171      33.61845194       8.93144278                           
I        1.29337054      29.78415524      12.00619783                           
I        1.07768799      33.61819399      12.00619302                           
I       -2.37108506      31.88793381      12.00620106                           
Cr      22.92325209       3.97040895      17.03520929                           
Cr      19.48479168       5.95565340      17.04368562                           
I       23.92222431       1.97929933      15.50172901                           
I       20.69940942       4.10088269      15.50172980                           
I       17.27117665       5.83112629      15.50174515                           
I       21.92909899       1.98813153      18.57647573                           
I       21.70362734       5.82255136      18.57647595                           
I       18.26008483       4.10061929      18.57646027                           
Cr1     26.36175309       1.98523473      10.46423698                           
Cr1     22.92323835       3.97042256      10.47271549                           
I       27.35592384      -0.00289519       8.93147663                           
I       24.14291556       2.11831465       8.93145308                           
I       20.70944537       3.84024628       8.93144278                           
I       25.36280762       0.00594958      12.00619783                           
I       25.14712507       3.83998833      12.00619302                           
I       21.69835202       2.10972815      12.00620106                           
Cr      19.48476108       9.92605008      17.03520929                           
Cr      16.04630067      11.91129453      17.04368562                           
I       20.48373330       7.93494046      15.50172901                           
I       17.26091841      10.05652383      15.50172980                           
I       13.83268564      11.78676742      15.50174515                           
I       18.49060798       7.94377266      18.57647573                           
I       18.26513633      11.77819249      18.57647595                           
I       14.82159382      10.05626043      18.57646027                           
Cr1     22.92326208       7.94087586      10.46423698                           
Cr1     19.48474734       9.92606369      10.47271549                           
I       23.91743283       5.95274594       8.93147663                           
I       20.70442455       8.07395578       8.93145308                           
I       17.27095436       9.79588741       8.93144278                           
I       21.92431661       5.96159071      12.00619783                           
I       21.70863405       9.79562946      12.00619302                           
I       18.25986101       8.06536928      12.00620106                           
Cr      16.04627007      15.88169122      17.03520929                           
Cr      12.60780966      17.86693567      17.04368562                           
I       17.04524228      13.89058160      15.50172901                           
I       13.82242740      16.01216496      15.50172980                           
I       10.39419463      17.74240855      15.50174515                           
I       15.05211697      13.89941380      18.57647573                           
I       14.82664532      17.73383362      18.57647595                           
I       11.38310281      16.01190156      18.57646027                           
Cr1     19.48477107      13.89651700      10.46423698                           
Cr1     16.04625633      15.88170482      10.47271549                           
I       20.47894182      11.90838708       8.93147663                           
I       17.26593353      14.02959691       8.93145308                           
I       13.83246335      15.75152855       8.93144278                           
I       18.48582560      11.91723184      12.00619783                           
I       18.27014304      15.75127059      12.00619302                           
I       14.82137000      14.02101041      12.00620106                           
Cr      12.60777906      21.83733235      17.03520929                           
Cr       9.16931865      23.82257680      17.04368562                           
I       13.60675127      19.84622273      15.50172901                           
I       10.38393639      21.96780609      15.50172980                           
I        6.95570362      23.69804968      15.50174515                           
I       11.61362596      19.85505493      18.57647573                           
I       11.38815431      23.68947476      18.57647595                           
I        7.94461180      21.96754269      18.57646027                           
Cr1     16.04628006      19.85215813      10.46423698                           
Cr1     12.60776532      21.83734595      10.47271549                           
I       17.04045081      17.86402821       8.93147663                           
I       13.82744252      19.98523804       8.93145308                           
I       10.39397233      21.70716968       8.93144278                           
I       15.04733459      17.87287297      12.00619783                           
I       14.83165203      21.70691172      12.00619302                           
I       11.38287899      19.97665154      12.00620106                           
Cr       9.16928805      27.79297348      17.03520929                           
Cr       5.73082764      29.77821793      17.04368562                           
I       10.16826026      25.80186386      15.50172901                           
I        6.94544538      27.92344722      15.50172980                           
I        3.51721261      29.65369082      15.50174515                           
I        8.17513495      25.81069606      18.57647573                           
I        7.94966330      29.64511589      18.57647595                           
I        4.50612079      27.92318382      18.57646027                           
Cr1     12.60778905      25.80779926      10.46423698                           
Cr1      9.16927431      27.79298708      10.47271549                           
I       13.60195980      23.81966934       8.93147663                           
I       10.38895151      25.94087917       8.93145308                           
I        6.95548132      27.66281081       8.93144278                           
I       11.60884358      23.82851411      12.00619783                           
I       11.39316102      27.66255286      12.00619302                           
I        7.94438798      25.93229268      12.00620106                           
Cr       5.73079704      33.74861461      17.03520929                           
Cr       2.29233663      35.73385906      17.04368562                           
I        6.72976925      31.75750499      15.50172901                           
I        3.50695437      33.87908835      15.50172980                           
I        0.07872159      35.60933195      15.50174515                           
I        4.73664394      31.76633719      18.57647573                           
I        4.51117228      35.60075702      18.57647595                           
I        1.06762977      33.87882495      18.57646027                           
Cr1      9.16929804      31.76344039      10.46423698                           
Cr1      5.73078330      33.74862822      10.47271549                           
I       10.16346879      29.77531047       8.93147663                           
I        6.95046050      31.89652031       8.93145308                           
I        3.51699031      33.61845194       8.93144278                           
I        8.17035256      29.78415524      12.00619783                           
I        7.95467001      33.61819399      12.00619302                           
I        4.50589697      31.88793381      12.00620106                           
Cr      29.80023411       3.97040895      17.03520929                           
Cr      26.36177371       5.95565340      17.04368562                           
I       30.79920633       1.97929933      15.50172901                           
I       27.57639144       4.10088269      15.50172980                           
I       24.14815867       5.83112629      15.50174515                           
I       28.80608102       1.98813153      18.57647573                           
I       28.58060936       5.82255136      18.57647595                           
I       25.13706685       4.10061929      18.57646027                           
Cr1     33.23873511       1.98523473      10.46423698                           
Cr1     29.80022038       3.97042256      10.47271549                           
I       34.23290587      -0.00289519       8.93147663                           
I       31.01989758       2.11831465       8.93145308                           
I       27.58642739       3.84024628       8.93144278                           
I       32.23978964       0.00594958      12.00619783                           
I       32.02410709       3.83998833      12.00619302                           
I       28.57533404       2.10972815      12.00620106                           
Cr      26.36174310       9.92605008      17.03520929                           
Cr      22.92328270      11.91129453      17.04368562                           
I       27.36071532       7.93494046      15.50172901                           
I       24.13790043      10.05652383      15.50172980                           
I       20.70966766      11.78676742      15.50174515                           
I       25.36759001       7.94377266      18.57647573                           
I       25.14211835      11.77819249      18.57647595                           
I       21.69857584      10.05626043      18.57646027                           
Cr1     29.80024410       7.94087586      10.46423698                           
Cr1     26.36172937       9.92606369      10.47271549                           
I       30.79441485       5.95274594       8.93147663                           
I       27.58140657       8.07395578       8.93145308                           
I       24.14793638       9.79588741       8.93144278                           
I       28.80129863       5.96159071      12.00619783                           
I       28.58561608       9.79562946      12.00619302                           
I       25.13684303       8.06536928      12.00620106                           
Cr      22.92325209      15.88169122      17.03520929                           
Cr      19.48479168      17.86693567      17.04368562                           
I       23.92222431      13.89058160      15.50172901                           
I       20.69940942      16.01216496      15.50172980                           
I       17.27117665      17.74240855      15.50174515                           
I       21.92909899      13.89941380      18.57647573                           
I       21.70362734      17.73383362      18.57647595                           
I       18.26008483      16.01190156      18.57646027                           
Cr1     26.36175309      13.89651700      10.46423698                           
Cr1     22.92323835      15.88170482      10.47271549                           
I       27.35592384      11.90838708       8.93147663                           
I       24.14291556      14.02959691       8.93145308                           
I       20.70944537      15.75152855       8.93144278                           
I       25.36280762      11.91723184      12.00619783                           
I       25.14712507      15.75127059      12.00619302                           
I       21.69835202      14.02101041      12.00620106                           
Cr      19.48476108      21.83733235      17.03520929                           
Cr      16.04630067      23.82257680      17.04368562                           
I       20.48373330      19.84622273      15.50172901                           
I       17.26091841      21.96780609      15.50172980                           
I       13.83268564      23.69804968      15.50174515                           
I       18.49060798      19.85505493      18.57647573                           
I       18.26513633      23.68947476      18.57647595                           
I       14.82159382      21.96754269      18.57646027                           
Cr1     22.92326208      19.85215813      10.46423698                           
Cr1     19.48474734      21.83734595      10.47271549                           
I       23.91743283      17.86402821       8.93147663                           
I       20.70442455      19.98523804       8.93145308                           
I       17.27095436      21.70716968       8.93144278                           
I       21.92431661      17.87287297      12.00619783                           
I       21.70863405      21.70691172      12.00619302                           
I       18.25986101      19.97665154      12.00620106                           
Cr      16.04627007      27.79297348      17.03520929                           
Cr      12.60780966      29.77821793      17.04368562                           
I       17.04524228      25.80186386      15.50172901                           
I       13.82242740      27.92344722      15.50172980                           
I       10.39419463      29.65369082      15.50174515                           
I       15.05211697      25.81069606      18.57647573                           
I       14.82664532      29.64511589      18.57647595                           
I       11.38310281      27.92318382      18.57646027                           
Cr1     19.48477107      25.80779926      10.46423698                           
Cr1     16.04625633      27.79298708      10.47271549                           
I       20.47894182      23.81966934       8.93147663                           
I       17.26593353      25.94087917       8.93145308                           
I       13.83246335      27.66281081       8.93144278                           
I       18.48582560      23.82851411      12.00619783                           
I       18.27014304      27.66255286      12.00619302                           
I       14.82137000      25.93229268      12.00620106                           
Cr      12.60777906      33.74861461      17.03520929                           
Cr       9.16931865      35.73385906      17.04368562                           
I       13.60675127      31.75750499      15.50172901                           
I       10.38393639      33.87908835      15.50172980                           
I        6.95570362      35.60933195      15.50174515                           
I       11.61362596      31.76633719      18.57647573                           
I       11.38815431      35.60075702      18.57647595                           
I        7.94461180      33.87882495      18.57646027                           
Cr1     16.04628006      31.76344039      10.46423698                           
Cr1     12.60776532      33.74862822      10.47271549                           
I       17.04045081      29.77531047       8.93147663                           
I       13.82744252      31.89652031       8.93145308                           
I       10.39397233      33.61845194       8.93144278                           
I       15.04733459      29.78415524      12.00619783                           
I       14.83165203      33.61819399      12.00619302                           
I       11.38287899      31.88793381      12.00620106                           
Cr      36.67721614       3.97040895      17.03520929                           
Cr      33.23875573       5.95565340      17.04368562                           
I       37.67618835       1.97929933      15.50172901                           
I       34.45337346       4.10088269      15.50172980                           
I       31.02514069       5.83112629      15.50174515                           
I       35.68306304       1.98813153      18.57647573                           
I       35.45759138       5.82255136      18.57647595                           
I       32.01404887       4.10061929      18.57646027                           
Cr1     40.11571714       1.98523473      10.46423698                           
Cr1     36.67720240       3.97042256      10.47271549                           
I       41.10988789      -0.00289519       8.93147663                           
I       37.89687960       2.11831465       8.93145308                           
I       34.46340941       3.84024628       8.93144278                           
I       39.11677166       0.00594958      12.00619783                           
I       38.90108911       3.83998833      12.00619302                           
I       35.45231606       2.10972815      12.00620106                           
Cr      33.23872513       9.92605008      17.03520929                           
Cr      29.80026472      11.91129453      17.04368562                           
I       34.23769734       7.93494046      15.50172901                           
I       31.01488245      10.05652383      15.50172980                           
I       27.58664968      11.78676742      15.50174515                           
I       32.24457203       7.94377266      18.57647573                           
I       32.01910037      11.77819249      18.57647595                           
I       28.57555786      10.05626043      18.57646027                           
Cr1     36.67722612       7.94087586      10.46423698                           
Cr1     33.23871139       9.92606369      10.47271549                           
I       37.67139688       5.95274594       8.93147663                           
I       34.45838859       8.07395578       8.93145308                           
I       31.02491840       9.79588741       8.93144278                           
I       35.67828065       5.96159071      12.00619783                           
I       35.46259810       9.79562946      12.00619302                           
I       32.01382505       8.06536928      12.00620106                           
Cr      29.80023411      15.88169122      17.03520929                           
Cr      26.36177371      17.86693567      17.04368562                           
I       30.79920633      13.89058160      15.50172901                           
I       27.57639144      16.01216496      15.50172980                           
I       24.14815867      17.74240855      15.50174515                           
I       28.80608102      13.89941380      18.57647573                           
I       28.58060936      17.73383362      18.57647595                           
I       25.13706685      16.01190156      18.57646027                           
Cr1     33.23873511      13.89651700      10.46423698                           
Cr1     29.80022038      15.88170482      10.47271549                           
I       34.23290587      11.90838708       8.93147663                           
I       31.01989758      14.02959691       8.93145308                           
I       27.58642739      15.75152855       8.93144278                           
I       32.23978964      11.91723184      12.00619783                           
I       32.02410709      15.75127059      12.00619302                           
I       28.57533404      14.02101041      12.00620106                           
Cr      26.36174310      21.83733235      17.03520929                           
Cr      22.92328270      23.82257680      17.04368562                           
I       27.36071532      19.84622273      15.50172901                           
I       24.13790043      21.96780609      15.50172980                           
I       20.70966766      23.69804968      15.50174515                           
I       25.36759001      19.85505493      18.57647573                           
I       25.14211835      23.68947476      18.57647595                           
I       21.69857584      21.96754269      18.57646027                           
Cr1     29.80024410      19.85215813      10.46423698                           
Cr1     26.36172937      21.83734595      10.47271549                           
I       30.79441485      17.86402821       8.93147663                           
I       27.58140657      19.98523804       8.93145308                           
I       24.14793638      21.70716968       8.93144278                           
I       28.80129863      17.87287297      12.00619783                           
I       28.58561608      21.70691172      12.00619302                           
I       25.13684303      19.97665154      12.00620106                           
Cr      22.92325209      27.79297348      17.03520929                           
Cr      19.48479168      29.77821793      17.04368562                           
I       23.92222431      25.80186386      15.50172901                           
I       20.69940942      27.92344722      15.50172980                           
I       17.27117665      29.65369082      15.50174515                           
I       21.92909899      25.81069606      18.57647573                           
I       21.70362734      29.64511589      18.57647595                           
I       18.26008483      27.92318382      18.57646027                           
Cr1     26.36175309      25.80779926      10.46423698                           
Cr1     22.92323835      27.79298708      10.47271549                           
I       27.35592384      23.81966934       8.93147663                           
I       24.14291556      25.94087917       8.93145308                           
I       20.70944537      27.66281081       8.93144278                           
I       25.36280762      23.82851411      12.00619783                           
I       25.14712507      27.66255286      12.00619302                           
I       21.69835202      25.93229268      12.00620106                           
Cr      19.48476108      33.74861461      17.03520929                           
Cr      16.04630067      35.73385906      17.04368562                           
I       20.48373330      31.75750499      15.50172901                           
I       17.26091841      33.87908835      15.50172980                           
I       13.83268564      35.60933195      15.50174515                           
I       18.49060798      31.76633719      18.57647573                           
I       18.26513633      35.60075702      18.57647595                           
I       14.82159382      33.87882495      18.57646027                           
Cr1     22.92326208      31.76344039      10.46423698                           
Cr1     19.48474734      33.74862822      10.47271549                           
I       23.91743283      29.77531047       8.93147663                           
I       20.70442455      31.89652031       8.93145308                           
I       17.27095436      33.61845194       8.93144278                           
I       21.92431661      29.78415524      12.00619783                           
I       21.70863405      33.61819399      12.00619302                           
I       18.25986101      31.88793381      12.00620106                           
%ENDBLOCK POSITIONS_ABS                                                         
%BLOCK SPECIES                                                                  
Cr Cr 24 -1 15                                                                  
I   I  53 -1 15                                                                 
Cr1 Cr 24 -1 15                                                                 
%ENDBLOCK SPECIES                                                               
%BLOCK SPECIES_ATOMIC_SET                                                       
Cr "SOLVE INIT SPIN=3"                                                          
I   "SOLVE"                                                                     
Cr1 "SOLVE INIT SPIN=-3"                                                        
%ENDBLOCK SPECIES_ATOMIC_SET                                                    
%BLOCK HUBBARD                                                                  
Cr  2 2.97 0.00 -10.0 0.00 0.0                                                  
Cr1  2 2.97 0.00 -10.0 0.00 0.0                                                 
%ENDBLOCK HUBBARD                                                               
%BLOCK SPECIES_LDOS_GROUPS                                                      
Cr                                                                              
I                                                                               
Cr1                                                                             
%ENDBLOCK SPECIES_LDOS_GROUPS                                                   
%BLOCK SPECIES_POT                                                              
Cr  "../../../../Cr.PBE-paw.abinit"                                             
I   "../../../../I.PBE-paw.abinit"                                              
Cr1  "../../../../Cr.PBE-paw.abinit"                                            
%ENDBLOCK SPECIES_POT                                                           

--------------------------------------------------------------------------------
-------------------------------- END INPUT FILE --------------------------------
--------------------------------------------------------------------------------


 
 ESDF WARNING(1): "charge" (esdf_physical) has no units. Assume "e".
<<<<<<<<<<<<<<<<<<<<<<<<<<<<<<<<< Full system >>>>>>>>>>>>>>>>>>>>>>>>>>>>>>>>>>
<<<<<<<<<<<<<<<<<<<<<<<<<<< PAW Dataset information >>>>>>>>>>>>>>>>>>>>>>>>>>>
File: ../../../../Cr.PBE-paw.abinit; rc = 2.11 bohr; shape type =  2; rshape = 1.80 bohr;
  Atomic number: 24;  ionic charge: 14.000000
    Partial Wave 1: l = 0
    Partial Wave 2: l = 0
    Partial Wave 3: l = 1
    Partial Wave 4: l = 1
    Partial Wave 5: l = 2
    Partial Wave 6: l = 2
  Core charge supplied for Nonlinear Core Corrections
File: ../../../../I.PBE-paw.abinit; rc = 2.30 bohr; shape type =  2; rshape = 2.11 bohr;
  Atomic number: 53;  ionic charge:  7.000000
    Partial Wave 1: l = 0
    Partial Wave 2: l = 0
    Partial Wave 3: l = 1
    Partial Wave 4: l = 1
  Core charge supplied for Nonlinear Core Corrections
<<<<<<<<<<<<<<<<<<<<<<<<<<<<<<<<<<<<<<< >>>>>>>>>>>>>>>>>>>>>>>>>>>>>>>>>>>>>>>

-------------------------- Atom counting information ---------------------------
Symbol    Natoms    Nngwfs    Nprojs
  Cr       144      1872      2592
  I        432      1728      3456
.......   ......    ......    ......
Totals:    576      3600      6048
--------------------------------------------------------------------------------

=============================== PSINC grid sizes ===============================
                      Simulation cell:  175 x 175 x 117
                              FFT-box:  175 x 175 x 117
                                  PPD:    5 x   5 x   1
Grid space d1=  0.445563862424a0 (KE cutoff=  38.26345Eh =1041.20135eV)
Grid space d2=  0.445563862400a0 (KE cutoff=  38.26345Eh =1041.20135eV)
Grid space d3=  0.444294449711a0 (KE cutoff=  38.48241Eh =1047.15957eV)
================================================================================

********************* Fourier parallelisation information **********************
       Coarse grid (whole simulation cell) dimensions:    175   175   117
          Real-space ('12') slabs/proc (min max mean):      0     1     0
         Recip-space ('23') slabs/proc (min max mean):      0     1     0
********************************************************************************

********************* Fourier parallelisation information **********************
       Double grid (whole simulation cell) dimensions:    350   350   234
          Real-space ('12') slabs/proc (min max mean):      1     2     1
         Recip-space ('23') slabs/proc (min max mean):      1     2     1
********************************************************************************

********************* Fourier parallelisation information **********************
         Fine grid (whole simulation cell) dimensions:    700   700   468
          Real-space ('12') slabs/proc (min max mean):      3     4     3
         Recip-space ('23') slabs/proc (min max mean):      2     3     2
********************************************************************************
energy_and_force_init_cell: WARNING in internal_setup_spin:
        even number of electrons in cell and zero spin
        but continuing with spin-polarised calculation

Atom SCF Calculation for Cr : Z (AE atom) =  24 : Z (PS atom) =  14
Config String: 3s2.0 3p6.0 3d5.0 4s1.0 4p0.0 INIT SPIN=3
Orbitals (num,occ):  5     2.00 6.00 5.00 1.00 0.00
Orbitals   (num,l):  5        0    1    2    0    1
Atom SCF converged after  64 iterations to a total energy of    -87.07044631
Adjusting orbital occupancies:
Orbitals (num,spin,occ):  5  1     1.00 3.00 3.50 1.00 0.00
Orbitals   (num,spin,l):  5  1        0    1    2    0    1
Orbitals (num,spin,occ):  5  2     1.00 3.00 1.00 0.50 0.00
Orbitals   (num,spin,l):  5  2        0    1    2    0    1

Atom SCF Calculation for I  : Z (AE atom) =  53 : Z (PS atom) =   7
Config String: 5s2.0 5p5.0
Orbitals (num,occ):  2     2.00 5.00
Orbitals   (num,l):  2        0    1
Atom SCF converged after  28 iterations to a total energy of    -11.61352964

Atom SCF Calculation for Cr : Z (AE atom) =  24 : Z (PS atom) =  14
Config String: 3s2.0 3p6.0 3d5.0 4s1.0 4p0.0 INIT SPIN=-3
Orbitals (num,occ):  5     2.00 6.00 5.00 1.00 0.00
Orbitals   (num,l):  5        0    1    2    0    1
Atom SCF converged after  64 iterations to a total energy of    -87.07044631
Adjusting orbital occupancies:
Orbitals (num,spin,occ):  5  1     1.00 3.00 1.00 0.50 0.00
Orbitals   (num,spin,l):  5  1        0    1    2    0    1
Orbitals (num,spin,occ):  5  2     1.00 3.00 3.50 1.00 0.00
Orbitals   (num,spin,l):  5  2        0    1    2    0    1

Atom SCF Calculation for Cr : Z (AE atom) =  24 : Z (PS atom) =  14
Config String: 3s2.0 3p6.0 3d5.0 4s1.0 4p0.0 INIT SPIN=3
Orbitals (num,occ):  5     2.00 6.00 5.00 1.00 0.00
Orbitals   (num,l):  5        0    1    2    0    1
Atom SCF converged after  64 iterations to a total energy of    -87.07044631

Atom SCF Calculation for I  : Z (AE atom) =  53 : Z (PS atom) =   7
Config String: 5s2.0 5p5.0
Orbitals (num,occ):  2     2.00 5.00
Orbitals   (num,l):  2        0    1
Atom SCF converged after  28 iterations to a total energy of    -11.61352964

Atom SCF Calculation for Cr : Z (AE atom) =  24 : Z (PS atom) =  14
Config String: 3s2.0 3p6.0 3d5.0 4s1.0 4p0.0 INIT SPIN=-3
Orbitals (num,occ):  5     2.00 6.00 5.00 1.00 0.00
Orbitals   (num,l):  5        0    1    2    0    1
Atom SCF converged after  64 iterations to a total energy of    -87.07044631

Determining parallel strategy ...... done
Calculating Ewald energy ...            31583.245177 Hartree
Basis initialisation ...
... done

============================= Charge Augmentation ==============================
                           Aug box size:   49 x  49 x  45
================================================================================
Sparse matrix initialisation ...
 done
NGWF initialisation ... done
 done

================================= Core Density =================================
               Core den box size:  125 x 125 x 105
================================================================================
Density kernel initialisation

--------------------------- Ensemble-DFT optimisation --------------------------
Running ScaLAPACK on  150 processor(s).
With smearing scheme: FERMIDIRAC                                                                      

--------------------------------------------------------------------------------
  Iter                              Commutator    Free_energy(A=E-TS)     DeltaA
#    0                          0.006176997640  -17457.19020521868520  -1.75E+04
#    1                          0.001669888962  -17597.84445595856960  -1.41E+02
#    2                          0.000295873948  -17613.07406401157640  -1.52E+01
#    3                          0.000155677650  -17613.60552701725100  -5.31E-01
#    4                          0.000183634245  -17613.94679952484880  -3.41E-01
#    5                          0.000081015921  -17614.15185712296810  -2.05E-01
#    6                          0.000096343735  -17614.27024442997940  -1.18E-01
#    7                          0.000045844089  -17614.33135805031630  -6.11E-02
#    8                          0.000056222120  -17614.36660863347420  -3.53E-02
#    9                          0.000029045938  -17614.38897538617680  -2.24E-02
#   10                          0.000034495613  -17614.40221910748370  -1.32E-02
#   11                          0.000020048577  -17614.41172315105360  -9.50E-03
#   12                          0.000022162262  -17614.41744527400810  -5.72E-03
#   13                          0.000015013092  -17614.42194776160610  -4.50E-03
#   14                          0.000014848184  -17614.42465462395920  -2.71E-03
#   15                          0.000012369797  -17614.42700024311130  -2.35E-03
Finished EDFT density kernel iterations (  15)


Writing density kernel to file "Cr2I6_bilayer_LT_FM_AFM_nSP.dkn" ... done

Writing Hamiltonian to file "Cr2I6_bilayer_LT_FM_AFM_nSP.ham" ... done

Writing density kernel to file "Cr2I6_bilayer_LT_FM_AFM_nSP.dkn" ... done

>>> Optimising kernel for current NGWFs:
   iter  |      energy (Eh)       | rms gradient |  commutator  |   dE (Eh)
    1        -1.761442640158E+04     2.3633E-05     1.1936E-05
    2        -1.761442738913E+04     2.5937E-05     1.3100E-05    -9.8755E-04
    3        -1.761442841296E+04     4.2948E-05     2.1692E-05    -1.0238E-03
    4        -1.761442965577E+04     5.0678E-05     2.5596E-05    -1.2428E-03
    5        -1.761443126750E+04     3.6227E-05     1.8297E-05    -1.6117E-03
Finished density kernel iterations (   5)

Writing density kernel to file "Cr2I6_bilayer_LT_FM_AFM_nSP.dkn" ... done


>>> Density kernel optimised for the current NGWF basis:
     ~~~~~~~~~~~~~~~~~~~~~~~~~~~~~~~~~~~~~~~~~~~~~~~~~~~~~~~~~~~
     Total energy                =  -1.76144312674967E+04  Eh
     Estimated bandgap (UP spin) =   4.0899E-02  Eh
     Estimated bandgap (DN spin) =   4.0935E-02  Eh
     RMS occupancy error         =   1.3741E-09
     [H,K] commutator            =   1.8297E-05
     UP spin occupancy bounds    = [ -0.000:  1.000]
     DN spin occupancy bounds    = [ -0.000:  1.000]
     ~~~~~~~~~~~~~~~~~~~~~~~~~~~~~~~~~~~~~~~~~~~~~~~~~~~~~~~~~~~




################################################################################
########################### NGWF CG iteration  001 #############################
################################################################################

>>> Checking for convergence of NGWFs:   NOT CONVERGED
  ========================================================================
         NGWF RMS gradient =  9.8639E-05 >  1.0000E-06  | above tolerance
  ========================================================================

>>> Improving NGWFs using line search:
  ========================================================================
   Predicted total energy    =      -1.76222719547989E+04 Eh
   Predicted gain in energy  =      -7.84068730219951E+00 Eh
  ========================================================================

Writing NGWFs to file "Cr2I6_bilayer_LT_FM_AFM_nSP.tightbox_ngwfs".... done

>>> Optimising kernel for current NGWFs:
   iter  |      energy (Eh)       | rms gradient |  commutator  |   dE (Eh)
    1        -1.762225452513E+04     4.8975E-04     2.4736E-04
    2        -1.762258511782E+04     1.8488E-04     9.3381E-05    -3.3059E-01
    3        -1.762261684221E+04     8.9649E-05     4.5280E-05    -3.1724E-02
    4        -1.762262785338E+04     6.4044E-05     3.2347E-05    -1.1011E-02
    5        -1.762263360365E+04     2.8984E-05     1.4639E-05    -5.7503E-03
Finished density kernel iterations (   5)

Writing density kernel to file "Cr2I6_bilayer_LT_FM_AFM_nSP.dkn" ... done


>>> Density kernel optimised for the current NGWF basis:
     ~~~~~~~~~~~~~~~~~~~~~~~~~~~~~~~~~~~~~~~~~~~~~~~~~~~~~~~~~~~
     Total energy                =  -1.76226336036495E+04  Eh
     Estimated bandgap (UP spin) =   4.7398E-02  Eh
     Estimated bandgap (DN spin) =   4.7364E-02  Eh
     RMS occupancy error         =   6.1594E-10
     [H,K] commutator            =   1.4639E-05
     UP spin occupancy bounds    = [ -0.000:  1.000]
     DN spin occupancy bounds    = [ -0.000:  1.000]
     ~~~~~~~~~~~~~~~~~~~~~~~~~~~~~~~~~~~~~~~~~~~~~~~~~~~~~~~~~~~




################################################################################
########################### NGWF CG iteration  002 #############################
################################################################################

>>> Checking for convergence of NGWFs:   NOT CONVERGED
  ========================================================================
         NGWF RMS gradient =  6.6557E-05 >  1.0000E-06  | above tolerance
  Maximum change in energy =  1.4240E-02 >  1.0000E-07  | above tolerance
  ========================================================================

>>> Improving NGWFs using line search:
  ========================================================================
   Predicted total energy    =      -1.76250937995174E+04 Eh
   Predicted gain in energy  =      -2.46019586789771E+00 Eh
  ========================================================================

Writing NGWFs to file "Cr2I6_bilayer_LT_FM_AFM_nSP.tightbox_ngwfs".... done

>>> Optimising kernel for current NGWFs:
   iter  |      energy (Eh)       | rms gradient |  commutator  |   dE (Eh)
    1        -1.762508358141E+04     1.7566E-04     8.8721E-05
    2        -1.762513138310E+04     4.2409E-05     2.1420E-05    -4.7802E-02
    3        -1.762513637403E+04     4.8269E-05     2.4379E-05    -4.9909E-03
    4        -1.762513896482E+04     2.4648E-05     1.2449E-05    -2.5908E-03
    5        -1.762514010819E+04     2.0160E-05     1.0182E-05    -1.1434E-03
Finished density kernel iterations (   5)

Writing density kernel to file "Cr2I6_bilayer_LT_FM_AFM_nSP.dkn" ... done


>>> Density kernel optimised for the current NGWF basis:
     ~~~~~~~~~~~~~~~~~~~~~~~~~~~~~~~~~~~~~~~~~~~~~~~~~~~~~~~~~~~
     Total energy                =  -1.76251401081894E+04  Eh
     Estimated bandgap (UP spin) =   4.6426E-02  Eh
     Estimated bandgap (DN spin) =   4.6529E-02  Eh
     RMS occupancy error         =   1.4330E-10
     [H,K] commutator            =   1.0182E-05
     UP spin occupancy bounds    = [  0.000:  1.000]
     DN spin occupancy bounds    = [  0.000:  1.000]
     ~~~~~~~~~~~~~~~~~~~~~~~~~~~~~~~~~~~~~~~~~~~~~~~~~~~~~~~~~~~




################################################################################
########################### NGWF CG iteration  003 #############################
################################################################################

>>> Checking for convergence of NGWFs:   NOT CONVERGED
  ========================================================================
         NGWF RMS gradient =  4.1213E-05 >  1.0000E-06  | above tolerance
  Maximum change in energy =  1.4240E-02 >  1.0000E-07  | above tolerance
  ========================================================================

>>> Improving NGWFs using line search:
  ========================================================================
   Predicted total energy    =      -1.76261981241450E+04 Eh
   Predicted gain in energy  =      -1.05801595560843E+00 Eh
  ========================================================================

Writing NGWFs to file "Cr2I6_bilayer_LT_FM_AFM_nSP.tightbox_ngwfs".... done

>>> Optimising kernel for current NGWFs:
   iter  |      energy (Eh)       | rms gradient |  commutator  |   dE (Eh)
    1        -1.762618747820E+04     1.7505E-04     8.8413E-05
    2        -1.762622118671E+04     8.3897E-05     4.2374E-05    -3.3709E-02
    3        -1.762622716364E+04     3.1396E-05     1.5857E-05    -5.9769E-03
    4        -1.762622864372E+04     2.2705E-05     1.1468E-05    -1.4801E-03
    5        -1.762622965245E+04     1.5334E-05     7.7448E-06    -1.0087E-03
Finished density kernel iterations (   5)

Writing density kernel to file "Cr2I6_bilayer_LT_FM_AFM_nSP.dkn" ... done


>>> Density kernel optimised for the current NGWF basis:
     ~~~~~~~~~~~~~~~~~~~~~~~~~~~~~~~~~~~~~~~~~~~~~~~~~~~~~~~~~~~
     Total energy                =  -1.76262296524464E+04  Eh
     Estimated bandgap (UP spin) =   4.6084E-02  Eh
     Estimated bandgap (DN spin) =   4.6161E-02  Eh
     RMS occupancy error         =   4.0902E-11
     [H,K] commutator            =   7.7448E-06
     UP spin occupancy bounds    = [  0.000:  1.000]
     DN spin occupancy bounds    = [  0.000:  1.000]
     ~~~~~~~~~~~~~~~~~~~~~~~~~~~~~~~~~~~~~~~~~~~~~~~~~~~~~~~~~~~




################################################################################
########################### NGWF CG iteration  004 #############################
################################################################################

>>> Checking for convergence of NGWFs:   NOT CONVERGED
  ========================================================================
         NGWF RMS gradient =  2.9755E-05 >  1.0000E-06  | above tolerance
  Maximum change in energy =  4.3516E-03 >  1.0000E-07  | above tolerance
  ========================================================================

>>> Improving NGWFs using line search:
  ========================================================================
   Predicted total energy    =      -1.76268064068892E+04 Eh
   Predicted gain in energy  =      -5.76754442801757E-01 Eh
  ========================================================================

Writing NGWFs to file "Cr2I6_bilayer_LT_FM_AFM_nSP.tightbox_ngwfs".... done

>>> Optimising kernel for current NGWFs:
   iter  |      energy (Eh)       | rms gradient |  commutator  |   dE (Eh)
    1        -1.762679619679E+04     5.8911E-05     2.9754E-05
    2        -1.762680209055E+04     3.4621E-05     1.7486E-05    -5.8938E-03
    3        -1.762680351221E+04     2.4770E-05     1.2511E-05    -1.4217E-03
    4        -1.762680460430E+04     1.9027E-05     9.6102E-06    -1.0921E-03
    5        -1.762680497994E+04     1.1450E-05     5.7833E-06    -3.7563E-04
Finished density kernel iterations (   5)

Writing density kernel to file "Cr2I6_bilayer_LT_FM_AFM_nSP.dkn" ... done


>>> Density kernel optimised for the current NGWF basis:
     ~~~~~~~~~~~~~~~~~~~~~~~~~~~~~~~~~~~~~~~~~~~~~~~~~~~~~~~~~~~
     Total energy                =  -1.76268049799370E+04  Eh
     Estimated bandgap (UP spin) =   4.4864E-02  Eh
     Estimated bandgap (DN spin) =   4.4838E-02  Eh
     RMS occupancy error         =   2.6468E-11
     [H,K] commutator            =   5.7833E-06
     UP spin occupancy bounds    = [  0.000:  1.000]
     DN spin occupancy bounds    = [  0.000:  1.000]
     ~~~~~~~~~~~~~~~~~~~~~~~~~~~~~~~~~~~~~~~~~~~~~~~~~~~~~~~~~~~




################################################################################
########################### NGWF CG iteration  005 #############################
################################################################################

>>> Checking for convergence of NGWFs:   NOT CONVERGED
  ========================================================================
         NGWF RMS gradient =  2.0643E-05 >  1.0000E-06  | above tolerance
  Maximum change in energy =  1.8916E-03 >  1.0000E-07  | above tolerance
  ========================================================================

>>> Improving NGWFs using line search:
  ========================================================================
   Predicted total energy    =      -1.76269701326437E+04 Eh
   Predicted gain in energy  =      -1.65152706744266E-01 Eh
  ========================================================================

Writing NGWFs to file "Cr2I6_bilayer_LT_FM_AFM_nSP.tightbox_ngwfs".... done

>>> Optimising kernel for current NGWFs:
   iter  |      energy (Eh)       | rms gradient |  commutator  |   dE (Eh)
    1        -1.762696959107E+04     1.0401E-05     5.2534E-06
    2        -1.762696974343E+04     1.1479E-05     5.7979E-06    -1.5237E-04
    3        -1.762696811901E+04     4.0422E-05     2.0416E-05     1.6244E-03
    4        -1.762696970332E+04     2.4308E-05     1.2277E-05    -1.5843E-03
    5        -1.762697062440E+04     1.2728E-05     6.4285E-06    -9.2109E-04
Finished density kernel iterations (   5)

Writing density kernel to file "Cr2I6_bilayer_LT_FM_AFM_nSP.dkn" ... done


>>> Density kernel optimised for the current NGWF basis:
     ~~~~~~~~~~~~~~~~~~~~~~~~~~~~~~~~~~~~~~~~~~~~~~~~~~~~~~~~~~~
     Total energy                =  -1.76269706244047E+04  Eh
     Estimated bandgap (UP spin) =   4.4513E-02  Eh
     Estimated bandgap (DN spin) =   4.4538E-02  Eh
     RMS occupancy error         =   4.5840E-11
     [H,K] commutator            =   6.4285E-06
     UP spin occupancy bounds    = [  0.000:  1.000]
     DN spin occupancy bounds    = [  0.000:  1.000]
[...]
*    I     436     -0.00245318  -0.00427143  -0.00690311 *
*    I     437     -0.00247449   0.00428035  -0.00689103 *
*    I     438     -0.00477385  -0.00000144   0.00927495 *
*    I     439      0.00238070   0.00411483   0.00927649 *
*    I     440      0.00238199  -0.00413672   0.00927401 *
*    Cr    441      0.00010061   0.00004675  -0.00019779 *
*    Cr    442      0.00001073   0.00002023   0.00010961 *
*    I     443      0.00477132  -0.00000598  -0.00927783 *
*    I     444     -0.00238286  -0.00411717  -0.00927802 *
*    I     445     -0.00238098   0.00413499  -0.00927464 *
*    I     446     -0.00493828  -0.00001625   0.00690967 *
*    I     447      0.00247836   0.00425508   0.00687596 *
*    I     448      0.00248793  -0.00428098   0.00688521 *
*    Cr    449     -0.00001028  -0.00000402  -0.00009819 *
*    Cr    450     -0.00001914   0.00009124   0.00019507 *
*    I     451      0.00494329   0.00001444  -0.00689596 *
*    I     452     -0.00246593  -0.00425416  -0.00689897 *
*    I     453     -0.00248932   0.00428161  -0.00688451 *
*    I     454     -0.00477236   0.00000029   0.00927266 *
*    I     455      0.00238145   0.00411701   0.00927946 *
*    I     456      0.00238184  -0.00413597   0.00927471 *
*    Cr    457      0.00010120   0.00005988  -0.00019380 *
*    Cr    458      0.00001591   0.00001026   0.00009985 *
*    I     459      0.00477123  -0.00000576  -0.00927531 *
*    I     460     -0.00238328  -0.00411804  -0.00927844 *
*    I     461     -0.00238209   0.00413385  -0.00927321 *
*    I     462     -0.00494325  -0.00000941   0.00689983 *
*    I     463      0.00245689   0.00426810   0.00689325 *
*    I     464      0.00247945  -0.00427883   0.00689990 *
*    Cr    465     -0.00000521  -0.00000945  -0.00010779 *
*    Cr    466     -0.00001909  -0.00001841   0.00020622 *
*    I     467      0.00494101   0.00001972  -0.00690302 *
*    I     468     -0.00246763  -0.00424930  -0.00689275 *
*    I     469     -0.00250321   0.00428116  -0.00687617 *
*    I     470     -0.00477471  -0.00000408   0.00927406 *
*    I     471      0.00237824   0.00411514   0.00927800 *
*    I     472      0.00237940  -0.00413907   0.00927549 *
*    Cr    473      0.00009994   0.00006043  -0.00019078 *
*    Cr    474      0.00009095  -0.00003221   0.00012310 *
*    I     475      0.00477272  -0.00000599  -0.00927344 *
*    I     476     -0.00238223  -0.00412030  -0.00928085 *
*    I     477     -0.00238088   0.00413344  -0.00927363 *
*    I     478     -0.00494177  -0.00000129   0.00689129 *
*    I     479      0.00243942   0.00428503   0.00689044 *
*    I     480      0.00246936  -0.00427583   0.00690677 *
*    Cr    481     -0.00000028  -0.00000605  -0.00010919 *
*    Cr    482     -0.00001755  -0.00001812   0.00019415 *
*    I     483      0.00494489   0.00003946  -0.00690320 *
*    I     484     -0.00246227  -0.00425710  -0.00689090 *
*    I     485     -0.00249386   0.00430014  -0.00685406 *
*    I     486     -0.00477154   0.00000008   0.00927401 *
*    I     487      0.00237856   0.00411436   0.00927842 *
*    I     488      0.00238137  -0.00413518   0.00927431 *
*    Cr    489      0.00000123   0.00000202  -0.00020541 *
*    Cr    490      0.00009769  -0.00003961   0.00013543 *
*    I     491      0.00477322  -0.00000175  -0.00927574 *
*    I     492     -0.00238272  -0.00411850  -0.00927964 *
*    I     493     -0.00238036   0.00413812  -0.00927655 *
*    I     494     -0.00494425   0.00000384   0.00687843 *
*    I     495      0.00244005   0.00426029   0.00690710 *
*    I     496      0.00247242  -0.00427206   0.00691250 *
*    Cr    497     -0.00000158  -0.00000749  -0.00011161 *
*    Cr    498     -0.00001743  -0.00000866   0.00018322 *
*    I     499      0.00495052   0.00002035  -0.00688180 *
*    I     500     -0.00244945  -0.00428780  -0.00686989 *
*    I     501     -0.00245126   0.00428206  -0.00689257 *
*    I     502     -0.00477160   0.00000039   0.00927419 *
*    I     503      0.00238009   0.00411501   0.00927862 *
*    I     504      0.00238231  -0.00413509   0.00927439 *
*    Cr    505      0.00000970   0.00001452  -0.00023992 *
*    Cr    506      0.00000803   0.00001292   0.00014408 *
*    I     507      0.00477362  -0.00000432  -0.00927571 *
*    I     508     -0.00238274  -0.00411942  -0.00927910 *
*    I     509     -0.00238284   0.00413380  -0.00927420 *
*    I     510     -0.00493074  -0.00002346   0.00690860 *
*    I     511      0.00244171   0.00424585   0.00692283 *
*    I     512      0.00246432  -0.00426285   0.00691646 *
*    Cr    513     -0.00000316  -0.00000929  -0.00011175 *
*    Cr    514     -0.00002634  -0.00000277   0.00020762 *
*    I     515      0.00495381   0.00002414  -0.00687610 *
*    I     516     -0.00243446  -0.00427918  -0.00690616 *
*    I     517     -0.00246152   0.00428117  -0.00688964 *
*    I     518     -0.00477089  -0.00000177   0.00927501 *
*    I     519      0.00238076   0.00411310   0.00927903 *
*    I     520      0.00238096  -0.00413680   0.00927448 *
*    Cr    521      0.00002004  -0.00000290  -0.00024886 *
*    Cr    522      0.00000437   0.00002741   0.00013862 *
*    I     523      0.00477027  -0.00000413  -0.00927460 *
*    I     524     -0.00238285  -0.00411778  -0.00927853 *
*    I     525     -0.00238199   0.00413579  -0.00927557 *
*    I     526     -0.00493064  -0.00002185   0.00691501 *
*    I     527      0.00243507   0.00426023   0.00691792 *
*    I     528      0.00249688  -0.00427094   0.00689285 *
*    Cr    529     -0.00000475  -0.00001008  -0.00011218 *
*    Cr    530     -0.00002315  -0.00001222   0.00020172 *
*    I     531      0.00496055   0.00002569  -0.00687210 *
*    I     532     -0.00244564  -0.00426939  -0.00690660 *
*    I     533     -0.00245732   0.00428637  -0.00688849 *
*    I     534     -0.00477177  -0.00000154   0.00927404 *
*    I     535      0.00238022   0.00411443   0.00927654 *
*    I     536      0.00238262  -0.00413588   0.00927304 *
*    Cr    537      0.00001230  -0.00001193  -0.00021067 *
*    Cr    538      0.00000562   0.00001166   0.00012487 *
*    I     539      0.00477002  -0.00000409  -0.00927528 *
*    I     540     -0.00238298  -0.00411765  -0.00927994 *
*    I     541     -0.00238118   0.00413388  -0.00927398 *
*    I     542     -0.00493162  -0.00001462   0.00691543 *
*    I     543      0.00243815   0.00426692   0.00690151 *
*    I     544      0.00249116  -0.00427369   0.00689950 *
*    Cr    545     -0.00008516   0.00003909  -0.00012273 *
*    Cr    546     -0.00001775   0.00009356   0.00019549 *
*    I     547      0.00495508   0.00003295  -0.00688484 *
*    I     548     -0.00245652  -0.00426131  -0.00691136 *
*    I     549     -0.00247139   0.00428702  -0.00688176 *
*    I     550     -0.00477619  -0.00000349   0.00927645 *
*    I     551      0.00238054   0.00411756   0.00928094 *
*    I     552      0.00237949  -0.00413758   0.00927370 *
*    Cr    553      0.00000901   0.00000245  -0.00019747 *
*    Cr    554      0.00000953   0.00001255   0.00010750 *
*    I     555      0.00476908  -0.00000377  -0.00927449 *
*    I     556     -0.00238375  -0.00411729  -0.00927889 *
*    I     557     -0.00238197   0.00413392  -0.00927500 *
*    I     558     -0.00492825  -0.00000498   0.00691796 *
*    I     559      0.00247900   0.00425414   0.00687533 *
*    I     560      0.00250182  -0.00428011   0.00688644 *
*    Cr    561     -0.00001104  -0.00001108  -0.00011045 *
*    Cr    562     -0.00001625  -0.00001558   0.00020036 *
*    I     563      0.00495117   0.00003496  -0.00689651 *
*    I     564     -0.00247159  -0.00424255  -0.00690976 *
*    I     565     -0.00247223   0.00430041  -0.00686666 *
*    I     566     -0.00477327  -0.00000189   0.00927401 *
*    I     567      0.00237843   0.00411508   0.00927840 *
*    I     568      0.00237790  -0.00414057   0.00927514 *
*    Cr    569      0.00000554   0.00000303  -0.00020592 *
*    Cr    570      0.00001017   0.00000896   0.00010904 *
*    I     571      0.00477018  -0.00000477  -0.00927485 *
*    I     572     -0.00238274  -0.00411734  -0.00927985 *
*    I     573     -0.00238044   0.00413794  -0.00927525 *
*    I     574     -0.00493222   0.00000537   0.00690297 *
*    I     575      0.00244832   0.00428132   0.00687537 *
*    I     576      0.00248477  -0.00427938   0.00689940 *
*                                                        *
**********************************************************
* TOTAL:           -0.00000000   0.00000000  -0.00000000 *
**********************************************************
 
 
***********************************************************
********** Summary of Forces (values in Eh/a) *************
*                                                         *
* ---------------------- Minimum ------------------------ *
* Atom:       337, |F|min =    0.00008039                 *
* Components:     Fx|min       Fy|min       Fz|min        *
*              -0.00000421  -0.00000424  -0.00008017      *
*                                                         *
* ---------------------- Maximum ------------------------ *
* Atom:       550, |F|max =    0.01043381                 *
* Components:     Fx|max       Fy|max       Fz|max        *
*              -0.00477619  -0.00000349   0.00927645      *
*                                                         *
* ---------------- Root Mean Square Force --------------- *
*                  |F|rms =    0.00823150                 *
* Components:     Fx|rms       Fy|rms       Fz|rms        *
*               0.00297304   0.00296988   0.00707803      *
***********************************************************
 

------------------------------ TIMING INFORMATION ------------------------------
AVERAGE TIME:   35336.731s on    150 proc(s)                                    
TOTAL TIME:     35336.731s on    150 proc(s)                                    
==================== AVERAGE TIMINGS FROM ALL PROCS (CUMULATIVE) =====================
|| TAG                                         #calls     cpu time   %total  Gflops ||
|| hubbard_species_proj                       :     1        0.00s   0.000%  ------ ||
|| sw_bessel_init_cpu                         :     1        0.01s   0.000%  ------ || (1 procs only)
|| onetep.F90 main loop imbalance             :     1        0.00s   0.000%  ------ ||
|| hubbard_projector_character                :     1        0.00s   0.000%  ------ ||
|| hubbard_ngwf_select                        :     1        0.00s   0.000%  ------ ||
|| density_fftbox_interp_mult_imbal           : 19400        0.00s   0.000%  ------ ||
|| hubbard_ngwf_on_grid                       :     1        0.00s   0.000%  ------ ||
|| hash_table_free                            :    48        0.00s   0.000%  ------ ||
|| linalg_invert_sym_matrix                   :     2        0.01s   0.000%  ------ || (144 procs only)
|| hubbard_tensorial_correction               :     2        0.01s   0.000%  ------ ||
|| ewald_calculate_forces_realspace           :     1        0.01s   0.000%  ------ ||
|| linalg_dgemv                               :    29        0.02s   0.000%  ------ ||
|| onetep.F90 final imbalance                 :     1        0.04s   0.000%  ------ ||
|| ewald_calculate_energy                     :     1        0.04s   0.000%  ------ ||
|| sparse_set_to_garbage                      :   712        0.04s   0.000%  ------ ||
|| ewald_calculate_forces_recipspace          :     1        0.06s   0.000%  ------ ||
|| sparse_spam3toblacs_real_fast_imbal        :   206        0.08s   0.000%  ------ ||
|| sw_init                                    :   775        0.09s   0.000%  ------ ||
|| ewald_calculate_forces                     :     1        0.10s   0.000%  ------ ||
|| paw_dij_hartree                            :   426        0.11s   0.000%  ------ ||
|| sparse_blacstospam3_real_fast_imbal        :   220        0.12s   0.000%  ------ ||
|| pseudo_make_structure_factor               :     1        0.16s   0.000%  ------ ||
|| augmentation_density_forces                :     1        0.23s   0.001%  ------ ||
|| basis_extract_function_from_box            :  2304        0.38s   0.001%  ------ ||
|| restart_hamiltonian_write                  :     2        0.48s   0.001%  ------ ||
|| sparse_spam3toblacs_real_fast_B2           : 30900        0.51s   0.001%  ------ ||
|| paw_tcore_hartree_on_grid                  :     1        0.51s   0.001%  ------ ||
|| hubbard_projection_mtx                     :    50        0.60s   0.002%  ------ ||
|| paw_tcore_hartree_calc_forces              :     1        0.61s   0.002%  ------ ||
|| paw_tcore_density                          :     1        1.21s   0.003%  ------ ||
|| ngwfs_initialise_from_radial               :     2        1.33s   0.004%  ------ ||
|| paw_nlcc_calculate_forces                  :     1        1.40s   0.004%  ------ ||
|| paw_dataset_init                           :     2        1.52s   0.004%  ------ ||
|| paw_sphere_density_on_grid                 :     1        1.53s   0.004%  ------ ||
|| nonsc_forces_ngwfs_calc                    :     1        1.90s   0.005%  ------ ||
|| sparse_init                                :     1        2.20s   0.006%  ------ ||
|| hubbard_ham_matrix                         :   178        5.04s   0.014%  ------ ||
|| hubbard_projector_ham                      :   177        5.37s   0.015%  ------ ||
|| paw_species_calc_proj_prec_mat             :     1        5.92s   0.017%  ------ ||
|| restart_kernel_write                       :    26        6.45s   0.018%  ------ ||
|| sparse_embed_array_hotelling_invert        :    48        6.68s   0.019%  ------ ||
|| hubbard_calculate_forces                   :     1        9.73s   0.028%  ------ ||
|| integrals_grad_spam3                       :     2       11.54s   0.033%  ------ ||
|| energy_and_force_init_cell                 :     1       14.75s   0.042%  ------ ||
|| sparse_spam3toblacs_real_fast_B1           : 30900       14.88s   0.042%  ------ ||
|| hubbard_projector_update                   :     1       15.32s   0.043%  ------ ||
|| sparse_spam3toblacs_real_fast              :   206       16.52s   0.047%  ------ ||
|| projectors_func_grad_ovlp_box_spam3        :     3       17.48s   0.049%  ------ ||
|| aug_nl_calculate_forces                    :     1       18.51s   0.052%  ------ ||
|| hubbard_energy_total                       :   400       18.99s   0.054%  ------ ||
|| fourier_filter_cell                        :   404       19.32s   0.055% 370.910 ||
|| ngwf_gradient_coeffs                       :    24       24.52s   0.069%  ------ ||
|| sparse_trace                               : 12353       31.58s   0.089%  ------ ||
|| hartree_on_grid_single                     :   387       31.70s   0.090%  ------ ||
|| fourier_apply_box_pair                     :  2918       31.84s   0.090%  5.362k ||
|| sparse_blacstospam3_real_fast              :   220       32.86s   0.093%  ------ ||
|| basis_copy_function_to_box                 : 29476       34.95s   0.099%  ------ ||
|| hamiltonian_energy_components              :     1       39.51s   0.112%  ------ ||
|| eigenstates_calculate                      :     1       44.51s   0.126%  ------ ||
|| fourier_interpolate_cell                   :   776       44.67s   0.126% 308.064 ||
|| dense_eigensolve                           :   100       55.93s   0.158%  ------ ||
|| density_init_guess_real                    :     2       57.92s   0.164%  ------ ||
|| kernel_purify                              :   517       60.59s   0.171%  ------ ||
|| kernel_fix                                 :   160       68.92s   0.195%  ------ ||
|| edft_diag_ngwf_ham                         :    98       70.72s   0.200%  ------ ||
|| lnv_gradient_norm                          :   160       72.66s   0.206%  ------ ||
|| augmentation_screen_dij_spam3              :   386       79.22s   0.224%  ------ ||
|| paw_dij_xc                                 :   426       87.78s   0.248%  ------ ||
|| aug_nonlocal_mat_spam3_embed_array         :   401       97.06s   0.275%  ------ ||
|| forces_calculate                           :     1      107.77s   0.305%  ------ ||
|| edft_apply_smearing_operator               :    49      116.00s   0.328%  ------ ||
|| projectors_init_fftbox_recip               :   391      135.44s   0.383%  ------ ||
|| fourier_apply_cell_backward                :  3484      143.18s   0.405% 388.174 ||
|| fourier_apply_cell_forward                 :  3484      152.63s   0.432% 364.134 ||
|| aug_density_on_grid_spam3                  :   388      186.37s   0.527%  ------ ||
|| cell_grid_deposit_box_real                 : 24698      188.12s   0.532%  ------ ||
|| fourier_filter                             :  5594      224.28s   0.635%  ------ ||
|| function_ops_brappd_ketppd_spam3           :    98      231.69s   0.656%  ------ ||
|| restart_ngwfs_tightbox_output              :    23      236.97s   0.671%  ------ ||
|| cell_grid_extract_box_real                 : 15142      260.39s   0.737%  ------ ||
|| xc_energy_potential                        :   387      302.64s   0.856%  ------ ||
|| projectors_func_ovlp_box_spam3             :    99      349.70s   0.990%  ------ ||
|| sparse_product                             : 22543      376.13s   1.064%  ------ ||
|| fourier_interpolate                        :  5594      426.16s   1.206%  ------ ||
|| properties_calculate                       :     1      515.39s   1.458%  ------ ||
|| integrals_kinetic_spam3                    :    48      524.10s   1.483%  ------ ||
|| density_fftbox_deposit_to_cell             : 19400     1228.11s   3.475%  ------ ||
|| basis_dot_function_with_box                : 16.75M    1229.63s   3.480%  ------ ||
|| projectors_gradient_batch                  :   192     1678.95s   4.751%  ------ ||
|| potential_apply_to_ngwf_batch              :   712     2357.85s   6.673%  ------ ||
|| edft_calculate                             :     1     2613.04s   7.395%  ------ ||
|| fourier_apply_box                          : 87363     3376.70s   9.556%  5.447k ||
|| basis_add_function_to_box                  : 41.07M    3474.95s   9.834%  ------ ||
|| integrals_locpot_mat_els_batch             :   712     3521.13s   9.965%  ------ ||
|| fourier_interpolate_product                : 18624     3685.36s  10.429%  ------ ||
|| density_fftbox_interpolate_multiply        : 19400     3834.38s  10.851%  ------ ||
|| projectors_grad_precond_batch              :    96     4900.29s  13.867%  ------ ||
|| integrals_locpot_dbl_grid                  :   356     5897.28s  16.689%  ------ ||
|| density_batch_interp_deposit               :  1552     6946.32s  19.658%  ------ ||
|| density_batch_row_sums                     :  1552     7214.70s  20.417%  ------ ||
|| ngwf_gradient_build_batch                  :    96     7569.56s  21.421%  ------ ||
|| ngwf_gradient_batch                        :    96    10934.75s  30.944%  ------ ||
|| ngwf_gradient_lnv                          :    24    11471.61s  32.464%  ------ ||
|| density_on_dbl_grid                        :   776    14310.64s  40.498%  ------ ||
|| hamiltonian_lhxc_calculate                 :   384    14954.93s  42.321%  ------ ||
|| lnv_denskernel_optimise_cg                 :    24    17732.26s  50.181%  ------ ||
|| ngwf_cg_optimise                           :     1    31926.64s  90.350%  ------ ||
|| energy_and_forces                          :     1    35320.70s  99.955%  ------ ||
|| total_time                                 :     1    35336.73s 100.000%  ------ ||
======================================================================================
Overhead of generating timer report: 
- 0 ms averaging over threads,
- 10 ms ensuring consistency across MPI ranks,
- 1 ms printing in order.

Job completed: 30-05-2025 01:30 (+0100)

onetep_launcher: ONETEP seems to have finished correctly (zero exit code).
                 Brought to you by PID 242163 on nid001489.
