==================================================================================
It's Thu 29 May 2025 03:20:04 PM BST.
*** Starting onetep_launcher (node nid002616, PIDs 146923 146924 146925 146926 146927 146928)...
    - ONETEP arguments: Cr2I6_bilayer_LT_FM_FM_nSP.dat
    - Current directory: /mnt/lustre/a2fs-work3/work/e89/e89/phsmea/CrI3_onetep_U/U_2.97/LT_FM/LT_FM_FM/nsp
    - Launcher executable directory: /mnt/lustre/a2fs-work3/work/e89/e89/phsmea/CrI3_onetep_U/U_2.97/LT_FM/LT_FM_FM/nsp
    - (-e) ONETEP executable specified through command-line: /work/e89/e89/phsmea/onetep.archer2_2024_cray
      ... trying /work/e89/e89/phsmea/onetep.archer2_2024_cray
          -> looks OK
*** Setting up environment...
    - (-s) Process stack size: unlimited
    - (-t) OMP_NUM_THREADS: 16
    - (-o) OMP_STACKSIZE: 64M
    - (-c) Maximum core file size: 2048000
    - (-d) decfort_dump_flag: n
    - (-m) I_MPI_OFA_TRANSLATION_CACHE: 0
    - (-m) I_MPI_DAPL_TRANSLATION_CACHE: 0
    - (-m) I_MPI_DAPL_UD_TRANSLATION_CACHE: 0
*** Starting ONETEP...
    - /work/e89/e89/phsmea/onetep.archer2_2024_cray Cr2I6_bilayer_LT_FM_FM_nSP.dat
=================================================================================
_________________________________________________________________________________
 +---------------------------------------------------------------+
 |                                                               |
 |        ####### #     # ####### ####### ####### ######         |
 |        #     # ##    # #          #    #       #     #        |
 |        #     # # #   # #          #    #       #     #        |
 |        #     # #  #  # #####      #    #####   ######         |
 |        #     # #   # # #          #    #       #              |
 |        #     # #    ## #          #    #       #              |
 |        ####### #     # #######    #    ####### #              |
 |                                                               |
 |        Linear-Scaling Ab Initio Total Energy Program          |
 |                                                               |
 |          Release for academic collaborators of ODG            |
 |                                             Version 7.3.0     |
 | Remote: git@github.com:Miesaz/onetep_mea.git                  |
 | Local branch: master                                          |
 | Commit ID: 4af45e89288c8df5499704252eec3e032ee3d0c8           |
 | Date: Tue Aug 6 11:28:44 2024 +0100                           |
 | Working tree clean                                            |
 |                                                               |
 +---------------------------------------------------------------+
 |                                                               |
 |  Authors:                                                     |
 |  Jacek Dziedzic, Peter D. Haynes, Nicholas D. M. Hine,        |
 |  Arash A. Mostofi, Mike C. Payne and Chris-Kriton Skylaris    |
 |                                                               |
 |  Contributors:                                                |
 |  J. Aarons, L. Andrinopoulos, P. W. Avraam, R. A. Bell,       |
 |  A. Bhandari, G. A. Bramley, R. J. Charlton, S. J. Clark,     |
 |  R. J. Clements, G. C. Constantinescu, F. Corsetti,           |
 |  N. Corsini, O. Dieguez, S. M. M. Dubois, K. K. B. Duff,      |
 |  J. M. Escartin, M. Escobar Azor, A. Greco,                   |
 |  H. Helal, Q. O. Hill, L. P. Lee, J.-H. Li,                   |
 |  T. Li, E. B. Linscott, G. Moynihan, D. D. O`Regan,           |
 |  O. K. Okan, E. Parkinson, M. J. S. Phipps,                   |
 |  C. J. Pickard, J. C. A. Prentice, M. I. J. Probert,          |
 |  L. E. Ratcliff, M. Robinson, A. Ruiz Serrano,                |
 |  M. dos Santos Dias, J. S. Spencer, E. W. Tait,               |
 |  G. Teobaldi, D. Turban, V. Vitale, K. A. Wilkinson,          |
 |  C. Weber, J. C. Womack, Chengcheng Xiao, N. Yeung,           |
 |  and T. J. Zuehlsdorff.                                       |
 |                                                               |
 |                                   Copyright (c) 2004-2024     |
 |                                                               |
 |  Please cite:                                                 |
 |  "The ONETEP linear-scaling density functional theory program"|
 |   J. Chem. Phys. 152(17) 174111 (2020)                        |
 |                                                               |
 |          in all publications arising from your use of ONETEP. |
 |                                                               |
 +---------------------------------------------------------------+
 |                                                               |
 |   ONETEP is based on developments described in the following  |
 |   publications:                                               |
 |                                                               |
 |  "Nonorthogonal generalized Wannier function pseudopotential  |
 |   plane-wave method".                                         |
 |   C.-K. Skylaris, A. A. Mostofi, P. D. Haynes, O. Dieguez,    |
 |   M. C. Payne.                                                |
 |   Phys. Rev. B 66 035119 (2002).                              |
 |                                                               |
 |  "Preconditioned iterative minimization for linear-scaling    |
 |   electronic structure calculations".                         |
 |   A. A. Mostofi, P. D. Haynes, C.-K. Skylaris, M. C. Payne.   |
 |   J. Chem. Phys. 119(17), pp.8842-8848 (2003).                |
 |                                                               |
 |  "Total-energy calculations on a real space grid with         |
 |   localized functions and a plane-wave basis".                |
 |   A. A. Mostofi, C.-K. Skylaris, P. D. Haynes, M. C. Payne.   |
 |   Comput. Phys. Commun. 147, pp.788-802 (2002).               |
 |                                                               |
 |  "Accurate kinetic energy evaluation in electronic structure  |
 |   calculations with localized functions on real space grids"  |
 |   C.-K. Skylaris, A. A. Mostofi, P. D. Haynes, C. J. Pickard, |
 |   M. C. Payne.                                                |
 |   Comput. Phys. Commun. 140, pp.315-322 (2001).               |
 |                                                               |
 |  "Accurate ionic forces and geometry optimization in linear-  |
 |   scaling density-functional theory with local orbitals"      |
 |   N. D. M. Hine, M. Robinson, P. D. Haynes, C.-K. Skylaris,   |
 |   M. C. Payne, and A. A. Mostofi.                             |
 |   Phys. Rev. B 83 195102 (2011).                              |
 |                                                               |
 +---------------------------------------------------------------+

Job started: 29-05-2025 15:20 (+0100)
 
Reading parameters from file "Cr2I6_bilayer_LT_FM_FM_nSP.dat" ...... done

If your calculation crashes here, before "Checking processes and threads..."
is displayed, then your stack size is insufficient.
If so, use "ulimit -s unlimited" at runtime.
You can disable this check with "check_stack_size F".

Checking processes and threads...
      Default threads: 16
   Running with 150 MPI processes.
   There are 6 MPI processes running on the same node as the root process.
   Each MPI process is using: 
               1 threads for simulation cell FFTs.
               1 threads for threaded FFT box operations.
              16 threads for loops over batched FFT box operations.
              16 threads in other parallel regions.
   MPI Interface: S1 (use mpi_f08) (-DMPI -DUSE_MPI_F08).
   MPI_ASYNC_PROTECTS_NONBLOCKING: Yes. MPI_SUBARRAYS_SUPPORTED: Yes.
   FFTW Interface: OMP-capable and MODERN. (-DUSE_MODERN_FFTW specified).
   GPU Interface: None.
   GPU FFT Backend: None.
... done

Basic input checks...... done

Reading geometry and species blocks from file "Cr2I6_bilayer_LT_FM_FM_nSP.dat" ...... done


--------------------------------------------------------------------------------
---------------------------------- INPUT FILE ----------------------------------
--------------------------------------------------------------------------------

charge : 0                                                                      
cutoff_energy : 1000 eV                                                         
delta_e_conv : F                                                                
do_properties : T                                                               
edft : F                                                                        
edft_init_maxit : 15                                                            
elec_energy_tol : 1e-07 Ha                                                      
fine_grid_scale : 4                                                             
forces_output_detail : VERBOSE                                                  
MAXIT_LNV     : 15                                                              
MINIT_LNV     : 5                                                               
maxit_ngwf_cg : 100                                                             
ngwf_threshold_orig : 1e-06                                                     
ngwfs_spin_polarized : F                                                        
output_detail : NORMAL                                                          
paw : T                                                                         
read_denskern : F                                                               
read_hamiltonian : F                                                            
read_tightbox_ngwfs : F                                                         
spin : 432                                                                      
spin_polarized : T                                                              
task : SinglePoint                                                              
write_denskern : T                                                              
write_forces : T                                                                
write_hamiltonian : T                                                           
write_tightbox_ngwfs : T                                                        
xc_functional : PBE                                                             
%BLOCK LATTICE_CART                                                             
ang                                                                             
41.261892132    0.000000000    0.000000000                                      
-20.630946066   35.733846792    0.000000000                                     
0.000000000    0.000000000   27.507928088                                       
%ENDBLOCK LATTICE_CART                                                          
%BLOCK POSITIONS_ABS                                                            
ang                                                                             
Cr       2.29230603       3.97040895      17.03520929                           
Cr      -1.14615438       5.95565340      17.04368562                           
I        3.29127824       1.97929933      15.50172901                           
I        0.06846335       4.10088269      15.50172980                           
I       -3.35976942       5.83112629      15.50174515                           
I        1.29815293       1.98813153      18.57647573                           
I        1.07268127       5.82255136      18.57647595                           
I       -2.37086124       4.10061929      18.57646027                           
Cr       5.73080703       1.98523473      10.46423698                           
Cr       2.29229229       3.97042256      10.47271549                           
I        6.72497778      -0.00289519       8.93147663                           
I        3.51196949       2.11831465       8.93145308                           
I        0.07849930       3.84024628       8.93144278                           
I        4.73186155       0.00594958      12.00619783                           
I        4.51617900       3.83998833      12.00619302                           
I        1.06740595       2.10972815      12.00620106                           
Cr      -1.14618498       9.92605008      17.03520929                           
Cr      -4.58464539      11.91129453      17.04368562                           
I       -0.14721277       7.93494046      15.50172901                           
I       -3.37002766      10.05652383      15.50172980                           
I       -6.79826043      11.78676742      15.50174515                           
I       -2.14033808       7.94377266      18.57647573                           
I       -2.36580974      11.77819249      18.57647595                           
I       -5.80935225      10.05626043      18.57646027                           
Cr       2.29231601       7.94087586      10.46423698                           
Cr      -1.14619872       9.92606369      10.47271549                           
I        3.28648677       5.95274594       8.93147663                           
I        0.07347848       8.07395578       8.93145308                           
I       -3.35999171       9.79588741       8.93144278                           
I        1.29337054       5.96159071      12.00619783                           
I        1.07768799       9.79562946      12.00619302                           
I       -2.37108506       8.06536928      12.00620106                           
Cr      -4.58467600      15.88169122      17.03520929                           
Cr      -8.02313640      17.86693567      17.04368562                           
I       -3.58570378      13.89058160      15.50172901                           
I       -6.80851867      16.01216496      15.50172980                           
I      -10.23675144      17.74240855      15.50174515                           
I       -5.57882909      13.89941380      18.57647573                           
I       -5.80430075      17.73383362      18.57647595                           
I       -9.24784326      16.01190156      18.57646027                           
Cr      -1.14617500      13.89651700      10.46423698                           
Cr      -4.58468973      15.88170482      10.47271549                           
I       -0.15200424      11.90838708       8.93147663                           
I       -3.36501253      14.02959691       8.93145308                           
I       -6.79848272      15.75152855       8.93144278                           
I       -2.14512047      11.91723184      12.00619783                           
I       -2.36080302      15.75127059      12.00619302                           
I       -5.80957607      14.02101041      12.00620106                           
Cr      -8.02316701      21.83733235      17.03520929                           
Cr     -11.46162741      23.82257680      17.04368562                           
I       -7.02419479      19.84622273      15.50172901                           
I      -10.24700968      21.96780609      15.50172980                           
I      -13.67524245      23.69804968      15.50174515                           
I       -9.01732010      19.85505493      18.57647573                           
I       -9.24279176      23.68947476      18.57647595                           
I      -12.68633427      21.96754269      18.57646027                           
Cr      -4.58466601      19.85215813      10.46423698                           
Cr      -8.02318074      21.83734595      10.47271549                           
I       -3.59049526      17.86402821       8.93147663                           
I       -6.80350354      19.98523804       8.93145308                           
I      -10.23697373      21.70716968       8.93144278                           
I       -5.58361148      17.87287297      12.00619783                           
I       -5.79929403      21.70691172      12.00619302                           
I       -9.24806708      19.97665154      12.00620106                           
Cr     -11.46165802      27.79297348      17.03520929                           
Cr     -14.90011843      29.77821793      17.04368562                           
I      -10.46268580      25.80186386      15.50172901                           
I      -13.68550069      27.92344722      15.50172980                           
I      -17.11373346      29.65369082      15.50174515                           
I      -12.45581112      25.81069606      18.57647573                           
I      -12.68128277      29.64511589      18.57647595                           
I      -16.12482528      27.92318382      18.57646027                           
Cr      -8.02315702      25.80779926      10.46423698                           
Cr     -11.46167176      27.79298708      10.47271549                           
I       -7.02898627      23.81966934       8.93147663                           
I      -10.24199455      25.94087917       8.93145308                           
I      -13.67546474      27.66281081       8.93144278                           
I       -9.02210249      23.82851411      12.00619783                           
I       -9.23778504      27.66255286      12.00619302                           
I      -12.68655809      25.93229268      12.00620106                           
Cr     -14.90014903      33.74861461      17.03520929                           
Cr     -18.33860944      35.73385906      17.04368562                           
I      -13.90117681      31.75750499      15.50172901                           
I      -17.12399170      33.87908835      15.50172980                           
I      -20.55222447      35.60933195      15.50174515                           
I      -15.89430213      31.76633719      18.57647573                           
I      -16.11977378      35.60075702      18.57647595                           
I      -19.56331629      33.87882495      18.57646027                           
Cr     -11.46164803      31.76344039      10.46423698                           
Cr     -14.90016277      33.74862822      10.47271549                           
I      -10.46747728      29.77531047       8.93147663                           
I      -13.68048556      31.89652031       8.93145308                           
I      -17.11395575      33.61845194       8.93144278                           
I      -12.46059350      29.78415524      12.00619783                           
I      -12.67627606      33.61819399      12.00619302                           
I      -16.12504910      31.88793381      12.00620106                           
Cr       9.16928805       3.97040895      17.03520929                           
Cr       5.73082764       5.95565340      17.04368562                           
I       10.16826026       1.97929933      15.50172901                           
I        6.94544538       4.10088269      15.50172980                           
I        3.51721261       5.83112629      15.50174515                           
I        8.17513495       1.98813153      18.57647573                           
I        7.94966330       5.82255136      18.57647595                           
I        4.50612079       4.10061929      18.57646027                           
Cr      12.60778905       1.98523473      10.46423698                           
Cr       9.16927431       3.97042256      10.47271549                           
I       13.60195980      -0.00289519       8.93147663                           
I       10.38895151       2.11831465       8.93145308                           
I        6.95548132       3.84024628       8.93144278                           
I       11.60884358       0.00594958      12.00619783                           
I       11.39316102       3.83998833      12.00619302                           
I        7.94438798       2.10972815      12.00620106                           
Cr       5.73079704       9.92605008      17.03520929                           
Cr       2.29233663      11.91129453      17.04368562                           
I        6.72976925       7.93494046      15.50172901                           
I        3.50695437      10.05652383      15.50172980                           
I        0.07872159      11.78676742      15.50174515                           
I        4.73664394       7.94377266      18.57647573                           
I        4.51117228      11.77819249      18.57647595                           
I        1.06762977      10.05626043      18.57646027                           
Cr       9.16929804       7.94087586      10.46423698                           
Cr       5.73078330       9.92606369      10.47271549                           
I       10.16346879       5.95274594       8.93147663                           
I        6.95046050       8.07395578       8.93145308                           
I        3.51699031       9.79588741       8.93144278                           
I        8.17035256       5.96159071      12.00619783                           
I        7.95467001       9.79562946      12.00619302                           
I        4.50589697       8.06536928      12.00620106                           
Cr       2.29230603      15.88169122      17.03520929                           
Cr      -1.14615438      17.86693567      17.04368562                           
I        3.29127824      13.89058160      15.50172901                           
I        0.06846335      16.01216496      15.50172980                           
I       -3.35976942      17.74240855      15.50174515                           
I        1.29815293      13.89941380      18.57647573                           
I        1.07268127      17.73383362      18.57647595                           
I       -2.37086124      16.01190156      18.57646027                           
Cr       5.73080703      13.89651700      10.46423698                           
Cr       2.29229229      15.88170482      10.47271549                           
I        6.72497778      11.90838708       8.93147663                           
I        3.51196949      14.02959691       8.93145308                           
I        0.07849930      15.75152855       8.93144278                           
I        4.73186155      11.91723184      12.00619783                           
I        4.51617900      15.75127059      12.00619302                           
I        1.06740595      14.02101041      12.00620106                           
Cr      -1.14618498      21.83733235      17.03520929                           
Cr      -4.58464539      23.82257680      17.04368562                           
I       -0.14721277      19.84622273      15.50172901                           
I       -3.37002766      21.96780609      15.50172980                           
I       -6.79826043      23.69804968      15.50174515                           
I       -2.14033808      19.85505493      18.57647573                           
I       -2.36580974      23.68947476      18.57647595                           
I       -5.80935225      21.96754269      18.57646027                           
Cr       2.29231601      19.85215813      10.46423698                           
Cr      -1.14619872      21.83734595      10.47271549                           
I        3.28648677      17.86402821       8.93147663                           
I        0.07347848      19.98523804       8.93145308                           
I       -3.35999171      21.70716968       8.93144278                           
I        1.29337054      17.87287297      12.00619783                           
I        1.07768799      21.70691172      12.00619302                           
I       -2.37108506      19.97665154      12.00620106                           
Cr      -4.58467600      27.79297348      17.03520929                           
Cr      -8.02313640      29.77821793      17.04368562                           
I       -3.58570378      25.80186386      15.50172901                           
I       -6.80851867      27.92344722      15.50172980                           
I      -10.23675144      29.65369082      15.50174515                           
I       -5.57882909      25.81069606      18.57647573                           
I       -5.80430075      29.64511589      18.57647595                           
I       -9.24784326      27.92318382      18.57646027                           
Cr      -1.14617500      25.80779926      10.46423698                           
Cr      -4.58468973      27.79298708      10.47271549                           
I       -0.15200424      23.81966934       8.93147663                           
I       -3.36501253      25.94087917       8.93145308                           
I       -6.79848272      27.66281081       8.93144278                           
I       -2.14512047      23.82851411      12.00619783                           
I       -2.36080302      27.66255286      12.00619302                           
I       -5.80957607      25.93229268      12.00620106                           
Cr      -8.02316701      33.74861461      17.03520929                           
Cr     -11.46162741      35.73385906      17.04368562                           
I       -7.02419479      31.75750499      15.50172901                           
I      -10.24700968      33.87908835      15.50172980                           
I      -13.67524245      35.60933195      15.50174515                           
I       -9.01732010      31.76633719      18.57647573                           
I       -9.24279176      35.60075702      18.57647595                           
I      -12.68633427      33.87882495      18.57646027                           
Cr      -4.58466601      31.76344039      10.46423698                           
Cr      -8.02318074      33.74862822      10.47271549                           
I       -3.59049526      29.77531047       8.93147663                           
I       -6.80350354      31.89652031       8.93145308                           
I      -10.23697373      33.61845194       8.93144278                           
I       -5.58361148      29.78415524      12.00619783                           
I       -5.79929403      33.61819399      12.00619302                           
I       -9.24806708      31.88793381      12.00620106                           
Cr      16.04627007       3.97040895      17.03520929                           
Cr      12.60780966       5.95565340      17.04368562                           
I       17.04524228       1.97929933      15.50172901                           
I       13.82242740       4.10088269      15.50172980                           
I       10.39419463       5.83112629      15.50174515                           
I       15.05211697       1.98813153      18.57647573                           
I       14.82664532       5.82255136      18.57647595                           
I       11.38310281       4.10061929      18.57646027                           
Cr      19.48477107       1.98523473      10.46423698                           
Cr      16.04625633       3.97042256      10.47271549                           
I       20.47894182      -0.00289519       8.93147663                           
I       17.26593353       2.11831465       8.93145308                           
I       13.83246335       3.84024628       8.93144278                           
I       18.48582560       0.00594958      12.00619783                           
I       18.27014304       3.83998833      12.00619302                           
I       14.82137000       2.10972815      12.00620106                           
Cr      12.60777906       9.92605008      17.03520929                           
Cr       9.16931865      11.91129453      17.04368562                           
I       13.60675127       7.93494046      15.50172901                           
I       10.38393639      10.05652383      15.50172980                           
I        6.95570362      11.78676742      15.50174515                           
I       11.61362596       7.94377266      18.57647573                           
I       11.38815431      11.77819249      18.57647595                           
I        7.94461180      10.05626043      18.57646027                           
Cr      16.04628006       7.94087586      10.46423698                           
Cr      12.60776532       9.92606369      10.47271549                           
I       17.04045081       5.95274594       8.93147663                           
I       13.82744252       8.07395578       8.93145308                           
I       10.39397233       9.79588741       8.93144278                           
I       15.04733459       5.96159071      12.00619783                           
I       14.83165203       9.79562946      12.00619302                           
I       11.38287899       8.06536928      12.00620106                           
Cr       9.16928805      15.88169122      17.03520929                           
Cr       5.73082764      17.86693567      17.04368562                           
I       10.16826026      13.89058160      15.50172901                           
I        6.94544538      16.01216496      15.50172980                           
I        3.51721261      17.74240855      15.50174515                           
I        8.17513495      13.89941380      18.57647573                           
I        7.94966330      17.73383362      18.57647595                           
I        4.50612079      16.01190156      18.57646027                           
Cr      12.60778905      13.89651700      10.46423698                           
Cr       9.16927431      15.88170482      10.47271549                           
I       13.60195980      11.90838708       8.93147663                           
I       10.38895151      14.02959691       8.93145308                           
I        6.95548132      15.75152855       8.93144278                           
I       11.60884358      11.91723184      12.00619783                           
I       11.39316102      15.75127059      12.00619302                           
I        7.94438798      14.02101041      12.00620106                           
Cr       5.73079704      21.83733235      17.03520929                           
Cr       2.29233663      23.82257680      17.04368562                           
I        6.72976925      19.84622273      15.50172901                           
I        3.50695437      21.96780609      15.50172980                           
I        0.07872159      23.69804968      15.50174515                           
I        4.73664394      19.85505493      18.57647573                           
I        4.51117228      23.68947476      18.57647595                           
I        1.06762977      21.96754269      18.57646027                           
Cr       9.16929804      19.85215813      10.46423698                           
Cr       5.73078330      21.83734595      10.47271549                           
I       10.16346879      17.86402821       8.93147663                           
I        6.95046050      19.98523804       8.93145308                           
I        3.51699031      21.70716968       8.93144278                           
I        8.17035256      17.87287297      12.00619783                           
I        7.95467001      21.70691172      12.00619302                           
I        4.50589697      19.97665154      12.00620106                           
Cr       2.29230603      27.79297348      17.03520929                           
Cr      -1.14615438      29.77821793      17.04368562                           
I        3.29127824      25.80186386      15.50172901                           
I        0.06846335      27.92344722      15.50172980                           
I       -3.35976942      29.65369082      15.50174515                           
I        1.29815293      25.81069606      18.57647573                           
I        1.07268127      29.64511589      18.57647595                           
I       -2.37086124      27.92318382      18.57646027                           
Cr       5.73080703      25.80779926      10.46423698                           
Cr       2.29229229      27.79298708      10.47271549                           
I        6.72497778      23.81966934       8.93147663                           
I        3.51196949      25.94087917       8.93145308                           
I        0.07849930      27.66281081       8.93144278                           
I        4.73186155      23.82851411      12.00619783                           
I        4.51617900      27.66255286      12.00619302                           
I        1.06740595      25.93229268      12.00620106                           
Cr      -1.14618498      33.74861461      17.03520929                           
Cr      -4.58464539      35.73385906      17.04368562                           
I       -0.14721277      31.75750499      15.50172901                           
I       -3.37002766      33.87908835      15.50172980                           
I       -6.79826043      35.60933195      15.50174515                           
I       -2.14033808      31.76633719      18.57647573                           
I       -2.36580974      35.60075702      18.57647595                           
I       -5.80935225      33.87882495      18.57646027                           
Cr       2.29231601      31.76344039      10.46423698                           
Cr      -1.14619872      33.74862822      10.47271549                           
I        3.28648677      29.77531047       8.93147663                           
I        0.07347848      31.89652031       8.93145308                           
I       -3.35999171      33.61845194       8.93144278                           
I        1.29337054      29.78415524      12.00619783                           
I        1.07768799      33.61819399      12.00619302                           
I       -2.37108506      31.88793381      12.00620106                           
Cr      22.92325209       3.97040895      17.03520929                           
Cr      19.48479168       5.95565340      17.04368562                           
I       23.92222431       1.97929933      15.50172901                           
I       20.69940942       4.10088269      15.50172980                           
I       17.27117665       5.83112629      15.50174515                           
I       21.92909899       1.98813153      18.57647573                           
I       21.70362734       5.82255136      18.57647595                           
I       18.26008483       4.10061929      18.57646027                           
Cr      26.36175309       1.98523473      10.46423698                           
Cr      22.92323835       3.97042256      10.47271549                           
I       27.35592384      -0.00289519       8.93147663                           
I       24.14291556       2.11831465       8.93145308                           
I       20.70944537       3.84024628       8.93144278                           
I       25.36280762       0.00594958      12.00619783                           
I       25.14712507       3.83998833      12.00619302                           
I       21.69835202       2.10972815      12.00620106                           
Cr      19.48476108       9.92605008      17.03520929                           
Cr      16.04630067      11.91129453      17.04368562                           
I       20.48373330       7.93494046      15.50172901                           
I       17.26091841      10.05652383      15.50172980                           
I       13.83268564      11.78676742      15.50174515                           
I       18.49060798       7.94377266      18.57647573                           
I       18.26513633      11.77819249      18.57647595                           
I       14.82159382      10.05626043      18.57646027                           
Cr      22.92326208       7.94087586      10.46423698                           
Cr      19.48474734       9.92606369      10.47271549                           
I       23.91743283       5.95274594       8.93147663                           
I       20.70442455       8.07395578       8.93145308                           
I       17.27095436       9.79588741       8.93144278                           
I       21.92431661       5.96159071      12.00619783                           
I       21.70863405       9.79562946      12.00619302                           
I       18.25986101       8.06536928      12.00620106                           
Cr      16.04627007      15.88169122      17.03520929                           
Cr      12.60780966      17.86693567      17.04368562                           
I       17.04524228      13.89058160      15.50172901                           
I       13.82242740      16.01216496      15.50172980                           
I       10.39419463      17.74240855      15.50174515                           
I       15.05211697      13.89941380      18.57647573                           
I       14.82664532      17.73383362      18.57647595                           
I       11.38310281      16.01190156      18.57646027                           
Cr      19.48477107      13.89651700      10.46423698                           
Cr      16.04625633      15.88170482      10.47271549                           
I       20.47894182      11.90838708       8.93147663                           
I       17.26593353      14.02959691       8.93145308                           
I       13.83246335      15.75152855       8.93144278                           
I       18.48582560      11.91723184      12.00619783                           
I       18.27014304      15.75127059      12.00619302                           
I       14.82137000      14.02101041      12.00620106                           
Cr      12.60777906      21.83733235      17.03520929                           
Cr       9.16931865      23.82257680      17.04368562                           
I       13.60675127      19.84622273      15.50172901                           
I       10.38393639      21.96780609      15.50172980                           
I        6.95570362      23.69804968      15.50174515                           
I       11.61362596      19.85505493      18.57647573                           
I       11.38815431      23.68947476      18.57647595                           
I        7.94461180      21.96754269      18.57646027                           
Cr      16.04628006      19.85215813      10.46423698                           
Cr      12.60776532      21.83734595      10.47271549                           
I       17.04045081      17.86402821       8.93147663                           
I       13.82744252      19.98523804       8.93145308                           
I       10.39397233      21.70716968       8.93144278                           
I       15.04733459      17.87287297      12.00619783                           
I       14.83165203      21.70691172      12.00619302                           
I       11.38287899      19.97665154      12.00620106                           
Cr       9.16928805      27.79297348      17.03520929                           
Cr       5.73082764      29.77821793      17.04368562                           
I       10.16826026      25.80186386      15.50172901                           
I        6.94544538      27.92344722      15.50172980                           
I        3.51721261      29.65369082      15.50174515                           
I        8.17513495      25.81069606      18.57647573                           
I        7.94966330      29.64511589      18.57647595                           
I        4.50612079      27.92318382      18.57646027                           
Cr      12.60778905      25.80779926      10.46423698                           
Cr       9.16927431      27.79298708      10.47271549                           
I       13.60195980      23.81966934       8.93147663                           
I       10.38895151      25.94087917       8.93145308                           
I        6.95548132      27.66281081       8.93144278                           
I       11.60884358      23.82851411      12.00619783                           
I       11.39316102      27.66255286      12.00619302                           
I        7.94438798      25.93229268      12.00620106                           
Cr       5.73079704      33.74861461      17.03520929                           
Cr       2.29233663      35.73385906      17.04368562                           
I        6.72976925      31.75750499      15.50172901                           
I        3.50695437      33.87908835      15.50172980                           
I        0.07872159      35.60933195      15.50174515                           
I        4.73664394      31.76633719      18.57647573                           
I        4.51117228      35.60075702      18.57647595                           
I        1.06762977      33.87882495      18.57646027                           
Cr       9.16929804      31.76344039      10.46423698                           
Cr       5.73078330      33.74862822      10.47271549                           
I       10.16346879      29.77531047       8.93147663                           
I        6.95046050      31.89652031       8.93145308                           
I        3.51699031      33.61845194       8.93144278                           
I        8.17035256      29.78415524      12.00619783                           
I        7.95467001      33.61819399      12.00619302                           
I        4.50589697      31.88793381      12.00620106                           
Cr      29.80023411       3.97040895      17.03520929                           
Cr      26.36177371       5.95565340      17.04368562                           
I       30.79920633       1.97929933      15.50172901                           
I       27.57639144       4.10088269      15.50172980                           
I       24.14815867       5.83112629      15.50174515                           
I       28.80608102       1.98813153      18.57647573                           
I       28.58060936       5.82255136      18.57647595                           
I       25.13706685       4.10061929      18.57646027                           
Cr      33.23873511       1.98523473      10.46423698                           
Cr      29.80022038       3.97042256      10.47271549                           
I       34.23290587      -0.00289519       8.93147663                           
I       31.01989758       2.11831465       8.93145308                           
I       27.58642739       3.84024628       8.93144278                           
I       32.23978964       0.00594958      12.00619783                           
I       32.02410709       3.83998833      12.00619302                           
I       28.57533404       2.10972815      12.00620106                           
Cr      26.36174310       9.92605008      17.03520929                           
Cr      22.92328270      11.91129453      17.04368562                           
I       27.36071532       7.93494046      15.50172901                           
I       24.13790043      10.05652383      15.50172980                           
I       20.70966766      11.78676742      15.50174515                           
I       25.36759001       7.94377266      18.57647573                           
I       25.14211835      11.77819249      18.57647595                           
I       21.69857584      10.05626043      18.57646027                           
Cr      29.80024410       7.94087586      10.46423698                           
Cr      26.36172937       9.92606369      10.47271549                           
I       30.79441485       5.95274594       8.93147663                           
I       27.58140657       8.07395578       8.93145308                           
I       24.14793638       9.79588741       8.93144278                           
I       28.80129863       5.96159071      12.00619783                           
I       28.58561608       9.79562946      12.00619302                           
I       25.13684303       8.06536928      12.00620106                           
Cr      22.92325209      15.88169122      17.03520929                           
Cr      19.48479168      17.86693567      17.04368562                           
I       23.92222431      13.89058160      15.50172901                           
I       20.69940942      16.01216496      15.50172980                           
I       17.27117665      17.74240855      15.50174515                           
I       21.92909899      13.89941380      18.57647573                           
I       21.70362734      17.73383362      18.57647595                           
I       18.26008483      16.01190156      18.57646027                           
Cr      26.36175309      13.89651700      10.46423698                           
Cr      22.92323835      15.88170482      10.47271549                           
I       27.35592384      11.90838708       8.93147663                           
I       24.14291556      14.02959691       8.93145308                           
I       20.70944537      15.75152855       8.93144278                           
I       25.36280762      11.91723184      12.00619783                           
I       25.14712507      15.75127059      12.00619302                           
I       21.69835202      14.02101041      12.00620106                           
Cr      19.48476108      21.83733235      17.03520929                           
Cr      16.04630067      23.82257680      17.04368562                           
I       20.48373330      19.84622273      15.50172901                           
I       17.26091841      21.96780609      15.50172980                           
I       13.83268564      23.69804968      15.50174515                           
I       18.49060798      19.85505493      18.57647573                           
I       18.26513633      23.68947476      18.57647595                           
I       14.82159382      21.96754269      18.57646027                           
Cr      22.92326208      19.85215813      10.46423698                           
Cr      19.48474734      21.83734595      10.47271549                           
I       23.91743283      17.86402821       8.93147663                           
I       20.70442455      19.98523804       8.93145308                           
I       17.27095436      21.70716968       8.93144278                           
I       21.92431661      17.87287297      12.00619783                           
I       21.70863405      21.70691172      12.00619302                           
I       18.25986101      19.97665154      12.00620106                           
Cr      16.04627007      27.79297348      17.03520929                           
Cr      12.60780966      29.77821793      17.04368562                           
I       17.04524228      25.80186386      15.50172901                           
I       13.82242740      27.92344722      15.50172980                           
I       10.39419463      29.65369082      15.50174515                           
I       15.05211697      25.81069606      18.57647573                           
I       14.82664532      29.64511589      18.57647595                           
I       11.38310281      27.92318382      18.57646027                           
Cr      19.48477107      25.80779926      10.46423698                           
Cr      16.04625633      27.79298708      10.47271549                           
I       20.47894182      23.81966934       8.93147663                           
I       17.26593353      25.94087917       8.93145308                           
I       13.83246335      27.66281081       8.93144278                           
I       18.48582560      23.82851411      12.00619783                           
I       18.27014304      27.66255286      12.00619302                           
I       14.82137000      25.93229268      12.00620106                           
Cr      12.60777906      33.74861461      17.03520929                           
Cr       9.16931865      35.73385906      17.04368562                           
I       13.60675127      31.75750499      15.50172901                           
I       10.38393639      33.87908835      15.50172980                           
I        6.95570362      35.60933195      15.50174515                           
I       11.61362596      31.76633719      18.57647573                           
I       11.38815431      35.60075702      18.57647595                           
I        7.94461180      33.87882495      18.57646027                           
Cr      16.04628006      31.76344039      10.46423698                           
Cr      12.60776532      33.74862822      10.47271549                           
I       17.04045081      29.77531047       8.93147663                           
I       13.82744252      31.89652031       8.93145308                           
I       10.39397233      33.61845194       8.93144278                           
I       15.04733459      29.78415524      12.00619783                           
I       14.83165203      33.61819399      12.00619302                           
I       11.38287899      31.88793381      12.00620106                           
Cr      36.67721614       3.97040895      17.03520929                           
Cr      33.23875573       5.95565340      17.04368562                           
I       37.67618835       1.97929933      15.50172901                           
I       34.45337346       4.10088269      15.50172980                           
I       31.02514069       5.83112629      15.50174515                           
I       35.68306304       1.98813153      18.57647573                           
I       35.45759138       5.82255136      18.57647595                           
I       32.01404887       4.10061929      18.57646027                           
Cr      40.11571714       1.98523473      10.46423698                           
Cr      36.67720240       3.97042256      10.47271549                           
I       41.10988789      -0.00289519       8.93147663                           
I       37.89687960       2.11831465       8.93145308                           
I       34.46340941       3.84024628       8.93144278                           
I       39.11677166       0.00594958      12.00619783                           
I       38.90108911       3.83998833      12.00619302                           
I       35.45231606       2.10972815      12.00620106                           
Cr      33.23872513       9.92605008      17.03520929                           
Cr      29.80026472      11.91129453      17.04368562                           
I       34.23769734       7.93494046      15.50172901                           
I       31.01488245      10.05652383      15.50172980                           
I       27.58664968      11.78676742      15.50174515                           
I       32.24457203       7.94377266      18.57647573                           
I       32.01910037      11.77819249      18.57647595                           
I       28.57555786      10.05626043      18.57646027                           
Cr      36.67722612       7.94087586      10.46423698                           
Cr      33.23871139       9.92606369      10.47271549                           
I       37.67139688       5.95274594       8.93147663                           
I       34.45838859       8.07395578       8.93145308                           
I       31.02491840       9.79588741       8.93144278                           
I       35.67828065       5.96159071      12.00619783                           
I       35.46259810       9.79562946      12.00619302                           
I       32.01382505       8.06536928      12.00620106                           
Cr      29.80023411      15.88169122      17.03520929                           
Cr      26.36177371      17.86693567      17.04368562                           
I       30.79920633      13.89058160      15.50172901                           
I       27.57639144      16.01216496      15.50172980                           
I       24.14815867      17.74240855      15.50174515                           
I       28.80608102      13.89941380      18.57647573                           
I       28.58060936      17.73383362      18.57647595                           
I       25.13706685      16.01190156      18.57646027                           
Cr      33.23873511      13.89651700      10.46423698                           
Cr      29.80022038      15.88170482      10.47271549                           
I       34.23290587      11.90838708       8.93147663                           
I       31.01989758      14.02959691       8.93145308                           
I       27.58642739      15.75152855       8.93144278                           
I       32.23978964      11.91723184      12.00619783                           
I       32.02410709      15.75127059      12.00619302                           
I       28.57533404      14.02101041      12.00620106                           
Cr      26.36174310      21.83733235      17.03520929                           
Cr      22.92328270      23.82257680      17.04368562                           
I       27.36071532      19.84622273      15.50172901                           
I       24.13790043      21.96780609      15.50172980                           
I       20.70966766      23.69804968      15.50174515                           
I       25.36759001      19.85505493      18.57647573                           
I       25.14211835      23.68947476      18.57647595                           
I       21.69857584      21.96754269      18.57646027                           
Cr      29.80024410      19.85215813      10.46423698                           
Cr      26.36172937      21.83734595      10.47271549                           
I       30.79441485      17.86402821       8.93147663                           
I       27.58140657      19.98523804       8.93145308                           
I       24.14793638      21.70716968       8.93144278                           
I       28.80129863      17.87287297      12.00619783                           
I       28.58561608      21.70691172      12.00619302                           
I       25.13684303      19.97665154      12.00620106                           
Cr      22.92325209      27.79297348      17.03520929                           
Cr      19.48479168      29.77821793      17.04368562                           
I       23.92222431      25.80186386      15.50172901                           
I       20.69940942      27.92344722      15.50172980                           
I       17.27117665      29.65369082      15.50174515                           
I       21.92909899      25.81069606      18.57647573                           
I       21.70362734      29.64511589      18.57647595                           
I       18.26008483      27.92318382      18.57646027                           
Cr      26.36175309      25.80779926      10.46423698                           
Cr      22.92323835      27.79298708      10.47271549                           
I       27.35592384      23.81966934       8.93147663                           
I       24.14291556      25.94087917       8.93145308                           
I       20.70944537      27.66281081       8.93144278                           
I       25.36280762      23.82851411      12.00619783                           
I       25.14712507      27.66255286      12.00619302                           
I       21.69835202      25.93229268      12.00620106                           
Cr      19.48476108      33.74861461      17.03520929                           
Cr      16.04630067      35.73385906      17.04368562                           
I       20.48373330      31.75750499      15.50172901                           
I       17.26091841      33.87908835      15.50172980                           
I       13.83268564      35.60933195      15.50174515                           
I       18.49060798      31.76633719      18.57647573                           
I       18.26513633      35.60075702      18.57647595                           
I       14.82159382      33.87882495      18.57646027                           
Cr      22.92326208      31.76344039      10.46423698                           
Cr      19.48474734      33.74862822      10.47271549                           
I       23.91743283      29.77531047       8.93147663                           
I       20.70442455      31.89652031       8.93145308                           
I       17.27095436      33.61845194       8.93144278                           
I       21.92431661      29.78415524      12.00619783                           
I       21.70863405      33.61819399      12.00619302                           
I       18.25986101      31.88793381      12.00620106                           
%ENDBLOCK POSITIONS_ABS                                                         
%BLOCK SPECIES                                                                  
Cr Cr 24 -1 15                                                                  
I   I  53 -1 15                                                                 
%ENDBLOCK SPECIES                                                               
%BLOCK SPECIES_ATOMIC_SET                                                       
Cr "SOLVE INIT SPIN=3"                                                          
I   "SOLVE"                                                                     
%ENDBLOCK SPECIES_ATOMIC_SET                                                    
%BLOCK HUBBARD                                                                  
Cr  2 2.97 0.00 -10.0 0.00 0.0                                                  
%ENDBLOCK HUBBARD                                                               
%BLOCK SPECIES_LDOS_GROUPS                                                      
Cr                                                                              
I                                                                               
%ENDBLOCK SPECIES_LDOS_GROUPS                                                   
%BLOCK SPECIES_POT                                                              
Cr  "../../../../Cr.PBE-paw.abinit"                                             
I   "../../../../I.PBE-paw.abinit"                                              
%ENDBLOCK SPECIES_POT                                                           

--------------------------------------------------------------------------------
-------------------------------- END INPUT FILE --------------------------------
--------------------------------------------------------------------------------


 
 ESDF WARNING(1): "charge" (esdf_physical) has no units. Assume "e".
<<<<<<<<<<<<<<<<<<<<<<<<<<<<<<<<< Full system >>>>>>>>>>>>>>>>>>>>>>>>>>>>>>>>>>
<<<<<<<<<<<<<<<<<<<<<<<<<<< PAW Dataset information >>>>>>>>>>>>>>>>>>>>>>>>>>>
File: ../../../../Cr.PBE-paw.abinit; rc = 2.11 bohr; shape type =  2; rshape = 1.80 bohr;
  Atomic number: 24;  ionic charge: 14.000000
    Partial Wave 1: l = 0
    Partial Wave 2: l = 0
    Partial Wave 3: l = 1
    Partial Wave 4: l = 1
    Partial Wave 5: l = 2
    Partial Wave 6: l = 2
  Core charge supplied for Nonlinear Core Corrections
File: ../../../../I.PBE-paw.abinit; rc = 2.30 bohr; shape type =  2; rshape = 2.11 bohr;
  Atomic number: 53;  ionic charge:  7.000000
    Partial Wave 1: l = 0
    Partial Wave 2: l = 0
    Partial Wave 3: l = 1
    Partial Wave 4: l = 1
  Core charge supplied for Nonlinear Core Corrections
<<<<<<<<<<<<<<<<<<<<<<<<<<<<<<<<<<<<<<< >>>>>>>>>>>>>>>>>>>>>>>>>>>>>>>>>>>>>>>

-------------------------- Atom counting information ---------------------------
Symbol    Natoms    Nngwfs    Nprojs
  Cr       144      1872      2592
  I        432      1728      3456
.......   ......    ......    ......
Totals:    576      3600      6048
--------------------------------------------------------------------------------

=============================== PSINC grid sizes ===============================
                      Simulation cell:  175 x 175 x 117
                              FFT-box:  175 x 175 x 117
                                  PPD:    5 x   5 x   1
Grid space d1=  0.445563862424a0 (KE cutoff=  38.26345Eh =1041.20135eV)
Grid space d2=  0.445563862400a0 (KE cutoff=  38.26345Eh =1041.20135eV)
Grid space d3=  0.444294449711a0 (KE cutoff=  38.48241Eh =1047.15957eV)
================================================================================

********************* Fourier parallelisation information **********************
       Coarse grid (whole simulation cell) dimensions:    175   175   117
          Real-space ('12') slabs/proc (min max mean):      0     1     0
         Recip-space ('23') slabs/proc (min max mean):      0     1     0
********************************************************************************

********************* Fourier parallelisation information **********************
       Double grid (whole simulation cell) dimensions:    350   350   234
          Real-space ('12') slabs/proc (min max mean):      1     2     1
         Recip-space ('23') slabs/proc (min max mean):      1     2     1
********************************************************************************

********************* Fourier parallelisation information **********************
         Fine grid (whole simulation cell) dimensions:    700   700   468
          Real-space ('12') slabs/proc (min max mean):      3     4     3
         Recip-space ('23') slabs/proc (min max mean):      2     3     2
********************************************************************************

Atom SCF Calculation for Cr : Z (AE atom) =  24 : Z (PS atom) =  14
Config String: 3s2.0 3p6.0 3d5.0 4s1.0 4p0.0 INIT SPIN=3
Orbitals (num,occ):  5     2.00 6.00 5.00 1.00 0.00
Orbitals   (num,l):  5        0    1    2    0    1
Atom SCF converged after  64 iterations to a total energy of    -87.07044631
Adjusting orbital occupancies:
Orbitals (num,spin,occ):  5  1     1.00 3.00 3.50 1.00 0.00
Orbitals   (num,spin,l):  5  1        0    1    2    0    1
Orbitals (num,spin,occ):  5  2     1.00 3.00 1.00 0.50 0.00
Orbitals   (num,spin,l):  5  2        0    1    2    0    1

Atom SCF Calculation for I  : Z (AE atom) =  53 : Z (PS atom) =   7
Config String: 5s2.0 5p5.0
Orbitals (num,occ):  2     2.00 5.00
Orbitals   (num,l):  2        0    1
Atom SCF converged after  28 iterations to a total energy of    -11.61352964

Atom SCF Calculation for Cr : Z (AE atom) =  24 : Z (PS atom) =  14
Config String: 3s2.0 3p6.0 3d5.0 4s1.0 4p0.0 INIT SPIN=3
Orbitals (num,occ):  5     2.00 6.00 5.00 1.00 0.00
Orbitals   (num,l):  5        0    1    2    0    1
Atom SCF converged after  64 iterations to a total energy of    -87.07044631

Atom SCF Calculation for I  : Z (AE atom) =  53 : Z (PS atom) =   7
Config String: 5s2.0 5p5.0
Orbitals (num,occ):  2     2.00 5.00
Orbitals   (num,l):  2        0    1
Atom SCF converged after  28 iterations to a total energy of    -11.61352964

Determining parallel strategy ...... done
Calculating Ewald energy ...            31583.245177 Hartree
Basis initialisation ...
... done

============================= Charge Augmentation ==============================
                           Aug box size:   49 x  49 x  45
================================================================================
Sparse matrix initialisation ...
 done
NGWF initialisation ... done
 done

================================= Core Density =================================
               Core den box size:  125 x 125 x 105
================================================================================
Density kernel initialisation

--------------------------- Ensemble-DFT optimisation --------------------------
Running ScaLAPACK on  150 processor(s).
With smearing scheme: FERMIDIRAC                                                                      

--------------------------------------------------------------------------------
  Iter                              Commutator    Free_energy(A=E-TS)     DeltaA
#    0                          0.005698562023  -17491.79472422676920  -1.75E+04
#    1                          0.002525754214  -17570.82584600723200  -7.90E+01
#    2                          0.000205734120  -17613.38812837927980  -4.26E+01
#    3                          0.000170493098  -17613.74728655261790  -3.59E-01
#    4                          0.000140993057  -17613.97691216010210  -2.30E-01
#    5                          0.000104095922  -17614.13794027131370  -1.61E-01
#    6                          0.000091468591  -17614.24098636511190  -1.03E-01
#    7                          0.000067028047  -17614.31155651191880  -7.06E-02
#    8                          0.000059291645  -17614.35643855107990  -4.49E-02
#    9                          0.000045175740  -17614.38813366075560  -3.17E-02
#   10                          0.000038847880  -17614.40836227418550  -2.02E-02
#   11                          0.000032058583  -17614.42347985575180  -1.51E-02
#   12                          0.000026149293  -17614.43322048975100  -9.74E-03
#   13                          0.000023785193  -17614.44091518515780  -7.69E-03
#   14                          0.000018079734  -17614.44590256551960  -4.99E-03
#   15                          0.000018600647  -17614.45008754760420  -4.18E-03
Finished EDFT density kernel iterations (  15)


Writing density kernel to file "Cr2I6_bilayer_LT_FM_FM_nSP.dkn" ... done

Writing Hamiltonian to file "Cr2I6_bilayer_LT_FM_FM_nSP.ham" ... done

Writing density kernel to file "Cr2I6_bilayer_LT_FM_FM_nSP.dkn" ... done

>>> Optimising kernel for current NGWFs:
   iter  |      energy (Eh)       | rms gradient |  commutator  |   dE (Eh)
    1        -1.761444938917E+04     3.2907E-05     1.8063E-05
    2        -1.761445153540E+04     3.5651E-05     1.7896E-05    -2.1462E-03
    3        -1.761445371549E+04     5.2691E-05     2.7012E-05    -2.1801E-03
    4        -1.761445708240E+04     5.5160E-05     2.8402E-05    -3.3669E-03
    5        -1.761445934525E+04     3.1545E-05     1.6381E-05    -2.2628E-03
Finished density kernel iterations (   5)

Writing density kernel to file "Cr2I6_bilayer_LT_FM_FM_nSP.dkn" ... done


>>> Density kernel optimised for the current NGWF basis:
     ~~~~~~~~~~~~~~~~~~~~~~~~~~~~~~~~~~~~~~~~~~~~~~~~~~~~~~~~~~~
     Total energy                =  -1.76144593452496E+04  Eh
     Estimated bandgap (UP spin) =   3.7141E-02  Eh
     Estimated bandgap (DN spin) =   1.0858E-01  Eh
     RMS occupancy error         =   2.2564E-09
     [H,K] commutator            =   1.6381E-05
     UP spin occupancy bounds    = [ -0.000:  1.000]
     DN spin occupancy bounds    = [ -0.000:  1.000]
     ~~~~~~~~~~~~~~~~~~~~~~~~~~~~~~~~~~~~~~~~~~~~~~~~~~~~~~~~~~~




################################################################################
########################### NGWF CG iteration  001 #############################
################################################################################

>>> Checking for convergence of NGWFs:   NOT CONVERGED
  ========================================================================
         NGWF RMS gradient =  9.8500E-05 >  1.0000E-06  | above tolerance
  ========================================================================

>>> Improving NGWFs using line search:
  ========================================================================
   Predicted total energy    =      -1.76222923255007E+04 Eh
   Predicted gain in energy  =      -7.83298025108888E+00 Eh
  ========================================================================

Writing NGWFs to file "Cr2I6_bilayer_LT_FM_FM_nSP.tightbox_ngwfs".... done

>>> Optimising kernel for current NGWFs:
   iter  |      energy (Eh)       | rms gradient |  commutator  |   dE (Eh)
    1        -1.762227499362E+04     4.9120E-04     2.4854E-04
    2        -1.762260797301E+04     1.8508E-04     9.4726E-05    -3.3298E-01
    3        -1.762263899254E+04     8.8483E-05     4.5230E-05    -3.1020E-02
    4        -1.762264977907E+04     6.1710E-05     3.1595E-05    -1.0787E-02
    5        -1.762265523357E+04     2.8730E-05     1.4592E-05    -5.4545E-03
Finished density kernel iterations (   5)

Writing density kernel to file "Cr2I6_bilayer_LT_FM_FM_nSP.dkn" ... done


>>> Density kernel optimised for the current NGWF basis:
     ~~~~~~~~~~~~~~~~~~~~~~~~~~~~~~~~~~~~~~~~~~~~~~~~~~~~~~~~~~~
     Total energy                =  -1.76226552335653E+04  Eh
     Estimated bandgap (UP spin) =   4.2721E-02  Eh
     Estimated bandgap (DN spin) =   1.1629E-01  Eh
     RMS occupancy error         =   5.4502E-10
     [H,K] commutator            =   1.4592E-05
     UP spin occupancy bounds    = [ -0.000:  1.000]
     DN spin occupancy bounds    = [ -0.000:  1.000]
     ~~~~~~~~~~~~~~~~~~~~~~~~~~~~~~~~~~~~~~~~~~~~~~~~~~~~~~~~~~~




################################################################################
########################### NGWF CG iteration  002 #############################
################################################################################

>>> Checking for convergence of NGWFs:   NOT CONVERGED
  ========================================================================
         NGWF RMS gradient =  6.6597E-05 >  1.0000E-06  | above tolerance
  Maximum change in energy =  1.4229E-02 >  1.0000E-07  | above tolerance
  ========================================================================

>>> Improving NGWFs using line search:
  ========================================================================
   Predicted total energy    =      -1.76251178487172E+04 Eh
   Predicted gain in energy  =      -2.46261515191509E+00 Eh
  ========================================================================

Writing NGWFs to file "Cr2I6_bilayer_LT_FM_FM_nSP.tightbox_ngwfs".... done

>>> Optimising kernel for current NGWFs:
   iter  |      energy (Eh)       | rms gradient |  commutator  |   dE (Eh)
    1        -1.762510750490E+04     1.7458E-04     8.8731E-05
    2        -1.762515484414E+04     4.3065E-05     2.1799E-05    -4.7339E-02
    3        -1.762515917112E+04     4.9803E-05     2.5430E-05    -4.3270E-03
    4        -1.762516219602E+04     2.3444E-05     1.1921E-05    -3.0249E-03
    5        -1.762516328953E+04     1.9507E-05     1.0047E-05    -1.0935E-03
Finished density kernel iterations (   5)

Writing density kernel to file "Cr2I6_bilayer_LT_FM_FM_nSP.dkn" ... done


>>> Density kernel optimised for the current NGWF basis:
     ~~~~~~~~~~~~~~~~~~~~~~~~~~~~~~~~~~~~~~~~~~~~~~~~~~~~~~~~~~~
     Total energy                =  -1.76251632895250E+04  Eh
     Estimated bandgap (UP spin) =   4.2046E-02  Eh
     Estimated bandgap (DN spin) =   1.1539E-01  Eh
     RMS occupancy error         =   1.1880E-10
     [H,K] commutator            =   1.0047E-05
     UP spin occupancy bounds    = [  0.000:  1.000]
     DN spin occupancy bounds    = [  0.000:  1.000]
     ~~~~~~~~~~~~~~~~~~~~~~~~~~~~~~~~~~~~~~~~~~~~~~~~~~~~~~~~~~~




################################################################################
########################### NGWF CG iteration  003 #############################
################################################################################

>>> Checking for convergence of NGWFs:   NOT CONVERGED
  ========================================================================
         NGWF RMS gradient =  4.1216E-05 >  1.0000E-06  | above tolerance
  Maximum change in energy =  1.4229E-02 >  1.0000E-07  | above tolerance
  ========================================================================

>>> Improving NGWFs using line search:
  ========================================================================
   Predicted total energy    =      -1.76262212953490E+04 Eh
   Predicted gain in energy  =      -1.05800582403390E+00 Eh
  ========================================================================

Writing NGWFs to file "Cr2I6_bilayer_LT_FM_FM_nSP.tightbox_ngwfs".... done

>>> Optimising kernel for current NGWFs:
   iter  |      energy (Eh)       | rms gradient |  commutator  |   dE (Eh)
    1        -1.762621062378E+04     1.7358E-04     8.7944E-05
    2        -1.762624390666E+04     8.3438E-05     4.2708E-05    -3.3283E-02
    3        -1.762624974388E+04     3.1207E-05     1.5770E-05    -5.8372E-03
    4        -1.762625115989E+04     2.2902E-05     1.1529E-05    -1.4160E-03
    5        -1.762625223925E+04     1.0334E-05     5.2863E-06    -1.0794E-03
Finished density kernel iterations (   5)

Writing density kernel to file "Cr2I6_bilayer_LT_FM_FM_nSP.dkn" ... done


>>> Density kernel optimised for the current NGWF basis:
     ~~~~~~~~~~~~~~~~~~~~~~~~~~~~~~~~~~~~~~~~~~~~~~~~~~~~~~~~~~~
     Total energy                =  -1.76262522392456E+04  Eh
     Estimated bandgap (UP spin) =   4.1846E-02  Eh
     Estimated bandgap (DN spin) =   1.1571E-01  Eh
     RMS occupancy error         =   4.4782E-11
     [H,K] commutator            =   5.2863E-06
     UP spin occupancy bounds    = [  0.000:  1.000]
     DN spin occupancy bounds    = [  0.000:  1.000]
     ~~~~~~~~~~~~~~~~~~~~~~~~~~~~~~~~~~~~~~~~~~~~~~~~~~~~~~~~~~~




################################################################################
########################### NGWF CG iteration  004 #############################
################################################################################

>>> Checking for convergence of NGWFs:   NOT CONVERGED
  ========================================================================
         NGWF RMS gradient =  2.9787E-05 >  1.0000E-06  | above tolerance
  Maximum change in energy =  4.3543E-03 >  1.0000E-07  | above tolerance
  ========================================================================

>>> Improving NGWFs using line search:
  ========================================================================
   Predicted total energy    =      -1.76268284724699E+04 Eh
   Predicted gain in energy  =      -5.76233224252064E-01 Eh
  ========================================================================

Writing NGWFs to file "Cr2I6_bilayer_LT_FM_FM_nSP.tightbox_ngwfs".... done

>>> Optimising kernel for current NGWFs:
   iter  |      energy (Eh)       | rms gradient |  commutator  |   dE (Eh)
    1        -1.762681824510E+04     5.7677E-05     2.9346E-05
    2        -1.762682421193E+04     2.9630E-05     1.5051E-05    -5.9668E-03
    3        -1.762682570625E+04     2.4602E-05     1.2560E-05    -1.4943E-03
    4        -1.762682657647E+04     1.6469E-05     8.4651E-06    -8.7021E-04
    5        -1.762682689773E+04     1.1139E-05     5.6449E-06    -3.2126E-04
Finished density kernel iterations (   5)

Writing density kernel to file "Cr2I6_bilayer_LT_FM_FM_nSP.dkn" ... done


>>> Density kernel optimised for the current NGWF basis:
     ~~~~~~~~~~~~~~~~~~~~~~~~~~~~~~~~~~~~~~~~~~~~~~~~~~~~~~~~~~~
     Total energy                =  -1.76268268977313E+04  Eh
     Estimated bandgap (UP spin) =   4.0733E-02  Eh
     Estimated bandgap (DN spin) =   1.1494E-01  Eh
     RMS occupancy error         =   1.8726E-11
     [H,K] commutator            =   5.6449E-06
     UP spin occupancy bounds    = [  0.000:  1.000]
     DN spin occupancy bounds    = [  0.000:  1.000]
     ~~~~~~~~~~~~~~~~~~~~~~~~~~~~~~~~~~~~~~~~~~~~~~~~~~~~~~~~~~~




################################################################################
########################### NGWF CG iteration  005 #############################
################################################################################

>>> Checking for convergence of NGWFs:   NOT CONVERGED
  ========================================================================
         NGWF RMS gradient =  2.0663E-05 >  1.0000E-06  | above tolerance
  Maximum change in energy =  1.8905E-03 >  1.0000E-07  | above tolerance
  ========================================================================

>>> Improving NGWFs using line search:
  ========================================================================
   Predicted total energy    =      -1.76269921735840E+04 Eh
   Predicted gain in energy  =      -1.65275852701598E-01 Eh
  ========================================================================

Writing NGWFs to file "Cr2I6_bilayer_LT_FM_FM_nSP.tightbox_ngwfs".... done

>>> Optimising kernel for current NGWFs:
   iter  |      energy (Eh)       | rms gradient |  commutator  |   dE (Eh)
    1        -1.762699165170E+04     9.1442E-06     4.5995E-06
    2        -1.762699184961E+04     1.7119E-05     8.5343E-06    -1.9791E-04
    3        -1.762699208128E+04     1.5124E-05     7.6792E-06    -2.3168E-04
    4        -1.762699225811E+04     1.1899E-05     5.9998E-06    -1.7683E-04
    5        -1.762699222565E+04     2.4803E-05     1.2780E-05     3.2459E-05
Finished density kernel iterations (   5)

Writing density kernel to file "Cr2I6_bilayer_LT_FM_FM_nSP.dkn" ... done


>>> Density kernel optimised for the current NGWF basis:
     ~~~~~~~~~~~~~~~~~~~~~~~~~~~~~~~~~~~~~~~~~~~~~~~~~~~~~~~~~~~
     Total energy                =  -1.76269922256490E+04  Eh
     Estimated bandgap (UP spin) =   4.0537E-02  Eh
     Estimated bandgap (DN spin) =   1.1512E-01  Eh
     RMS occupancy error         =   3.3183E-10
     [H,K] commutator            =   1.2780E-05
     UP spin occupancy bounds    = [  0.000:  1.000]
     DN spin occupancy bounds    = [  0.000:  1.000]
     ~~~~~~~~~~~~~~~~~~~~~~~~~~~~~~~~~~~~~~~~~~~~~~~~~~~~~~~~~~~




################################################################################
########################### NGWF CG iteration  006 #############################
################################################################################

>>> Checking for convergence of NGWFs:   NOT CONVERGED
  ========================================================================
         NGWF RMS gradient =  1.4349E-05 >  1.0000E-06  | above tolerance
  Maximum change in energy =  9.9767E-04 >  1.0000E-07  | above tolerance
  ========================================================================

>>> Improving NGWFs using line search:
  ========================================================================
   Predicted total energy    =      -1.76271258120498E+04 Eh
   Predicted gain in energy  =      -1.33586400810600E-01 Eh
  ========================================================================

Writing NGWFs to file "Cr2I6_bilayer_LT_FM_FM_nSP.tightbox_ngwfs".... done

>>> Optimising kernel for current NGWFs:
   iter  |      energy (Eh)       | rms gradient |  commutator  |   dE (Eh)
    1        -1.762712238352E+04     2.9385E-05     1.4830E-05
    2        -1.762712350370E+04     1.9664E-05     9.8770E-06    -1.1202E-03
    3        -1.762712406692E+04     1.4785E-05     7.4384E-06    -5.6322E-04
    4        -1.762712429288E+04     7.0520E-06     3.6452E-06    -2.2596E-04
[...]
*    I     436     -0.00236811  -0.00424070  -0.00717393 *
*    I     437     -0.00249085   0.00419160  -0.00716229 *
*    I     438     -0.00480732   0.00002546   0.00935046 *
*    I     439      0.00242122   0.00413045   0.00935185 *
*    I     440      0.00237511  -0.00417973   0.00934940 *
*    Cr    441      0.00010070   0.00005142  -0.00024639 *
*    Cr    442      0.00001007   0.00001906   0.00023312 *
*    I     443      0.00480528  -0.00003332  -0.00935294 *
*    I     444     -0.00242294  -0.00413289  -0.00935477 *
*    I     445     -0.00237384   0.00417806  -0.00935021 *
*    I     446     -0.00486937  -0.00007472   0.00717996 *
*    I     447      0.00239421   0.00422351   0.00714650 *
*    I     448      0.00250410  -0.00419169   0.00715738 *
*    Cr    449     -0.00000854  -0.00000505  -0.00022341 *
*    Cr    450     -0.00001765   0.00009731   0.00025142 *
*    I     451      0.00487437   0.00007318  -0.00716767 *
*    I     452     -0.00238092  -0.00422392  -0.00716998 *
*    I     453     -0.00250546   0.00419227  -0.00715678 *
*    I     454     -0.00480617   0.00002774   0.00934836 *
*    I     455      0.00242148   0.00413229   0.00935441 *
*    I     456      0.00237487  -0.00417890   0.00934979 *
*    Cr    457      0.00010494   0.00006099  -0.00025090 *
*    Cr    458      0.00001551   0.00001004   0.00022497 *
*    I     459      0.00480539  -0.00003306  -0.00935053 *
*    I     460     -0.00242422  -0.00413328  -0.00935383 *
*    I     461     -0.00237524   0.00417730  -0.00934896 *
*    I     462     -0.00487490  -0.00006889   0.00717134 *
*    I     463      0.00237131   0.00423828   0.00716582 *
*    I     464      0.00249585  -0.00418995   0.00717121 *
*    Cr    465     -0.00000357  -0.00000884  -0.00023189 *
*    Cr    466     -0.00001626  -0.00001941   0.00025571 *
*    I     467      0.00487167   0.00007800  -0.00717446 *
*    I     468     -0.00238381  -0.00421839  -0.00716331 *
*    I     469     -0.00251961   0.00419191  -0.00714781 *
*    I     470     -0.00480864   0.00002270   0.00934953 *
*    I     471      0.00241831   0.00413056   0.00935443 *
*    I     472      0.00237219  -0.00418263   0.00935040 *
*    Cr    473      0.00010577   0.00005864  -0.00024219 *
*    Cr    474      0.00009337  -0.00003164   0.00024523 *
*    I     475      0.00480669  -0.00003319  -0.00935028 *
*    I     476     -0.00242369  -0.00413561  -0.00935625 *
*    I     477     -0.00237357   0.00417718  -0.00934872 *
*    I     478     -0.00487318  -0.00005968   0.00716250 *
*    I     479      0.00235368   0.00425490   0.00716162 *
*    I     480      0.00248608  -0.00418702   0.00717757 *
*    Cr    481      0.00000100  -0.00000697  -0.00023018 *
*    Cr    482     -0.00001747  -0.00002142   0.00024463 *
*    I     483      0.00487574   0.00009794  -0.00717494 *
*    I     484     -0.00237829  -0.00422587  -0.00716184 *
*    I     485     -0.00250840   0.00421150  -0.00712615 *
*    I     486     -0.00480535   0.00002730   0.00934916 *
*    I     487      0.00241922   0.00412980   0.00935404 *
*    I     488      0.00237435  -0.00417804   0.00934974 *
*    Cr    489      0.00000347  -0.00000006  -0.00025256 *
*    Cr    490      0.00010156  -0.00003873   0.00025677 *
*    I     491      0.00480705  -0.00002910  -0.00935257 *
*    I     492     -0.00242417  -0.00413410  -0.00935535 *
*    I     493     -0.00237309   0.00418170  -0.00935213 *
*    I     494     -0.00487587  -0.00005365   0.00714930 *
*    I     495      0.00235454   0.00423054   0.00717822 *
*    I     496      0.00248877  -0.00418342   0.00718316 *
*    Cr    497     -0.00000147  -0.00000814  -0.00023179 *
*    Cr    498     -0.00001860  -0.00000899   0.00023421 *
*    I     499      0.00488109   0.00007801  -0.00715373 *
*    I     500     -0.00236528  -0.00425603  -0.00714194 *
*    I     501     -0.00246690   0.00419343  -0.00716363 *
*    I     502     -0.00480548   0.00002817   0.00934973 *
*    I     503      0.00242089   0.00413007   0.00935394 *
*    I     504      0.00237542  -0.00417795   0.00934978 *
*    Cr    505      0.00001000   0.00001422  -0.00028427 *
*    Cr    506      0.00000893   0.00001460   0.00026546 *
*    I     507      0.00480751  -0.00003231  -0.00935211 *
*    I     508     -0.00242406  -0.00413524  -0.00935525 *
*    I     509     -0.00237556   0.00417729  -0.00935031 *
*    I     510     -0.00486220  -0.00008196   0.00717947 *
*    I     511      0.00235657   0.00421602   0.00719321 *
*    I     512      0.00248118  -0.00417460   0.00718705 *
*    Cr    513     -0.00000330  -0.00000884  -0.00023222 *
*    Cr    514     -0.00003104  -0.00000172   0.00026036 *
*    I     515      0.00488411   0.00008149  -0.00714770 *
*    I     516     -0.00234872  -0.00424870  -0.00717826 *
*    I     517     -0.00247700   0.00419254  -0.00716040 *
*    I     518     -0.00480467   0.00002540   0.00935035 *
*    I     519      0.00242192   0.00412792   0.00935415 *
*    I     520      0.00237422  -0.00417951   0.00934943 *
*    Cr    521      0.00002011  -0.00000255  -0.00029118 *
*    Cr    522      0.00000558   0.00002483   0.00025963 *
*    I     523      0.00480476  -0.00003233  -0.00935119 *
*    I     524     -0.00242455  -0.00413308  -0.00935533 *
*    I     525     -0.00237486   0.00417952  -0.00935146 *
*    I     526     -0.00486257  -0.00008113   0.00718630 *
*    I     527      0.00235002   0.00423032   0.00718954 *
*    I     528      0.00251315  -0.00418195   0.00716429 *
*    Cr    529     -0.00000428  -0.00001147  -0.00023574 *
*    Cr    530     -0.00002618  -0.00001569   0.00025234 *
*    I     531      0.00489120   0.00008408  -0.00714488 *
*    I     532     -0.00236080  -0.00423860  -0.00717800 *
*    I     533     -0.00247282   0.00419775  -0.00715904 *
*    I     534     -0.00480541   0.00002538   0.00934963 *
*    I     535      0.00242143   0.00412984   0.00935231 *
*    I     536      0.00237599  -0.00417839   0.00934911 *
*    Cr    537      0.00001041  -0.00000870  -0.00025672 *
*    Cr    538      0.00000655   0.00001005   0.00024688 *
*    I     539      0.00480463  -0.00003271  -0.00935158 *
*    I     540     -0.00242508  -0.00413322  -0.00935754 *
*    I     541     -0.00237419   0.00417665  -0.00934936 *
*    I     542     -0.00486386  -0.00007445   0.00718669 *
*    I     543      0.00235303   0.00423684   0.00717416 *
*    I     544      0.00250719  -0.00418477   0.00717001 *
*    Cr    545     -0.00008472   0.00003904  -0.00024455 *
*    Cr    546     -0.00002210   0.00009640   0.00024611 *
*    I     547      0.00488589   0.00009173  -0.00715615 *
*    I     548     -0.00237115  -0.00423073  -0.00718167 *
*    I     549     -0.00248627   0.00419833  -0.00715281 *
*    I     550     -0.00481001   0.00002437   0.00935147 *
*    I     551      0.00242127   0.00413295   0.00935579 *
*    I     552      0.00237320  -0.00418038   0.00935015 *
*    Cr    553      0.00000638   0.00000596  -0.00024728 *
*    Cr    554      0.00001054   0.00001173   0.00023156 *
*    I     555      0.00480305  -0.00003190  -0.00934946 *
*    I     556     -0.00242474  -0.00413277  -0.00935556 *
*    I     557     -0.00237492   0.00417700  -0.00935049 *
*    I     558     -0.00486003  -0.00006459   0.00718879 *
*    I     559      0.00239462   0.00422286   0.00714648 *
*    I     560      0.00251832  -0.00419074   0.00715867 *
*    Cr    561     -0.00000778  -0.00001123  -0.00023449 *
*    Cr    562     -0.00001900  -0.00001643   0.00025353 *
*    I     563      0.00488197   0.00009346  -0.00716723 *
*    I     564     -0.00238642  -0.00421297  -0.00718037 *
*    I     565     -0.00248750   0.00421147  -0.00713909 *
*    I     566     -0.00480693   0.00002528   0.00934931 *
*    I     567      0.00241913   0.00413018   0.00935262 *
*    I     568      0.00237114  -0.00418367   0.00935131 *
*    Cr    569      0.00000448  -0.00000077  -0.00025944 *
*    Cr    570      0.00001092   0.00000987   0.00023333 *
*    I     571      0.00480364  -0.00003132  -0.00935042 *
*    I     572     -0.00242344  -0.00413263  -0.00935421 *
*    I     573     -0.00237313   0.00418179  -0.00935088 *
*    I     574     -0.00486333  -0.00005298   0.00717346 *
*    I     575      0.00236299   0.00425101   0.00714732 *
*    I     576      0.00250088  -0.00419054   0.00717063 *
*                                                        *
**********************************************************
* TOTAL:           -0.00000000   0.00000000  -0.00000000 *
**********************************************************
 
 
***********************************************************
********** Summary of Forces (values in Eh/a) *************
*                                                         *
* ---------------------- Minimum ------------------------ *
* Atom:       337, |F|min =    0.00020675                 *
* Components:     Fx|min       Fy|min       Fz|min        *
*              -0.00000380  -0.00000386  -0.00020668      *
*                                                         *
* ---------------------- Maximum ------------------------ *
* Atom:       395, |F|max =    0.01051722                 *
* Components:     Fx|max       Fy|max       Fz|max        *
*               0.00480733  -0.00003205  -0.00935418      *
*                                                         *
* ---------------- Root Mean Square Force --------------- *
*                  |F|rms =    0.00834235                 *
* Components:     Fx|rms       Fy|rms       Fz|rms        *
*               0.00296209   0.00295890   0.00721566      *
***********************************************************
 

------------------------------ TIMING INFORMATION ------------------------------
AVERAGE TIME:   35390.902s on    150 proc(s)                                    
TOTAL TIME:     35390.903s on    150 proc(s)                                    
==================== AVERAGE TIMINGS FROM ALL PROCS (CUMULATIVE) =====================
|| TAG                                         #calls     cpu time   %total  Gflops ||
|| hubbard_species_proj                       :     1        0.00s   0.000%  ------ ||
|| sw_bessel_init_cpu                         :     1        0.01s   0.000%  ------ || (1 procs only)
|| hubbard_projector_character                :     1        0.00s   0.000%  ------ ||
|| hubbard_ngwf_select                        :     1        0.00s   0.000%  ------ ||
|| density_fftbox_interp_mult_imbal           : 19250        0.00s   0.000%  ------ ||
|| hubbard_ngwf_on_grid                       :     1        0.00s   0.000%  ------ ||
|| hash_table_free                            :    48        0.00s   0.000%  ------ ||
|| onetep.F90 final imbalance                 :     1        0.01s   0.000%  ------ ||
|| ewald_calculate_forces_realspace           :     1        0.01s   0.000%  ------ ||
|| linalg_invert_sym_matrix                   :     2        0.02s   0.000%  ------ || (144 procs only)
|| hubbard_tensorial_correction               :     2        0.01s   0.000%  ------ ||
|| linalg_dgemv                               :    25        0.02s   0.000%  ------ ||
|| ewald_calculate_energy                     :     1        0.04s   0.000%  ------ ||
|| onetep.F90 main loop imbalance             :     1        0.05s   0.000%  ------ ||
|| ewald_calculate_forces_recipspace          :     1        0.06s   0.000%  ------ ||
|| sparse_spam3toblacs_real_fast_imbal        :   198        0.08s   0.000%  ------ ||
|| sparse_set_to_garbage                      :   712        0.09s   0.000%  ------ ||
|| sw_init                                    :   769        0.09s   0.000%  ------ ||
|| ewald_calculate_forces                     :     1        0.09s   0.000%  ------ ||
|| sparse_blacstospam3_real_fast_imbal        :   212        0.10s   0.000%  ------ ||
|| paw_dij_hartree                            :   423        0.11s   0.000%  ------ ||
|| pseudo_make_structure_factor               :     1        0.16s   0.000%  ------ ||
|| augmentation_density_forces                :     1        0.23s   0.001%  ------ ||
|| basis_extract_function_from_box            :  2304        0.38s   0.001%  ------ ||
|| paw_tcore_hartree_on_grid                  :     1        0.48s   0.001%  ------ ||
|| sparse_spam3toblacs_real_fast_B2           : 29700        0.49s   0.001%  ------ ||
|| paw_tcore_hartree_calc_forces              :     1        0.61s   0.002%  ------ ||
|| hubbard_projection_mtx                     :    50        0.64s   0.002%  ------ ||
|| restart_hamiltonian_write                  :     2        0.76s   0.002%  ------ ||
|| paw_tcore_density                          :     1        1.18s   0.003%  ------ ||
|| ngwfs_initialise_from_radial               :     2        1.33s   0.004%  ------ ||
|| paw_nlcc_calculate_forces                  :     1        1.36s   0.004%  ------ ||
|| paw_dataset_init                           :     2        1.52s   0.004%  ------ ||
|| paw_sphere_density_on_grid                 :     1        1.53s   0.004%  ------ ||
|| nonsc_forces_ngwfs_calc                    :     1        1.84s   0.005%  ------ ||
|| sparse_init                                :     1        2.17s   0.006%  ------ ||
|| hubbard_ham_matrix                         :   178        5.08s   0.014%  ------ ||
|| hubbard_projector_ham                      :   177        5.33s   0.015%  ------ ||
|| paw_species_calc_proj_prec_mat             :     1        5.93s   0.017%  ------ ||
|| restart_kernel_write                       :    26        6.53s   0.018%  ------ ||
|| sparse_embed_array_hotelling_invert        :    48        7.61s   0.022%  ------ ||
|| hubbard_calculate_forces                   :     1        9.30s   0.026%  ------ ||
|| integrals_grad_spam3                       :     2       11.06s   0.031%  ------ ||
|| sparse_spam3toblacs_real_fast_B1           : 29700       14.29s   0.040%  ------ ||
|| energy_and_force_init_cell                 :     1       14.50s   0.041%  ------ ||
|| hubbard_projector_update                   :     1       15.20s   0.043%  ------ ||
|| sparse_spam3toblacs_real_fast              :   198       15.88s   0.045%  ------ ||
|| projectors_func_grad_ovlp_box_spam3        :     3       17.30s   0.049%  ------ ||
|| aug_nl_calculate_forces                    :     1       18.35s   0.052%  ------ ||
|| fourier_filter_cell                        :   404       22.89s   0.065% 313.028 ||
|| ngwf_gradient_coeffs                       :    24       24.49s   0.069%  ------ ||
|| hubbard_energy_total                       :   397       24.62s   0.070%  ------ ||
|| sparse_blacstospam3_real_fast              :   212       31.41s   0.089%  ------ ||
|| hartree_on_grid_single                     :   384       31.59s   0.089%  ------ ||
|| sparse_trace                               : 12246       31.59s   0.089%  ------ ||
|| fourier_apply_box_pair                     :  2918       31.85s   0.090%  5.362k ||
|| basis_copy_function_to_box                 : 29332       34.76s   0.098%  ------ ||
|| hamiltonian_energy_components              :     1       39.64s   0.112%  ------ ||
|| eigenstates_calculate                      :     1       42.02s   0.119%  ------ ||
|| fourier_interpolate_cell                   :   770       42.66s   0.121% 320.071 ||
|| dense_eigensolve                           :    96       50.84s   0.144%  ------ ||
|| density_init_guess_real                    :     2       58.04s   0.164%  ------ ||
|| kernel_purify                              :   516       62.11s   0.176%  ------ ||
|| edft_diag_ngwf_ham                         :    94       65.53s   0.185%  ------ ||
|| kernel_fix                                 :   160       65.71s   0.186%  ------ ||
|| lnv_gradient_norm                          :   160       71.12s   0.201%  ------ ||
|| augmentation_screen_dij_spam3              :   383       78.84s   0.223%  ------ ||
|| paw_dij_xc                                 :   423       88.67s   0.251%  ------ ||
|| aug_nonlocal_mat_spam3_embed_array         :   398       97.95s   0.277%  ------ ||
|| forces_calculate                           :     1      107.01s   0.302%  ------ ||
|| edft_apply_smearing_operator               :    47      111.17s   0.314%  ------ ||
|| projectors_init_fftbox_recip               :   391      135.47s   0.383%  ------ ||
|| fourier_apply_cell_backward                :  3457      141.73s   0.400% 389.093 ||
|| fourier_apply_cell_forward                 :  3457      151.22s   0.427% 364.673 ||
|| cell_grid_deposit_box_real                 : 24512      187.80s   0.531%  ------ ||
|| aug_density_on_grid_spam3                  :   385      188.03s   0.531%  ------ ||
|| fourier_filter                             :  5594      224.11s   0.633%  ------ ||
|| restart_ngwfs_tightbox_output              :    23      228.28s   0.645%  ------ ||
|| function_ops_brappd_ketppd_spam3           :    98      233.89s   0.661%  ------ ||
|| cell_grid_extract_box_real                 : 15106      283.19s   0.800%  ------ ||
|| xc_energy_potential                        :   384      299.57s   0.846%  ------ ||
|| projectors_func_ovlp_box_spam3             :    99      345.64s   0.977%  ------ ||
|| sparse_product                             : 22437      383.44s   1.083%  ------ ||
|| fourier_interpolate                        :  5594      422.06s   1.193%  ------ ||
|| integrals_kinetic_spam3                    :    48      519.67s   1.468%  ------ ||
|| properties_calculate                       :     1      555.31s   1.569%  ------ ||
|| basis_dot_function_with_box                : 16.75M    1225.56s   3.463%  ------ ||
|| density_fftbox_deposit_to_cell             : 19250     1241.03s   3.507%  ------ ||
|| projectors_gradient_batch                  :   192     1681.22s   4.750%  ------ ||
|| potential_apply_to_ngwf_batch              :   712     2356.18s   6.658%  ------ ||
|| edft_calculate                             :     1     2569.30s   7.260%  ------ ||
|| fourier_apply_box                          : 86960     3342.24s   9.444%  5.478k ||
|| basis_add_function_to_box                  : 40.82M    3454.91s   9.762%  ------ ||
|| integrals_locpot_mat_els_batch             :   712     3459.08s   9.774%  ------ ||
|| fourier_interpolate_product                : 18480     3646.34s  10.303%  ------ ||
|| density_fftbox_interpolate_multiply        : 19250     3792.97s  10.717%  ------ ||
|| projectors_grad_precond_batch              :    96     4894.25s  13.829%  ------ ||
|| integrals_locpot_dbl_grid                  :   356     5836.53s  16.492%  ------ ||
|| density_batch_interp_deposit               :  1540     6899.82s  19.496%  ------ ||
|| density_batch_row_sums                     :  1540     7157.39s  20.224%  ------ ||
|| ngwf_gradient_build_batch                  :    96     7598.04s  21.469%  ------ ||
|| ngwf_gradient_batch                        :    96    11044.23s  31.206%  ------ ||
|| ngwf_gradient_lnv                          :    24    11636.91s  32.881%  ------ ||
|| density_on_dbl_grid                        :   770    14204.24s  40.135%  ------ ||
|| hamiltonian_lhxc_calculate                 :   381    14845.23s  41.946%  ------ ||
|| lnv_denskernel_optimise_cg                 :    24    17607.17s  49.751%  ------ ||
|| ngwf_cg_optimise                           :     1    31986.03s  90.379%  ------ ||
|| energy_and_forces                          :     1    35375.09s  99.955%  ------ ||
|| total_time                                 :     1    35390.90s 100.000%  ------ ||
======================================================================================
Overhead of generating timer report: 
- 0 ms averaging over threads,
- 10 ms ensuring consistency across MPI ranks,
- 2 ms printing in order.

Job completed: 30-05-2025 01:09 (+0100)

onetep_launcher: ONETEP seems to have finished correctly (zero exit code).
                 Brought to you by PID 240615 on nid002550.
