==================================================================================
It's Thu 01 May 2025 12:43:02 PM BST.
*** Starting onetep_launcher (node nid005408, PIDs 108033 108034 108035 108036 108037 108038)...
    - ONETEP arguments: Cr2I6_bilayer_LT_FM_AFM_SP.dat
    - Current directory: /mnt/lustre/a2fs-work3/work/e89/e89/phsmea/CrI3_onetep_U/U_2.97/LT_FM/LT_FM_AFM_J/sp
    - Launcher executable directory: /mnt/lustre/a2fs-work3/work/e89/e89/phsmea/CrI3_onetep_U/U_2.97/LT_FM/LT_FM_AFM_J/sp
    - (-e) ONETEP executable specified through command-line: /work/e89/e89/phsmea/onetep.archer2_2024_cray
      ... trying /work/e89/e89/phsmea/onetep.archer2_2024_cray
          -> looks OK
*** Setting up environment...
    - (-s) Process stack size: unlimited
    - (-t) OMP_NUM_THREADS: 16
    - (-o) OMP_STACKSIZE: 64M
    - (-c) Maximum core file size: 2048000
    - (-d) decfort_dump_flag: n
    - (-m) I_MPI_OFA_TRANSLATION_CACHE: 0
    - (-m) I_MPI_DAPL_TRANSLATION_CACHE: 0
    - (-m) I_MPI_DAPL_UD_TRANSLATION_CACHE: 0
*** Starting ONETEP...
    - /work/e89/e89/phsmea/onetep.archer2_2024_cray Cr2I6_bilayer_LT_FM_AFM_SP.dat
=================================================================================
_________________________________________________________________________________
 +---------------------------------------------------------------+
 |                                                               |
 |        ####### #     # ####### ####### ####### ######         |
 |        #     # ##    # #          #    #       #     #        |
 |        #     # # #   # #          #    #       #     #        |
 |        #     # #  #  # #####      #    #####   ######         |
 |        #     # #   # # #          #    #       #              |
 |        #     # #    ## #          #    #       #              |
 |        ####### #     # #######    #    ####### #              |
 |                                                               |
 |        Linear-Scaling Ab Initio Total Energy Program          |
 |                                                               |
 |          Release for academic collaborators of ODG            |
 |                                             Version 7.3.0     |
 | Remote: git@github.com:Miesaz/onetep_mea.git                  |
 | Local branch: master                                          |
 | Commit ID: 4af45e89288c8df5499704252eec3e032ee3d0c8           |
 | Date: Tue Aug 6 11:28:44 2024 +0100                           |
 | Working tree clean                                            |
 |                                                               |
 +---------------------------------------------------------------+
 |                                                               |
 |  Authors:                                                     |
 |  Jacek Dziedzic, Peter D. Haynes, Nicholas D. M. Hine,        |
 |  Arash A. Mostofi, Mike C. Payne and Chris-Kriton Skylaris    |
 |                                                               |
 |  Contributors:                                                |
 |  J. Aarons, L. Andrinopoulos, P. W. Avraam, R. A. Bell,       |
 |  A. Bhandari, G. A. Bramley, R. J. Charlton, S. J. Clark,     |
 |  R. J. Clements, G. C. Constantinescu, F. Corsetti,           |
 |  N. Corsini, O. Dieguez, S. M. M. Dubois, K. K. B. Duff,      |
 |  J. M. Escartin, M. Escobar Azor, A. Greco,                   |
 |  H. Helal, Q. O. Hill, L. P. Lee, J.-H. Li,                   |
 |  T. Li, E. B. Linscott, G. Moynihan, D. D. O`Regan,           |
 |  O. K. Okan, E. Parkinson, M. J. S. Phipps,                   |
 |  C. J. Pickard, J. C. A. Prentice, M. I. J. Probert,          |
 |  L. E. Ratcliff, M. Robinson, A. Ruiz Serrano,                |
 |  M. dos Santos Dias, J. S. Spencer, E. W. Tait,               |
 |  G. Teobaldi, D. Turban, V. Vitale, K. A. Wilkinson,          |
 |  C. Weber, J. C. Womack, Chengcheng Xiao, N. Yeung,           |
 |  and T. J. Zuehlsdorff.                                       |
 |                                                               |
 |                                   Copyright (c) 2004-2024     |
 |                                                               |
 |  Please cite:                                                 |
 |  "The ONETEP linear-scaling density functional theory program"|
 |   J. Chem. Phys. 152(17) 174111 (2020)                        |
 |                                                               |
 |          in all publications arising from your use of ONETEP. |
 |                                                               |
 +---------------------------------------------------------------+
 |                                                               |
 |   ONETEP is based on developments described in the following  |
 |   publications:                                               |
 |                                                               |
 |  "Nonorthogonal generalized Wannier function pseudopotential  |
 |   plane-wave method".                                         |
 |   C.-K. Skylaris, A. A. Mostofi, P. D. Haynes, O. Dieguez,    |
 |   M. C. Payne.                                                |
 |   Phys. Rev. B 66 035119 (2002).                              |
 |                                                               |
 |  "Preconditioned iterative minimization for linear-scaling    |
 |   electronic structure calculations".                         |
 |   A. A. Mostofi, P. D. Haynes, C.-K. Skylaris, M. C. Payne.   |
 |   J. Chem. Phys. 119(17), pp.8842-8848 (2003).                |
 |                                                               |
 |  "Total-energy calculations on a real space grid with         |
 |   localized functions and a plane-wave basis".                |
 |   A. A. Mostofi, C.-K. Skylaris, P. D. Haynes, M. C. Payne.   |
 |   Comput. Phys. Commun. 147, pp.788-802 (2002).               |
 |                                                               |
 |  "Accurate kinetic energy evaluation in electronic structure  |
 |   calculations with localized functions on real space grids"  |
 |   C.-K. Skylaris, A. A. Mostofi, P. D. Haynes, C. J. Pickard, |
 |   M. C. Payne.                                                |
 |   Comput. Phys. Commun. 140, pp.315-322 (2001).               |
 |                                                               |
 |  "Accurate ionic forces and geometry optimization in linear-  |
 |   scaling density-functional theory with local orbitals"      |
 |   N. D. M. Hine, M. Robinson, P. D. Haynes, C.-K. Skylaris,   |
 |   M. C. Payne, and A. A. Mostofi.                             |
 |   Phys. Rev. B 83 195102 (2011).                              |
 |                                                               |
 +---------------------------------------------------------------+

Job started: 01-05-2025 12:43 (+0100)
 
Reading parameters from file "Cr2I6_bilayer_LT_FM_AFM_SP.dat" ...... done

If your calculation crashes here, before "Checking processes and threads..."
is displayed, then your stack size is insufficient.
If so, use "ulimit -s unlimited" at runtime.
You can disable this check with "check_stack_size F".

Checking processes and threads...
      Default threads: 16
   Running with 150 MPI processes.
   There are 6 MPI processes running on the same node as the root process.
   Each MPI process is using: 
               1 threads for simulation cell FFTs.
               1 threads for threaded FFT box operations.
              16 threads for loops over batched FFT box operations.
              16 threads in other parallel regions.
   MPI Interface: S1 (use mpi_f08) (-DMPI -DUSE_MPI_F08).
   MPI_ASYNC_PROTECTS_NONBLOCKING: Yes. MPI_SUBARRAYS_SUPPORTED: Yes.
   FFTW Interface: OMP-capable and MODERN. (-DUSE_MODERN_FFTW specified).
   GPU Interface: None.
   GPU FFT Backend: None.
... done

Basic input checks...... done

Reading geometry and species blocks from file "Cr2I6_bilayer_LT_FM_AFM_SP.dat" ...... done


--------------------------------------------------------------------------------
---------------------------------- INPUT FILE ----------------------------------
--------------------------------------------------------------------------------

charge : 0                                                                      
cutoff_energy : 1000 eV                                                         
delta_e_conv : F                                                                
do_properties : T                                                               
edft : F                                                                        
edft_init_maxit : 15                                                            
elec_energy_tol : 1e-07 Ha                                                      
fine_grid_scale : 4                                                             
forces_output_detail : VERBOSE                                                  
MAXIT_LNV     : 15                                                              
MINIT_LNV     : 5                                                               
maxit_ngwf_cg : 100                                                             
ngwf_threshold_orig : 1e-06                                                     
ngwfs_spin_polarized : T                                                        
output_detail : NORMAL                                                          
paw : T                                                                         
read_denskern : T                                                               
read_hamiltonian : F                                                            
read_tightbox_ngwfs : T                                                         
spin : 0                                                                        
spin_polarized : T                                                              
task : SinglePoint                                                              
write_denskern : T                                                              
write_forces : T                                                                
write_hamiltonian : T                                                           
write_tightbox_ngwfs : T                                                        
xc_functional : PBE                                                             
%BLOCK LATTICE_CART                                                             
ang                                                                             
41.261892132    0.000000000    0.000000000                                      
-20.630946066   35.733846792    0.000000000                                     
0.000000000    0.000000000   27.507928088                                       
%ENDBLOCK LATTICE_CART                                                          
%BLOCK POSITIONS_ABS                                                            
ang                                                                             
Cr       2.29230603       3.97040895      17.03520929                           
Cr      -1.14615438       5.95565340      17.04368562                           
I        3.29127824       1.97929933      15.50172901                           
I        0.06846335       4.10088269      15.50172980                           
I       -3.35976942       5.83112629      15.50174515                           
I        1.29815293       1.98813153      18.57647573                           
I        1.07268127       5.82255136      18.57647595                           
I       -2.37086124       4.10061929      18.57646027                           
Cr      5.73080703       1.98523473      10.46423698                            
Cr      2.29229229       3.97042256      10.47271549                            
I        6.72497778      -0.00289519       8.93147663                           
I        3.51196949       2.11831465       8.93145308                           
I        0.07849930       3.84024628       8.93144278                           
I        4.73186155       0.00594958      12.00619783                           
I        4.51617900       3.83998833      12.00619302                           
I        1.06740595       2.10972815      12.00620106                           
Cr      -1.14618498       9.92605008      17.03520929                           
Cr      -4.58464539      11.91129453      17.04368562                           
I       -0.14721277       7.93494046      15.50172901                           
I       -3.37002766      10.05652383      15.50172980                           
I       -6.79826043      11.78676742      15.50174515                           
I       -2.14033808       7.94377266      18.57647573                           
I       -2.36580974      11.77819249      18.57647595                           
I       -5.80935225      10.05626043      18.57646027                           
Cr      2.29231601       7.94087586      10.46423698                            
Cr     -1.14619872       9.92606369      10.47271549                            
I        3.28648677       5.95274594       8.93147663                           
I        0.07347848       8.07395578       8.93145308                           
I       -3.35999171       9.79588741       8.93144278                           
I        1.29337054       5.96159071      12.00619783                           
I        1.07768799       9.79562946      12.00619302                           
I       -2.37108506       8.06536928      12.00620106                           
Cr      -4.58467600      15.88169122      17.03520929                           
Cr      -8.02313640      17.86693567      17.04368562                           
I       -3.58570378      13.89058160      15.50172901                           
I       -6.80851867      16.01216496      15.50172980                           
I      -10.23675144      17.74240855      15.50174515                           
I       -5.57882909      13.89941380      18.57647573                           
I       -5.80430075      17.73383362      18.57647595                           
I       -9.24784326      16.01190156      18.57646027                           
Cr     -1.14617500      13.89651700      10.46423698                            
Cr     -4.58468973      15.88170482      10.47271549                            
I       -0.15200424      11.90838708       8.93147663                           
I       -3.36501253      14.02959691       8.93145308                           
I       -6.79848272      15.75152855       8.93144278                           
I       -2.14512047      11.91723184      12.00619783                           
I       -2.36080302      15.75127059      12.00619302                           
I       -5.80957607      14.02101041      12.00620106                           
Cr      -8.02316701      21.83733235      17.03520929                           
Cr     -11.46162741      23.82257680      17.04368562                           
I       -7.02419479      19.84622273      15.50172901                           
I      -10.24700968      21.96780609      15.50172980                           
I      -13.67524245      23.69804968      15.50174515                           
I       -9.01732010      19.85505493      18.57647573                           
I       -9.24279176      23.68947476      18.57647595                           
I      -12.68633427      21.96754269      18.57646027                           
Cr     -4.58466601      19.85215813      10.46423698                            
Cr     -8.02318074      21.83734595      10.47271549                            
I       -3.59049526      17.86402821       8.93147663                           
I       -6.80350354      19.98523804       8.93145308                           
I      -10.23697373      21.70716968       8.93144278                           
I       -5.58361148      17.87287297      12.00619783                           
I       -5.79929403      21.70691172      12.00619302                           
I       -9.24806708      19.97665154      12.00620106                           
Cr     -11.46165802      27.79297348      17.03520929                           
Cr     -14.90011843      29.77821793      17.04368562                           
I      -10.46268580      25.80186386      15.50172901                           
I      -13.68550069      27.92344722      15.50172980                           
I      -17.11373346      29.65369082      15.50174515                           
I      -12.45581112      25.81069606      18.57647573                           
I      -12.68128277      29.64511589      18.57647595                           
I      -16.12482528      27.92318382      18.57646027                           
Cr     -8.02315702      25.80779926      10.46423698                            
Cr    -11.46167176      27.79298708      10.47271549                            
I       -7.02898627      23.81966934       8.93147663                           
I      -10.24199455      25.94087917       8.93145308                           
I      -13.67546474      27.66281081       8.93144278                           
I       -9.02210249      23.82851411      12.00619783                           
I       -9.23778504      27.66255286      12.00619302                           
I      -12.68655809      25.93229268      12.00620106                           
Cr     -14.90014903      33.74861461      17.03520929                           
Cr     -18.33860944      35.73385906      17.04368562                           
I      -13.90117681      31.75750499      15.50172901                           
I      -17.12399170      33.87908835      15.50172980                           
I      -20.55222447      35.60933195      15.50174515                           
I      -15.89430213      31.76633719      18.57647573                           
I      -16.11977378      35.60075702      18.57647595                           
I      -19.56331629      33.87882495      18.57646027                           
Cr    -11.46164803      31.76344039      10.46423698                            
Cr    -14.90016277      33.74862822      10.47271549                            
I      -10.46747728      29.77531047       8.93147663                           
I      -13.68048556      31.89652031       8.93145308                           
I      -17.11395575      33.61845194       8.93144278                           
I      -12.46059350      29.78415524      12.00619783                           
I      -12.67627606      33.61819399      12.00619302                           
I      -16.12504910      31.88793381      12.00620106                           
Cr       9.16928805       3.97040895      17.03520929                           
Cr       5.73082764       5.95565340      17.04368562                           
I       10.16826026       1.97929933      15.50172901                           
I        6.94544538       4.10088269      15.50172980                           
I        3.51721261       5.83112629      15.50174515                           
I        8.17513495       1.98813153      18.57647573                           
I        7.94966330       5.82255136      18.57647595                           
I        4.50612079       4.10061929      18.57646027                           
Cr     12.60778905       1.98523473      10.46423698                            
Cr      9.16927431       3.97042256      10.47271549                            
I       13.60195980      -0.00289519       8.93147663                           
I       10.38895151       2.11831465       8.93145308                           
I        6.95548132       3.84024628       8.93144278                           
I       11.60884358       0.00594958      12.00619783                           
I       11.39316102       3.83998833      12.00619302                           
I        7.94438798       2.10972815      12.00620106                           
Cr       5.73079704       9.92605008      17.03520929                           
Cr       2.29233663      11.91129453      17.04368562                           
I        6.72976925       7.93494046      15.50172901                           
I        3.50695437      10.05652383      15.50172980                           
I        0.07872159      11.78676742      15.50174515                           
I        4.73664394       7.94377266      18.57647573                           
I        4.51117228      11.77819249      18.57647595                           
I        1.06762977      10.05626043      18.57646027                           
Cr      9.16929804       7.94087586      10.46423698                            
Cr      5.73078330       9.92606369      10.47271549                            
I       10.16346879       5.95274594       8.93147663                           
I        6.95046050       8.07395578       8.93145308                           
I        3.51699031       9.79588741       8.93144278                           
I        8.17035256       5.96159071      12.00619783                           
I        7.95467001       9.79562946      12.00619302                           
I        4.50589697       8.06536928      12.00620106                           
Cr       2.29230603      15.88169122      17.03520929                           
Cr      -1.14615438      17.86693567      17.04368562                           
I        3.29127824      13.89058160      15.50172901                           
I        0.06846335      16.01216496      15.50172980                           
I       -3.35976942      17.74240855      15.50174515                           
I        1.29815293      13.89941380      18.57647573                           
I        1.07268127      17.73383362      18.57647595                           
I       -2.37086124      16.01190156      18.57646027                           
Cr      5.73080703      13.89651700      10.46423698                            
Cr      2.29229229      15.88170482      10.47271549                            
I        6.72497778      11.90838708       8.93147663                           
I        3.51196949      14.02959691       8.93145308                           
I        0.07849930      15.75152855       8.93144278                           
I        4.73186155      11.91723184      12.00619783                           
I        4.51617900      15.75127059      12.00619302                           
I        1.06740595      14.02101041      12.00620106                           
Cr      -1.14618498      21.83733235      17.03520929                           
Cr      -4.58464539      23.82257680      17.04368562                           
I       -0.14721277      19.84622273      15.50172901                           
I       -3.37002766      21.96780609      15.50172980                           
I       -6.79826043      23.69804968      15.50174515                           
I       -2.14033808      19.85505493      18.57647573                           
I       -2.36580974      23.68947476      18.57647595                           
I       -5.80935225      21.96754269      18.57646027                           
Cr      2.29231601      19.85215813      10.46423698                            
Cr     -1.14619872      21.83734595      10.47271549                            
I        3.28648677      17.86402821       8.93147663                           
I        0.07347848      19.98523804       8.93145308                           
I       -3.35999171      21.70716968       8.93144278                           
I        1.29337054      17.87287297      12.00619783                           
I        1.07768799      21.70691172      12.00619302                           
I       -2.37108506      19.97665154      12.00620106                           
Cr      -4.58467600      27.79297348      17.03520929                           
Cr      -8.02313640      29.77821793      17.04368562                           
I       -3.58570378      25.80186386      15.50172901                           
I       -6.80851867      27.92344722      15.50172980                           
I      -10.23675144      29.65369082      15.50174515                           
I       -5.57882909      25.81069606      18.57647573                           
I       -5.80430075      29.64511589      18.57647595                           
I       -9.24784326      27.92318382      18.57646027                           
Cr     -1.14617500      25.80779926      10.46423698                            
Cr     -4.58468973      27.79298708      10.47271549                            
I       -0.15200424      23.81966934       8.93147663                           
I       -3.36501253      25.94087917       8.93145308                           
I       -6.79848272      27.66281081       8.93144278                           
I       -2.14512047      23.82851411      12.00619783                           
I       -2.36080302      27.66255286      12.00619302                           
I       -5.80957607      25.93229268      12.00620106                           
Cr      -8.02316701      33.74861461      17.03520929                           
Cr     -11.46162741      35.73385906      17.04368562                           
I       -7.02419479      31.75750499      15.50172901                           
I      -10.24700968      33.87908835      15.50172980                           
I      -13.67524245      35.60933195      15.50174515                           
I       -9.01732010      31.76633719      18.57647573                           
I       -9.24279176      35.60075702      18.57647595                           
I      -12.68633427      33.87882495      18.57646027                           
Cr     -4.58466601      31.76344039      10.46423698                            
Cr     -8.02318074      33.74862822      10.47271549                            
I       -3.59049526      29.77531047       8.93147663                           
I       -6.80350354      31.89652031       8.93145308                           
I      -10.23697373      33.61845194       8.93144278                           
I       -5.58361148      29.78415524      12.00619783                           
I       -5.79929403      33.61819399      12.00619302                           
I       -9.24806708      31.88793381      12.00620106                           
Cr      16.04627007       3.97040895      17.03520929                           
Cr      12.60780966       5.95565340      17.04368562                           
I       17.04524228       1.97929933      15.50172901                           
I       13.82242740       4.10088269      15.50172980                           
I       10.39419463       5.83112629      15.50174515                           
I       15.05211697       1.98813153      18.57647573                           
I       14.82664532       5.82255136      18.57647595                           
I       11.38310281       4.10061929      18.57646027                           
Cr     19.48477107       1.98523473      10.46423698                            
Cr     16.04625633       3.97042256      10.47271549                            
I       20.47894182      -0.00289519       8.93147663                           
I       17.26593353       2.11831465       8.93145308                           
I       13.83246335       3.84024628       8.93144278                           
I       18.48582560       0.00594958      12.00619783                           
I       18.27014304       3.83998833      12.00619302                           
I       14.82137000       2.10972815      12.00620106                           
Cr      12.60777906       9.92605008      17.03520929                           
Cr       9.16931865      11.91129453      17.04368562                           
I       13.60675127       7.93494046      15.50172901                           
I       10.38393639      10.05652383      15.50172980                           
I        6.95570362      11.78676742      15.50174515                           
I       11.61362596       7.94377266      18.57647573                           
I       11.38815431      11.77819249      18.57647595                           
I        7.94461180      10.05626043      18.57646027                           
Cr     16.04628006       7.94087586      10.46423698                            
Cr     12.60776532       9.92606369      10.47271549                            
I       17.04045081       5.95274594       8.93147663                           
I       13.82744252       8.07395578       8.93145308                           
I       10.39397233       9.79588741       8.93144278                           
I       15.04733459       5.96159071      12.00619783                           
I       14.83165203       9.79562946      12.00619302                           
I       11.38287899       8.06536928      12.00620106                           
Cr       9.16928805      15.88169122      17.03520929                           
Cr       5.73082764      17.86693567      17.04368562                           
I       10.16826026      13.89058160      15.50172901                           
I        6.94544538      16.01216496      15.50172980                           
I        3.51721261      17.74240855      15.50174515                           
I        8.17513495      13.89941380      18.57647573                           
I        7.94966330      17.73383362      18.57647595                           
I        4.50612079      16.01190156      18.57646027                           
Cr     12.60778905      13.89651700      10.46423698                            
Cr      9.16927431      15.88170482      10.47271549                            
I       13.60195980      11.90838708       8.93147663                           
I       10.38895151      14.02959691       8.93145308                           
I        6.95548132      15.75152855       8.93144278                           
I       11.60884358      11.91723184      12.00619783                           
I       11.39316102      15.75127059      12.00619302                           
I        7.94438798      14.02101041      12.00620106                           
Cr       5.73079704      21.83733235      17.03520929                           
Cr       2.29233663      23.82257680      17.04368562                           
I        6.72976925      19.84622273      15.50172901                           
I        3.50695437      21.96780609      15.50172980                           
I        0.07872159      23.69804968      15.50174515                           
I        4.73664394      19.85505493      18.57647573                           
I        4.51117228      23.68947476      18.57647595                           
I        1.06762977      21.96754269      18.57646027                           
Cr      9.16929804      19.85215813      10.46423698                            
Cr      5.73078330      21.83734595      10.47271549                            
I       10.16346879      17.86402821       8.93147663                           
I        6.95046050      19.98523804       8.93145308                           
I        3.51699031      21.70716968       8.93144278                           
I        8.17035256      17.87287297      12.00619783                           
I        7.95467001      21.70691172      12.00619302                           
I        4.50589697      19.97665154      12.00620106                           
Cr       2.29230603      27.79297348      17.03520929                           
Cr      -1.14615438      29.77821793      17.04368562                           
I        3.29127824      25.80186386      15.50172901                           
I        0.06846335      27.92344722      15.50172980                           
I       -3.35976942      29.65369082      15.50174515                           
I        1.29815293      25.81069606      18.57647573                           
I        1.07268127      29.64511589      18.57647595                           
I       -2.37086124      27.92318382      18.57646027                           
Cr      5.73080703      25.80779926      10.46423698                            
Cr      2.29229229      27.79298708      10.47271549                            
I        6.72497778      23.81966934       8.93147663                           
I        3.51196949      25.94087917       8.93145308                           
I        0.07849930      27.66281081       8.93144278                           
I        4.73186155      23.82851411      12.00619783                           
I        4.51617900      27.66255286      12.00619302                           
I        1.06740595      25.93229268      12.00620106                           
Cr      -1.14618498      33.74861461      17.03520929                           
Cr      -4.58464539      35.73385906      17.04368562                           
I       -0.14721277      31.75750499      15.50172901                           
I       -3.37002766      33.87908835      15.50172980                           
I       -6.79826043      35.60933195      15.50174515                           
I       -2.14033808      31.76633719      18.57647573                           
I       -2.36580974      35.60075702      18.57647595                           
I       -5.80935225      33.87882495      18.57646027                           
Cr      2.29231601      31.76344039      10.46423698                            
Cr     -1.14619872      33.74862822      10.47271549                            
I        3.28648677      29.77531047       8.93147663                           
I        0.07347848      31.89652031       8.93145308                           
I       -3.35999171      33.61845194       8.93144278                           
I        1.29337054      29.78415524      12.00619783                           
I        1.07768799      33.61819399      12.00619302                           
I       -2.37108506      31.88793381      12.00620106                           
Cr      22.92325209       3.97040895      17.03520929                           
Cr      19.48479168       5.95565340      17.04368562                           
I       23.92222431       1.97929933      15.50172901                           
I       20.69940942       4.10088269      15.50172980                           
I       17.27117665       5.83112629      15.50174515                           
I       21.92909899       1.98813153      18.57647573                           
I       21.70362734       5.82255136      18.57647595                           
I       18.26008483       4.10061929      18.57646027                           
Cr     26.36175309       1.98523473      10.46423698                            
Cr     22.92323835       3.97042256      10.47271549                            
I       27.35592384      -0.00289519       8.93147663                           
I       24.14291556       2.11831465       8.93145308                           
I       20.70944537       3.84024628       8.93144278                           
I       25.36280762       0.00594958      12.00619783                           
I       25.14712507       3.83998833      12.00619302                           
I       21.69835202       2.10972815      12.00620106                           
Cr      19.48476108       9.92605008      17.03520929                           
Cr      16.04630067      11.91129453      17.04368562                           
I       20.48373330       7.93494046      15.50172901                           
I       17.26091841      10.05652383      15.50172980                           
I       13.83268564      11.78676742      15.50174515                           
I       18.49060798       7.94377266      18.57647573                           
I       18.26513633      11.77819249      18.57647595                           
I       14.82159382      10.05626043      18.57646027                           
Cr     22.92326208       7.94087586      10.46423698                            
Cr     19.48474734       9.92606369      10.47271549                            
I       23.91743283       5.95274594       8.93147663                           
I       20.70442455       8.07395578       8.93145308                           
I       17.27095436       9.79588741       8.93144278                           
I       21.92431661       5.96159071      12.00619783                           
I       21.70863405       9.79562946      12.00619302                           
I       18.25986101       8.06536928      12.00620106                           
Cr      16.04627007      15.88169122      17.03520929                           
Cr      12.60780966      17.86693567      17.04368562                           
I       17.04524228      13.89058160      15.50172901                           
I       13.82242740      16.01216496      15.50172980                           
I       10.39419463      17.74240855      15.50174515                           
I       15.05211697      13.89941380      18.57647573                           
I       14.82664532      17.73383362      18.57647595                           
I       11.38310281      16.01190156      18.57646027                           
Cr     19.48477107      13.89651700      10.46423698                            
Cr     16.04625633      15.88170482      10.47271549                            
I       20.47894182      11.90838708       8.93147663                           
I       17.26593353      14.02959691       8.93145308                           
I       13.83246335      15.75152855       8.93144278                           
I       18.48582560      11.91723184      12.00619783                           
I       18.27014304      15.75127059      12.00619302                           
I       14.82137000      14.02101041      12.00620106                           
Cr      12.60777906      21.83733235      17.03520929                           
Cr       9.16931865      23.82257680      17.04368562                           
I       13.60675127      19.84622273      15.50172901                           
I       10.38393639      21.96780609      15.50172980                           
I        6.95570362      23.69804968      15.50174515                           
I       11.61362596      19.85505493      18.57647573                           
I       11.38815431      23.68947476      18.57647595                           
I        7.94461180      21.96754269      18.57646027                           
Cr     16.04628006      19.85215813      10.46423698                            
Cr     12.60776532      21.83734595      10.47271549                            
I       17.04045081      17.86402821       8.93147663                           
I       13.82744252      19.98523804       8.93145308                           
I       10.39397233      21.70716968       8.93144278                           
I       15.04733459      17.87287297      12.00619783                           
I       14.83165203      21.70691172      12.00619302                           
I       11.38287899      19.97665154      12.00620106                           
Cr       9.16928805      27.79297348      17.03520929                           
Cr       5.73082764      29.77821793      17.04368562                           
I       10.16826026      25.80186386      15.50172901                           
I        6.94544538      27.92344722      15.50172980                           
I        3.51721261      29.65369082      15.50174515                           
I        8.17513495      25.81069606      18.57647573                           
I        7.94966330      29.64511589      18.57647595                           
I        4.50612079      27.92318382      18.57646027                           
Cr     12.60778905      25.80779926      10.46423698                            
Cr      9.16927431      27.79298708      10.47271549                            
I       13.60195980      23.81966934       8.93147663                           
I       10.38895151      25.94087917       8.93145308                           
I        6.95548132      27.66281081       8.93144278                           
I       11.60884358      23.82851411      12.00619783                           
I       11.39316102      27.66255286      12.00619302                           
I        7.94438798      25.93229268      12.00620106                           
Cr       5.73079704      33.74861461      17.03520929                           
Cr       2.29233663      35.73385906      17.04368562                           
I        6.72976925      31.75750499      15.50172901                           
I        3.50695437      33.87908835      15.50172980                           
I        0.07872159      35.60933195      15.50174515                           
I        4.73664394      31.76633719      18.57647573                           
I        4.51117228      35.60075702      18.57647595                           
I        1.06762977      33.87882495      18.57646027                           
Cr      9.16929804      31.76344039      10.46423698                            
Cr      5.73078330      33.74862822      10.47271549                            
I       10.16346879      29.77531047       8.93147663                           
I        6.95046050      31.89652031       8.93145308                           
I        3.51699031      33.61845194       8.93144278                           
I        8.17035256      29.78415524      12.00619783                           
I        7.95467001      33.61819399      12.00619302                           
I        4.50589697      31.88793381      12.00620106                           
Cr      29.80023411       3.97040895      17.03520929                           
Cr      26.36177371       5.95565340      17.04368562                           
I       30.79920633       1.97929933      15.50172901                           
I       27.57639144       4.10088269      15.50172980                           
I       24.14815867       5.83112629      15.50174515                           
I       28.80608102       1.98813153      18.57647573                           
I       28.58060936       5.82255136      18.57647595                           
I       25.13706685       4.10061929      18.57646027                           
Cr     33.23873511       1.98523473      10.46423698                            
Cr     29.80022038       3.97042256      10.47271549                            
I       34.23290587      -0.00289519       8.93147663                           
I       31.01989758       2.11831465       8.93145308                           
I       27.58642739       3.84024628       8.93144278                           
I       32.23978964       0.00594958      12.00619783                           
I       32.02410709       3.83998833      12.00619302                           
I       28.57533404       2.10972815      12.00620106                           
Cr      26.36174310       9.92605008      17.03520929                           
Cr      22.92328270      11.91129453      17.04368562                           
I       27.36071532       7.93494046      15.50172901                           
I       24.13790043      10.05652383      15.50172980                           
I       20.70966766      11.78676742      15.50174515                           
I       25.36759001       7.94377266      18.57647573                           
I       25.14211835      11.77819249      18.57647595                           
I       21.69857584      10.05626043      18.57646027                           
Cr     29.80024410       7.94087586      10.46423698                            
Cr     26.36172937       9.92606369      10.47271549                            
I       30.79441485       5.95274594       8.93147663                           
I       27.58140657       8.07395578       8.93145308                           
I       24.14793638       9.79588741       8.93144278                           
I       28.80129863       5.96159071      12.00619783                           
I       28.58561608       9.79562946      12.00619302                           
I       25.13684303       8.06536928      12.00620106                           
Cr      22.92325209      15.88169122      17.03520929                           
Cr      19.48479168      17.86693567      17.04368562                           
I       23.92222431      13.89058160      15.50172901                           
I       20.69940942      16.01216496      15.50172980                           
I       17.27117665      17.74240855      15.50174515                           
I       21.92909899      13.89941380      18.57647573                           
I       21.70362734      17.73383362      18.57647595                           
I       18.26008483      16.01190156      18.57646027                           
Cr     26.36175309      13.89651700      10.46423698                            
Cr     22.92323835      15.88170482      10.47271549                            
I       27.35592384      11.90838708       8.93147663                           
I       24.14291556      14.02959691       8.93145308                           
I       20.70944537      15.75152855       8.93144278                           
I       25.36280762      11.91723184      12.00619783                           
I       25.14712507      15.75127059      12.00619302                           
I       21.69835202      14.02101041      12.00620106                           
Cr      19.48476108      21.83733235      17.03520929                           
Cr      16.04630067      23.82257680      17.04368562                           
I       20.48373330      19.84622273      15.50172901                           
I       17.26091841      21.96780609      15.50172980                           
I       13.83268564      23.69804968      15.50174515                           
I       18.49060798      19.85505493      18.57647573                           
I       18.26513633      23.68947476      18.57647595                           
I       14.82159382      21.96754269      18.57646027                           
Cr     22.92326208      19.85215813      10.46423698                            
Cr     19.48474734      21.83734595      10.47271549                            
I       23.91743283      17.86402821       8.93147663                           
I       20.70442455      19.98523804       8.93145308                           
I       17.27095436      21.70716968       8.93144278                           
I       21.92431661      17.87287297      12.00619783                           
I       21.70863405      21.70691172      12.00619302                           
I       18.25986101      19.97665154      12.00620106                           
Cr      16.04627007      27.79297348      17.03520929                           
Cr      12.60780966      29.77821793      17.04368562                           
I       17.04524228      25.80186386      15.50172901                           
I       13.82242740      27.92344722      15.50172980                           
I       10.39419463      29.65369082      15.50174515                           
I       15.05211697      25.81069606      18.57647573                           
I       14.82664532      29.64511589      18.57647595                           
I       11.38310281      27.92318382      18.57646027                           
Cr     19.48477107      25.80779926      10.46423698                            
Cr     16.04625633      27.79298708      10.47271549                            
I       20.47894182      23.81966934       8.93147663                           
I       17.26593353      25.94087917       8.93145308                           
I       13.83246335      27.66281081       8.93144278                           
I       18.48582560      23.82851411      12.00619783                           
I       18.27014304      27.66255286      12.00619302                           
I       14.82137000      25.93229268      12.00620106                           
Cr      12.60777906      33.74861461      17.03520929                           
Cr       9.16931865      35.73385906      17.04368562                           
I       13.60675127      31.75750499      15.50172901                           
I       10.38393639      33.87908835      15.50172980                           
I        6.95570362      35.60933195      15.50174515                           
I       11.61362596      31.76633719      18.57647573                           
I       11.38815431      35.60075702      18.57647595                           
I        7.94461180      33.87882495      18.57646027                           
Cr     16.04628006      31.76344039      10.46423698                            
Cr     12.60776532      33.74862822      10.47271549                            
I       17.04045081      29.77531047       8.93147663                           
I       13.82744252      31.89652031       8.93145308                           
I       10.39397233      33.61845194       8.93144278                           
I       15.04733459      29.78415524      12.00619783                           
I       14.83165203      33.61819399      12.00619302                           
I       11.38287899      31.88793381      12.00620106                           
Cr      36.67721614       3.97040895      17.03520929                           
Cr      33.23875573       5.95565340      17.04368562                           
I       37.67618835       1.97929933      15.50172901                           
I       34.45337346       4.10088269      15.50172980                           
I       31.02514069       5.83112629      15.50174515                           
I       35.68306304       1.98813153      18.57647573                           
I       35.45759138       5.82255136      18.57647595                           
I       32.01404887       4.10061929      18.57646027                           
Cr     40.11571714       1.98523473      10.46423698                            
Cr     36.67720240       3.97042256      10.47271549                            
I       41.10988789      -0.00289519       8.93147663                           
I       37.89687960       2.11831465       8.93145308                           
I       34.46340941       3.84024628       8.93144278                           
I       39.11677166       0.00594958      12.00619783                           
I       38.90108911       3.83998833      12.00619302                           
I       35.45231606       2.10972815      12.00620106                           
Cr      33.23872513       9.92605008      17.03520929                           
Cr      29.80026472      11.91129453      17.04368562                           
I       34.23769734       7.93494046      15.50172901                           
I       31.01488245      10.05652383      15.50172980                           
I       27.58664968      11.78676742      15.50174515                           
I       32.24457203       7.94377266      18.57647573                           
I       32.01910037      11.77819249      18.57647595                           
I       28.57555786      10.05626043      18.57646027                           
Cr     36.67722612       7.94087586      10.46423698                            
Cr     33.23871139       9.92606369      10.47271549                            
I       37.67139688       5.95274594       8.93147663                           
I       34.45838859       8.07395578       8.93145308                           
I       31.02491840       9.79588741       8.93144278                           
I       35.67828065       5.96159071      12.00619783                           
I       35.46259810       9.79562946      12.00619302                           
I       32.01382505       8.06536928      12.00620106                           
Cr      29.80023411      15.88169122      17.03520929                           
Cr      26.36177371      17.86693567      17.04368562                           
I       30.79920633      13.89058160      15.50172901                           
I       27.57639144      16.01216496      15.50172980                           
I       24.14815867      17.74240855      15.50174515                           
I       28.80608102      13.89941380      18.57647573                           
I       28.58060936      17.73383362      18.57647595                           
I       25.13706685      16.01190156      18.57646027                           
Cr     33.23873511      13.89651700      10.46423698                            
Cr     29.80022038      15.88170482      10.47271549                            
I       34.23290587      11.90838708       8.93147663                           
I       31.01989758      14.02959691       8.93145308                           
I       27.58642739      15.75152855       8.93144278                           
I       32.23978964      11.91723184      12.00619783                           
I       32.02410709      15.75127059      12.00619302                           
I       28.57533404      14.02101041      12.00620106                           
Cr      26.36174310      21.83733235      17.03520929                           
Cr      22.92328270      23.82257680      17.04368562                           
I       27.36071532      19.84622273      15.50172901                           
I       24.13790043      21.96780609      15.50172980                           
I       20.70966766      23.69804968      15.50174515                           
I       25.36759001      19.85505493      18.57647573                           
I       25.14211835      23.68947476      18.57647595                           
I       21.69857584      21.96754269      18.57646027                           
Cr     29.80024410      19.85215813      10.46423698                            
Cr     26.36172937      21.83734595      10.47271549                            
I       30.79441485      17.86402821       8.93147663                           
I       27.58140657      19.98523804       8.93145308                           
I       24.14793638      21.70716968       8.93144278                           
I       28.80129863      17.87287297      12.00619783                           
I       28.58561608      21.70691172      12.00619302                           
I       25.13684303      19.97665154      12.00620106                           
Cr      22.92325209      27.79297348      17.03520929                           
Cr      19.48479168      29.77821793      17.04368562                           
I       23.92222431      25.80186386      15.50172901                           
I       20.69940942      27.92344722      15.50172980                           
I       17.27117665      29.65369082      15.50174515                           
I       21.92909899      25.81069606      18.57647573                           
I       21.70362734      29.64511589      18.57647595                           
I       18.26008483      27.92318382      18.57646027                           
Cr     26.36175309      25.80779926      10.46423698                            
Cr     22.92323835      27.79298708      10.47271549                            
I       27.35592384      23.81966934       8.93147663                           
I       24.14291556      25.94087917       8.93145308                           
I       20.70944537      27.66281081       8.93144278                           
I       25.36280762      23.82851411      12.00619783                           
I       25.14712507      27.66255286      12.00619302                           
I       21.69835202      25.93229268      12.00620106                           
Cr      19.48476108      33.74861461      17.03520929                           
Cr      16.04630067      35.73385906      17.04368562                           
I       20.48373330      31.75750499      15.50172901                           
I       17.26091841      33.87908835      15.50172980                           
I       13.83268564      35.60933195      15.50174515                           
I       18.49060798      31.76633719      18.57647573                           
I       18.26513633      35.60075702      18.57647595                           
I       14.82159382      33.87882495      18.57646027                           
Cr     22.92326208      31.76344039      10.46423698                            
Cr     19.48474734      33.74862822      10.47271549                            
I       23.91743283      29.77531047       8.93147663                           
I       20.70442455      31.89652031       8.93145308                           
I       17.27095436      33.61845194       8.93144278                           
I       21.92431661      29.78415524      12.00619783                           
I       21.70863405      33.61819399      12.00619302                           
I       18.25986101      31.88793381      12.00620106                           
%ENDBLOCK POSITIONS_ABS                                                         
%BLOCK SPECIES                                                                  
Cr Cr 24 -1 15                                                                  
I   I  53 -1 15                                                                 
%ENDBLOCK SPECIES                                                               
%BLOCK SPECIES_ATOMIC_SET                                                       
Cr "SOLVE INIT SPIN=3"                                                          
I   "SOLVE"                                                                     
%ENDBLOCK SPECIES_ATOMIC_SET                                                    
%BLOCK HUBBARD                                                                  
Cr  2 2.97 0.37 -10.0 0.00 0.0                                                  
%ENDBLOCK HUBBARD                                                               
%BLOCK SPECIES_LDOS_GROUPS                                                      
Cr                                                                              
I                                                                               
%ENDBLOCK SPECIES_LDOS_GROUPS                                                   
%BLOCK SPECIES_POT                                                              
Cr  "../../../../Cr.PBE-paw.abinit"                                             
I   "../../../../I.PBE-paw.abinit"                                              
%ENDBLOCK SPECIES_POT                                                           

--------------------------------------------------------------------------------
-------------------------------- END INPUT FILE --------------------------------
--------------------------------------------------------------------------------


 
 ESDF WARNING(1): "charge" (esdf_physical) has no units. Assume "e".
<<<<<<<<<<<<<<<<<<<<<<<<<<<<<<<<< Full system >>>>>>>>>>>>>>>>>>>>>>>>>>>>>>>>>>
<<<<<<<<<<<<<<<<<<<<<<<<<<< PAW Dataset information >>>>>>>>>>>>>>>>>>>>>>>>>>>
File: ../../../../Cr.PBE-paw.abinit; rc = 2.11 bohr; shape type =  2; rshape = 1.80 bohr;
  Atomic number: 24;  ionic charge: 14.000000
    Partial Wave 1: l = 0
    Partial Wave 2: l = 0
    Partial Wave 3: l = 1
    Partial Wave 4: l = 1
    Partial Wave 5: l = 2
    Partial Wave 6: l = 2
  Core charge supplied for Nonlinear Core Corrections
File: ../../../../I.PBE-paw.abinit; rc = 2.30 bohr; shape type =  2; rshape = 2.11 bohr;
  Atomic number: 53;  ionic charge:  7.000000
    Partial Wave 1: l = 0
    Partial Wave 2: l = 0
    Partial Wave 3: l = 1
    Partial Wave 4: l = 1
  Core charge supplied for Nonlinear Core Corrections
<<<<<<<<<<<<<<<<<<<<<<<<<<<<<<<<<<<<<<< >>>>>>>>>>>>>>>>>>>>>>>>>>>>>>>>>>>>>>>

-------------------------- Atom counting information ---------------------------
Symbol    Natoms    Nngwfs    Nprojs
  Cr       144      1872      2592
  I        432      1728      3456
.......   ......    ......    ......
Totals:    576      3600      6048
--------------------------------------------------------------------------------

=============================== PSINC grid sizes ===============================
                      Simulation cell:  175 x 175 x 117
                              FFT-box:  175 x 175 x 117
                                  PPD:    5 x   5 x   1
Grid space d1=  0.445563862424a0 (KE cutoff=  38.26345Eh =1041.20135eV)
Grid space d2=  0.445563862400a0 (KE cutoff=  38.26345Eh =1041.20135eV)
Grid space d3=  0.444294449711a0 (KE cutoff=  38.48241Eh =1047.15957eV)
================================================================================

********************* Fourier parallelisation information **********************
       Coarse grid (whole simulation cell) dimensions:    175   175   117
          Real-space ('12') slabs/proc (min max mean):      0     1     0
         Recip-space ('23') slabs/proc (min max mean):      0     1     0
********************************************************************************

********************* Fourier parallelisation information **********************
       Double grid (whole simulation cell) dimensions:    350   350   234
          Real-space ('12') slabs/proc (min max mean):      1     2     1
         Recip-space ('23') slabs/proc (min max mean):      1     2     1
********************************************************************************

********************* Fourier parallelisation information **********************
         Fine grid (whole simulation cell) dimensions:    700   700   468
          Real-space ('12') slabs/proc (min max mean):      3     4     3
         Recip-space ('23') slabs/proc (min max mean):      2     3     2
********************************************************************************
energy_and_force_init_cell: WARNING in internal_setup_spin:
        even number of electrons in cell and zero spin
        but continuing with spin-polarised calculation

Atom SCF Calculation for Cr : Z (AE atom) =  24 : Z (PS atom) =  14
Config String: 3s2.0 3p6.0 3d5.0 4s1.0 4p0.0 INIT SPIN=3
Orbitals (num,occ):  5     2.00 6.00 5.00 1.00 0.00
Orbitals   (num,l):  5        0    1    2    0    1
Atom SCF converged after  64 iterations to a total energy of    -87.07044631
Adjusting orbital occupancies:
Orbitals (num,spin,occ):  5  1     1.00 3.00 3.50 1.00 0.00
Orbitals   (num,spin,l):  5  1        0    1    2    0    1
Orbitals (num,spin,occ):  5  2     1.00 3.00 1.00 0.50 0.00
Orbitals   (num,spin,l):  5  2        0    1    2    0    1

Atom SCF Calculation for I  : Z (AE atom) =  53 : Z (PS atom) =   7
Config String: 5s2.0 5p5.0
Orbitals (num,occ):  2     2.00 5.00
Orbitals   (num,l):  2        0    1
Atom SCF converged after  28 iterations to a total energy of    -11.61352964

Atom SCF Calculation for Cr : Z (AE atom) =  24 : Z (PS atom) =  14
Config String: 3s2.0 3p6.0 3d5.0 4s1.0 4p0.0 INIT SPIN=3
Orbitals (num,occ):  5     2.00 6.00 5.00 1.00 0.00
Orbitals   (num,l):  5        0    1    2    0    1
Atom SCF converged after  64 iterations to a total energy of    -87.07044631

Atom SCF Calculation for I  : Z (AE atom) =  53 : Z (PS atom) =   7
Config String: 5s2.0 5p5.0
Orbitals (num,occ):  2     2.00 5.00
Orbitals   (num,l):  2        0    1
Atom SCF converged after  28 iterations to a total energy of    -11.61352964

Determining parallel strategy ...... done
Calculating Ewald energy ...            31583.245177 Hartree
Basis initialisation ...
... done

============================= Charge Augmentation ==============================
                           Aug box size:   49 x  49 x  45
================================================================================
Sparse matrix initialisation ...
 done

Reading NGWFs from file "Cr2I6_bilayer_LT_FM_AFM_SP.tightbox_ngwfs" ... done
 done

================================= Core Density =================================
               Core den box size:  125 x 125 x 105
================================================================================

Reading density kernel from file "Cr2I6_bilayer_LT_FM_AFM_SP.dkn" ... done

>>> Optimising kernel for current NGWFs:


>>> Density kernel optimised for the current NGWF basis:
     ~~~~~~~~~~~~~~~~~~~~~~~~~~~~~~~~~~~~~~~~~~~~~~~~~~~~~~~~~~~
     Total energy                =  -1.76308917976880E+04  Eh
     Estimated bandgap (UP spin) =  -1.0831E-02  Eh
     Estimated bandgap (DN spin) =   4.4777E-02  Eh
     RMS occupancy error         =   1.5727E-03
     [H,K] commutator            =   6.4166E-06
     UP spin occupancy bounds    = [  0.002:  1.002]
     DN spin occupancy bounds    = [  0.000:  1.000]
     ~~~~~~~~~~~~~~~~~~~~~~~~~~~~~~~~~~~~~~~~~~~~~~~~~~~~~~~~~~~




################################################################################
########################### NGWF CG iteration  001 #############################
################################################################################

>>> Checking for convergence of NGWFs:   NOT CONVERGED
  ========================================================================
         NGWF RMS gradient =  1.4167E-05 >  1.0000E-06  | above tolerance
  ========================================================================

>>> Improving NGWFs using line search:
  ========================================================================
   Predicted total energy    =      -1.76309169108009E+04 Eh
   Predicted gain in energy  =      -2.51131129334681E-02 Eh
  ========================================================================

Writing NGWFs to file "Cr2I6_bilayer_LT_FM_AFM_SP.tightbox_ngwfs".... done

>>> Optimising kernel for current NGWFs:
   iter  |      energy (Eh)       | rms gradient |  commutator  |   dE (Eh)
    1        -1.763089989690E+04     3.3286E-04     7.3695E-06
    2        -1.763090001617E+04     3.3284E-04     6.9846E-06    -1.1928E-04
    3        -1.763090012704E+04     3.3283E-04     6.7395E-06    -1.1086E-04
    4        -1.763090023181E+04     3.3283E-04     6.6060E-06    -1.0478E-04
    5        -1.763090033234E+04     3.3283E-04     6.4876E-06    -1.0053E-04
Finished density kernel iterations (   5)

Writing density kernel to file "Cr2I6_bilayer_LT_FM_AFM_SP.dkn" ... done


>>> Density kernel optimised for the current NGWF basis:
     ~~~~~~~~~~~~~~~~~~~~~~~~~~~~~~~~~~~~~~~~~~~~~~~~~~~~~~~~~~~
     Total energy                =  -1.76309003323364E+04  Eh
     Estimated bandgap (UP spin) =  -1.0781E-02  Eh
     Estimated bandgap (DN spin) =   4.4765E-02  Eh
     RMS occupancy error         =   1.5727E-03
     [H,K] commutator            =   6.4876E-06
     UP spin occupancy bounds    = [  0.002:  1.002]
     DN spin occupancy bounds    = [  0.000:  1.000]
     ~~~~~~~~~~~~~~~~~~~~~~~~~~~~~~~~~~~~~~~~~~~~~~~~~~~~~~~~~~~




################################################################################
########################### NGWF CG iteration  002 #############################
################################################################################

>>> Checking for convergence of NGWFs:   NOT CONVERGED
  ========================================================================
         NGWF RMS gradient =  1.4073E-05 >  1.0000E-06  | above tolerance
  Maximum change in energy =  1.4817E-05 >  1.0000E-07  | above tolerance
  ========================================================================

>>> Improving NGWFs using line search:
  ========================================================================
   Predicted total energy    =      -1.76309251023649E+04 Eh
   Predicted gain in energy  =      -2.47700284744496E-02 Eh
  ========================================================================

Writing NGWFs to file "Cr2I6_bilayer_LT_FM_AFM_SP.tightbox_ngwfs".... done

>>> Optimising kernel for current NGWFs:
   iter  |      energy (Eh)       | rms gradient |  commutator  |   dE (Eh)
    1        -1.763090790646E+04     3.3284E-04     7.7164E-06
    2        -1.763090803145E+04     3.3281E-04     7.2479E-06    -1.2499E-04
    3        -1.763090814660E+04     3.3280E-04     6.9118E-06    -1.1514E-04
    4        -1.763090825430E+04     3.3279E-04     6.6772E-06    -1.0770E-04
    5        -1.763090835635E+04     3.3279E-04     6.5210E-06    -1.0205E-04
    6        -1.763090845413E+04     3.3279E-04     6.4048E-06    -9.7779E-05
Finished density kernel iterations (   6)

Writing density kernel to file "Cr2I6_bilayer_LT_FM_AFM_SP.dkn" ... done


>>> Density kernel optimised for the current NGWF basis:
     ~~~~~~~~~~~~~~~~~~~~~~~~~~~~~~~~~~~~~~~~~~~~~~~~~~~~~~~~~~~
     Total energy                =  -1.76309084541296E+04  Eh
     Estimated bandgap (UP spin) =  -1.0724E-02  Eh
     Estimated bandgap (DN spin) =   4.4803E-02  Eh
     RMS occupancy error         =   1.5727E-03
     [H,K] commutator            =   6.4048E-06
     UP spin occupancy bounds    = [  0.002:  1.002]
     DN spin occupancy bounds    = [ -0.000:  1.000]
     ~~~~~~~~~~~~~~~~~~~~~~~~~~~~~~~~~~~~~~~~~~~~~~~~~~~~~~~~~~~




################################################################################
########################### NGWF CG iteration  003 #############################
################################################################################

>>> Checking for convergence of NGWFs:   NOT CONVERGED
  ========================================================================
         NGWF RMS gradient =  1.3995E-05 >  1.0000E-06  | above tolerance
  Maximum change in energy =  1.4817E-05 >  1.0000E-07  | above tolerance
  ========================================================================

>>> Improving NGWFs using line search:
  ========================================================================
   Predicted total energy    =      -1.76309328497895E+04 Eh
   Predicted gain in energy  =      -2.43956599733792E-02 Eh
  ========================================================================

Writing NGWFs to file "Cr2I6_bilayer_LT_FM_AFM_SP.tightbox_ngwfs".... done

>>> Optimising kernel for current NGWFs:
   iter  |      energy (Eh)       | rms gradient |  commutator  |   dE (Eh)
    1        -1.763091555811E+04     3.3279E-04     7.5435E-06
    2        -1.763091567720E+04     3.3277E-04     7.1169E-06    -1.1909E-04
    3        -1.763091578759E+04     3.3275E-04     6.8062E-06    -1.1039E-04
    4        -1.763091589137E+04     3.3275E-04     6.5826E-06    -1.0378E-04
    5        -1.763091599007E+04     3.3274E-04     6.4228E-06    -9.8693E-05
    6        -1.763091608483E+04     3.3275E-04     6.3086E-06    -9.4763E-05
    7        -1.763091617655E+04     3.3275E-04     6.2266E-06    -9.1721E-05
Finished density kernel iterations (   7)

Writing density kernel to file "Cr2I6_bilayer_LT_FM_AFM_SP.dkn" ... done


>>> Density kernel optimised for the current NGWF basis:
     ~~~~~~~~~~~~~~~~~~~~~~~~~~~~~~~~~~~~~~~~~~~~~~~~~~~~~~~~~~~
     Total energy                =  -1.76309161765508E+04  Eh
     Estimated bandgap (UP spin) =  -1.0673E-02  Eh
     Estimated bandgap (DN spin) =   4.4785E-02  Eh
     RMS occupancy error         =   1.5727E-03
     [H,K] commutator            =   6.2266E-06
     UP spin occupancy bounds    = [  0.002:  1.002]
     DN spin occupancy bounds    = [  0.000:  1.000]
     ~~~~~~~~~~~~~~~~~~~~~~~~~~~~~~~~~~~~~~~~~~~~~~~~~~~~~~~~~~~




################################################################################
########################### NGWF CG iteration  004 #############################
################################################################################

>>> Checking for convergence of NGWFs:   NOT CONVERGED
  ========================================================================
         NGWF RMS gradient =  1.3926E-05 >  1.0000E-06  | above tolerance
  Maximum change in energy =  1.4100E-05 >  1.0000E-07  | above tolerance
  ========================================================================

>>> Improving NGWFs using line search:
  ========================================================================
   Predicted total energy    =      -1.76309401815681E+04 Eh
   Predicted gain in energy  =      -2.40050173561031E-02 Eh
  ========================================================================

Writing NGWFs to file "Cr2I6_bilayer_LT_FM_AFM_SP.tightbox_ngwfs".... done

>>> Optimising kernel for current NGWFs:
   iter  |      energy (Eh)       | rms gradient |  commutator  |   dE (Eh)
    1        -1.763092284388E+04     3.3272E-04     7.1112E-06
    2        -1.763092295209E+04     3.3271E-04     6.8021E-06    -1.0821E-04
    3        -1.763092305415E+04     3.3270E-04     6.5670E-06    -1.0207E-04
    4        -1.763092315139E+04     3.3270E-04     6.3895E-06    -9.7234E-05
    5        -1.763092324473E+04     3.3270E-04     6.2562E-06    -9.3342E-05
    6        -1.763092333494E+04     3.3270E-04     6.1562E-06    -9.0208E-05
    7        -1.763092342262E+04     3.3270E-04     6.0809E-06    -8.7683E-05
    8        -1.763092350808E+04     3.3269E-04     6.0293E-06    -8.5456E-05
Finished density kernel iterations (   8)

Writing density kernel to file "Cr2I6_bilayer_LT_FM_AFM_SP.dkn" ... done


>>> Density kernel optimised for the current NGWF basis:
     ~~~~~~~~~~~~~~~~~~~~~~~~~~~~~~~~~~~~~~~~~~~~~~~~~~~~~~~~~~~
     Total energy                =  -1.76309235080757E+04  Eh
     Estimated bandgap (UP spin) =  -1.0602E-02  Eh
     Estimated bandgap (DN spin) =   4.4799E-02  Eh
     RMS occupancy error         =   1.5727E-03
     [H,K] commutator            =   6.0293E-06
     UP spin occupancy bounds    = [  0.002:  1.002]
     DN spin occupancy bounds    = [  0.000:  1.000]
     ~~~~~~~~~~~~~~~~~~~~~~~~~~~~~~~~~~~~~~~~~~~~~~~~~~~~~~~~~~~




################################################################################
########################### NGWF CG iteration  005 #############################
################################################################################

>>> Checking for convergence of NGWFs:   NOT CONVERGED
  ========================================================================
         NGWF RMS gradient =  1.3858E-05 >  1.0000E-06  | above tolerance
  Maximum change in energy =  1.3407E-05 >  1.0000E-07  | above tolerance
  ========================================================================

>>> Improving NGWFs using line search:
  ========================================================================
   Predicted total energy    =      -1.76309465826787E+04 Eh
   Predicted gain in energy  =      -2.30746029446891E-02 Eh
  ========================================================================

Writing NGWFs to file "Cr2I6_bilayer_LT_FM_AFM_SP.tightbox_ngwfs".... done

>>> Optimising kernel for current NGWFs:
   iter  |      energy (Eh)       | rms gradient |  commutator  |   dE (Eh)
    1        -1.763092926703E+04     3.3267E-04     6.8869E-06
    2        -1.763092936766E+04     3.3266E-04     6.5288E-06    -1.0063E-04
    3        -1.763092946206E+04     3.3265E-04     6.3202E-06    -9.4392E-05
    4        -1.763092955208E+04     3.3265E-04     6.1819E-06    -9.0019E-05
    5        -1.763092963884E+04     3.3265E-04     6.0779E-06    -8.6765E-05
    6        -1.763092972310E+04     3.3265E-04     5.9983E-06    -8.4259E-05
    7        -1.763092980537E+04     3.3265E-04     5.9442E-06    -8.2275E-05
    8        -1.763092988634E+04     3.3265E-04     5.8644E-06    -8.0966E-05
    9        -1.763092996599E+04     3.3264E-04     5.8172E-06    -7.9649E-05
Finished density kernel iterations (   9)

Writing density kernel to file "Cr2I6_bilayer_LT_FM_AFM_SP.dkn" ... done


>>> Density kernel optimised for the current NGWF basis:
     ~~~~~~~~~~~~~~~~~~~~~~~~~~~~~~~~~~~~~~~~~~~~~~~~~~~~~~~~~~~
     Total energy                =  -1.76309299659890E+04  Eh
     Estimated bandgap (UP spin) =  -1.0533E-02  Eh
     Estimated bandgap (DN spin) =   4.4823E-02  Eh
     RMS occupancy error         =   1.5727E-03
     [H,K] commutator            =   5.8172E-06
     UP spin occupancy bounds    = [  0.002:  1.002]
     DN spin occupancy bounds    = [  0.000:  1.000]
     ~~~~~~~~~~~~~~~~~~~~~~~~~~~~~~~~~~~~~~~~~~~~~~~~~~~~~~~~~~~




################################################################################
########################### NGWF CG iteration  006 #############################
################################################################################

>>> Checking for convergence of NGWFs:   NOT CONVERGED
  ========================================================================
         NGWF RMS gradient =  1.3802E-05 >  1.0000E-06  | above tolerance
  Maximum change in energy =  1.2728E-05 >  1.0000E-07  | above tolerance
  ========================================================================

>>> Improving NGWFs using line search:
  ========================================================================
   Predicted total energy    =      -1.76309528835955E+04 Eh
   Predicted gain in energy  =      -2.29176064967760E-02 Eh
  ========================================================================

Writing NGWFs to file "Cr2I6_bilayer_LT_FM_AFM_SP.tightbox_ngwfs".... done

>>> Optimising kernel for current NGWFs:
   iter  |      energy (Eh)       | rms gradient |  commutator  |   dE (Eh)
    1        -1.763093543613E+04     3.3262E-04     6.5903E-06
    2        -1.763093552923E+04     3.3261E-04     6.3015E-06    -9.3100E-05
    3        -1.763093561704E+04     3.3260E-04     6.1017E-06    -8.7812E-05
    4        -1.763093570087E+04     3.3260E-04     5.9635E-06    -8.3836E-05
    5        -1.763093578168E+04     3.3260E-04     5.8665E-06    -8.0806E-05
    6        -1.763093586016E+04     3.3260E-04     5.7960E-06    -7.8483E-05
    7        -1.763093593684E+04     3.3260E-04     5.7423E-06    -7.6676E-05
    8        -1.763093601229E+04     3.3260E-04     5.6829E-06    -7.5447E-05
    9        -1.763093608670E+04     3.3260E-04     5.6400E-06    -7.4417E-05
   10        -1.763093616031E+04     3.3260E-04     5.6074E-06    -7.3607E-05
Finished density kernel iterations (  10)

Writing density kernel to file "Cr2I6_bilayer_LT_FM_AFM_SP.dkn" ... done


>>> Density kernel optimised for the current NGWF basis:
     ~~~~~~~~~~~~~~~~~~~~~~~~~~~~~~~~~~~~~~~~~~~~~~~~~~~~~~~~~~~
     Total energy                =  -1.76309361603094E+04  Eh
     Estimated bandgap (UP spin) =  -1.0443E-02  Eh
     Estimated bandgap (DN spin) =   4.4731E-02  Eh
     RMS occupancy error         =   1.5727E-03
     [H,K] commutator            =   5.6074E-06
     UP spin occupancy bounds    = [  0.002:  1.002]
     DN spin occupancy bounds    = [  0.000:  1.000]
     ~~~~~~~~~~~~~~~~~~~~~~~~~~~~~~~~~~~~~~~~~~~~~~~~~~~~~~~~~~~




################################################################################
########################### NGWF CG iteration  007 #############################
################################################################################

>>> Checking for convergence of NGWFs:   NOT CONVERGED
[...]
   12        -1.763100727124E+04     3.3191E-04     3.3294E-06    -2.2773E-05
   13        -1.763100729391E+04     3.3191E-04     3.3262E-06    -2.2666E-05
   14        -1.763100731658E+04     3.3191E-04     3.3314E-06    -2.2673E-05
   15        -1.763100733922E+04     3.3191E-04     3.3220E-06    -2.2636E-05
Finished density kernel iterations (  15)

Writing density kernel to file "Cr2I6_bilayer_LT_FM_AFM_SP.dkn" ... done


>>> Density kernel optimised for the current NGWF basis:
     ~~~~~~~~~~~~~~~~~~~~~~~~~~~~~~~~~~~~~~~~~~~~~~~~~~~~~~~~~~~
     Total energy                =  -1.76310073392159E+04  Eh
     Estimated bandgap (UP spin) =  -8.9036E-03  Eh
     Estimated bandgap (DN spin) =   4.4635E-02  Eh
     RMS occupancy error         =   1.5727E-03
     [H,K] commutator            =   3.3220E-06
     UP spin occupancy bounds    = [  0.002:  1.002]
     DN spin occupancy bounds    = [ -0.000:  1.000]
     ~~~~~~~~~~~~~~~~~~~~~~~~~~~~~~~~~~~~~~~~~~~~~~~~~~~~~~~~~~~




################################################################################
########################### NGWF CG iteration  028 #############################
################################################################################

>>> Checking for convergence of NGWFs:   NOT CONVERGED
  ========================================================================
         NGWF RMS gradient =  1.3187E-05 >  1.0000E-06  | above tolerance
  Maximum change in energy =  3.2771E-06 >  1.0000E-07  | above tolerance
  ========================================================================

>>> Improving NGWFs using line search:
  ========================================================================
   Predicted total energy    =      -1.76310265786686E+04 Eh
   Predicted gain in energy  =      -1.92394526820863E-02 Eh
  ========================================================================

Writing NGWFs to file "Cr2I6_bilayer_LT_FM_AFM_SP.tightbox_ngwfs".... done

>>> Optimising kernel for current NGWFs:
   iter  |      energy (Eh)       | rms gradient |  commutator  |   dE (Eh)
    1        -1.763100876566E+04     3.3188E-04     3.6328E-06
    2        -1.763100879072E+04     3.3188E-04     3.4994E-06    -2.5058E-05
    3        -1.763100881460E+04     3.3188E-04     3.4352E-06    -2.3885E-05
    4        -1.763100883777E+04     3.3188E-04     3.3957E-06    -2.3168E-05
    5        -1.763100886046E+04     3.3189E-04     3.3702E-06    -2.2690E-05
    6        -1.763100888283E+04     3.3189E-04     3.3534E-06    -2.2364E-05
    7        -1.763100890496E+04     3.3189E-04     3.3422E-06    -2.2136E-05
    8        -1.763100892751E+04     3.3189E-04     3.3170E-06    -2.2553E-05
    9        -1.763100894986E+04     3.3189E-04     3.3218E-06    -2.2347E-05
   10        -1.763100897213E+04     3.3189E-04     3.3089E-06    -2.2269E-05
   11        -1.763100899431E+04     3.3189E-04     3.2956E-06    -2.2176E-05
   12        -1.763100901638E+04     3.3189E-04     3.2929E-06    -2.2076E-05
   13        -1.763100903837E+04     3.3189E-04     3.2874E-06    -2.1988E-05
   14        -1.763100906037E+04     3.3189E-04     3.2839E-06    -2.2004E-05
   15        -1.763100908231E+04     3.3189E-04     3.2667E-06    -2.1938E-05
Finished density kernel iterations (  15)

Writing density kernel to file "Cr2I6_bilayer_LT_FM_AFM_SP.dkn" ... done


>>> Density kernel optimised for the current NGWF basis:
     ~~~~~~~~~~~~~~~~~~~~~~~~~~~~~~~~~~~~~~~~~~~~~~~~~~~~~~~~~~~
     Total energy                =  -1.76310090823124E+04  Eh
     Estimated bandgap (UP spin) =  -8.8512E-03  Eh
     Estimated bandgap (DN spin) =   4.4686E-02  Eh
     RMS occupancy error         =   1.5727E-03
     [H,K] commutator            =   3.2667E-06
     UP spin occupancy bounds    = [  0.002:  1.002]
     DN spin occupancy bounds    = [  0.000:  1.000]
     ~~~~~~~~~~~~~~~~~~~~~~~~~~~~~~~~~~~~~~~~~~~~~~~~~~~~~~~~~~~




################################################################################
########################### NGWF CG iteration  029 #############################
################################################################################

>>> Checking for convergence of NGWFs:   NOT CONVERGED
  ========================================================================
         NGWF RMS gradient =  1.3175E-05 >  1.0000E-06  | above tolerance
  Maximum change in energy =  3.1518E-06 >  1.0000E-07  | above tolerance
  ========================================================================

>>> Improving NGWFs using line search:
  ========================================================================
   Predicted total energy    =      -1.76310281178183E+04 Eh
   Predicted gain in energy  =      -1.90355058730347E-02 Eh
  ========================================================================

Writing NGWFs to file "Cr2I6_bilayer_LT_FM_AFM_SP.tightbox_ngwfs".... done

>>> Optimising kernel for current NGWFs:
   iter  |      energy (Eh)       | rms gradient |  commutator  |   dE (Eh)
    1        -1.763101038317E+04     3.3186E-04     3.6159E-06
    2        -1.763101040760E+04     3.3186E-04     3.4487E-06    -2.4435E-05
    3        -1.763101043068E+04     3.3186E-04     3.3733E-06    -2.3077E-05
    4        -1.763101045301E+04     3.3186E-04     3.3457E-06    -2.2336E-05
    5        -1.763101047494E+04     3.3187E-04     3.3298E-06    -2.1931E-05
    6        -1.763101049663E+04     3.3187E-04     3.3239E-06    -2.1682E-05
    7        -1.763101051815E+04     3.3187E-04     3.3158E-06    -2.1520E-05
    8        -1.763101054019E+04     3.3187E-04     3.2704E-06    -2.2038E-05
    9        -1.763101056190E+04     3.3187E-04     3.2590E-06    -2.1714E-05
   10        -1.763101058346E+04     3.3187E-04     3.2615E-06    -2.1563E-05
   11        -1.763101060494E+04     3.3187E-04     3.2599E-06    -2.1474E-05
   12        -1.763101062634E+04     3.3187E-04     3.2642E-06    -2.1405E-05
   13        -1.763101064769E+04     3.3187E-04     3.2585E-06    -2.1352E-05
   14        -1.763101066913E+04     3.3187E-04     3.2275E-06    -2.1438E-05
   15        -1.763101069040E+04     3.3187E-04     3.2261E-06    -2.1265E-05
Finished density kernel iterations (  15)

Writing density kernel to file "Cr2I6_bilayer_LT_FM_AFM_SP.dkn" ... done


>>> Density kernel optimised for the current NGWF basis:
     ~~~~~~~~~~~~~~~~~~~~~~~~~~~~~~~~~~~~~~~~~~~~~~~~~~~~~~~~~~~
     Total energy                =  -1.76310106903953E+04  Eh
     Estimated bandgap (UP spin) =  -8.8121E-03  Eh
     Estimated bandgap (DN spin) =   4.4734E-02  Eh
     RMS occupancy error         =   1.5727E-03
     [H,K] commutator            =   3.2261E-06
     UP spin occupancy bounds    = [  0.002:  1.002]
     DN spin occupancy bounds    = [ -0.000:  1.000]
     ~~~~~~~~~~~~~~~~~~~~~~~~~~~~~~~~~~~~~~~~~~~~~~~~~~~~~~~~~~~




################################################################################
########################### NGWF CG iteration  030 #############################
################################################################################

>>> Checking for convergence of NGWFs:   NOT CONVERGED
  ========================================================================
         NGWF RMS gradient =  1.3165E-05 >  1.0000E-06  | above tolerance
  Maximum change in energy =  3.0262E-06 >  1.0000E-07  | above tolerance
  ========================================================================

>>> Improving NGWFs using line search:
  ========================================================================
   Predicted total energy    =      -1.76310297523225E+04 Eh
   Predicted gain in energy  =      -1.90619271706964E-02 Eh
  ========================================================================

Writing NGWFs to file "Cr2I6_bilayer_LT_FM_AFM_SP.tightbox_ngwfs".... done

>>> Optimising kernel for current NGWFs:
   iter  |      energy (Eh)       | rms gradient |  commutator  |   dE (Eh)
    1        -1.763101194618E+04     3.3184E-04     3.5631E-06
    2        -1.763101196986E+04     3.3184E-04     3.3823E-06    -2.3683E-05
    3        -1.763101199222E+04     3.3184E-04     3.3305E-06    -2.2358E-05
    4        -1.763101201393E+04     3.3184E-04     3.3024E-06    -2.1713E-05
    5        -1.763101203526E+04     3.3184E-04     3.2812E-06    -2.1334E-05
    6        -1.763101205634E+04     3.3185E-04     3.2649E-06    -2.1079E-05
    7        -1.763101207724E+04     3.3185E-04     3.2509E-06    -2.0893E-05
    8        -1.763101209851E+04     3.3185E-04     3.2291E-06    -2.1269E-05
    9        -1.763101211958E+04     3.3185E-04     3.2188E-06    -2.1078E-05
   10        -1.763101214055E+04     3.3185E-04     3.2149E-06    -2.0966E-05
   11        -1.763101216143E+04     3.3185E-04     3.2140E-06    -2.0878E-05
   12        -1.763101218223E+04     3.3185E-04     3.2097E-06    -2.0805E-05
   13        -1.763101220297E+04     3.3185E-04     3.1995E-06    -2.0734E-05
   14        -1.763101222372E+04     3.3185E-04     3.1917E-06    -2.0752E-05
   15        -1.763101224440E+04     3.3185E-04     3.1807E-06    -2.0678E-05
Finished density kernel iterations (  15)

Writing density kernel to file "Cr2I6_bilayer_LT_FM_AFM_SP.dkn" ... done


>>> Density kernel optimised for the current NGWF basis:
     ~~~~~~~~~~~~~~~~~~~~~~~~~~~~~~~~~~~~~~~~~~~~~~~~~~~~~~~~~~~
     Total energy                =  -1.76310122443950E+04  Eh
     Estimated bandgap (UP spin) =  -8.7573E-03  Eh
     Estimated bandgap (DN spin) =   4.4808E-02  Eh
     RMS occupancy error         =   1.5727E-03
     [H,K] commutator            =   3.1807E-06
     UP spin occupancy bounds    = [  0.002:  1.002]
     DN spin occupancy bounds    = [  0.000:  1.000]
     ~~~~~~~~~~~~~~~~~~~~~~~~~~~~~~~~~~~~~~~~~~~~~~~~~~~~~~~~~~~




################################################################################
########################### NGWF CG iteration  031 #############################
################################################################################

>>> Checking for convergence of NGWFs:   NOT CONVERGED
  ========================================================================
         NGWF RMS gradient =  1.3154E-05 >  1.0000E-06  | above tolerance
  Maximum change in energy =  2.7918E-06 >  1.0000E-07  | above tolerance
  ========================================================================

>>> Improving NGWFs using line search:
  ========================================================================
   Predicted total energy    =      -1.76310312876061E+04 Eh
   Predicted gain in energy  =      -1.90432110575784E-02 Eh
  ========================================================================

Writing NGWFs to file "Cr2I6_bilayer_LT_FM_AFM_SP.tightbox_ngwfs".... done

>>> Optimising kernel for current NGWFs:
   iter  |      energy (Eh)       | rms gradient |  commutator  |   dE (Eh)
    1        -1.763101345313E+04     3.3182E-04     3.5259E-06
    2        -1.763101347624E+04     3.3182E-04     3.3395E-06    -2.3113E-05
    3        -1.763101349799E+04     3.3182E-04     3.2877E-06    -2.1751E-05
    4        -1.763101351909E+04     3.3182E-04     3.2612E-06    -2.1101E-05
    5        -1.763101353982E+04     3.3182E-04     3.2404E-06    -2.0734E-05
    6        -1.763101356031E+04     3.3182E-04     3.2255E-06    -2.0490E-05
    7        -1.763101358063E+04     3.3183E-04     3.2071E-06    -2.0312E-05
    8        -1.763101360131E+04     3.3182E-04     3.1871E-06    -2.0681E-05
    9        -1.763101362180E+04     3.3182E-04     3.1716E-06    -2.0492E-05
   10        -1.763101364216E+04     3.3182E-04     3.1817E-06    -2.0364E-05
   11        -1.763101366246E+04     3.3182E-04     3.1748E-06    -2.0296E-05
   12        -1.763101368269E+04     3.3182E-04     3.1711E-06    -2.0233E-05
   13        -1.763101370287E+04     3.3182E-04     3.1627E-06    -2.0173E-05
   14        -1.763101372308E+04     3.3182E-04     3.1467E-06    -2.0217E-05
   15        -1.763101374319E+04     3.3182E-04     3.1397E-06    -2.0110E-05
Finished density kernel iterations (  15)

Writing density kernel to file "Cr2I6_bilayer_LT_FM_AFM_SP.dkn" ... done


>>> Density kernel optimised for the current NGWF basis:
     ~~~~~~~~~~~~~~~~~~~~~~~~~~~~~~~~~~~~~~~~~~~~~~~~~~~~~~~~~~~
     Total energy                =  -1.76310137431944E+04  Eh
     Estimated bandgap (UP spin) =  -8.7240E-03  Eh
     Estimated bandgap (DN spin) =   4.4690E-02  Eh
     RMS occupancy error         =   1.5727E-03
     [H,K] commutator            =   3.1397E-06
     UP spin occupancy bounds    = [  0.002:  1.002]
     DN spin occupancy bounds    = [  0.000:  1.000]
     ~~~~~~~~~~~~~~~~~~~~~~~~~~~~~~~~~~~~~~~~~~~~~~~~~~~~~~~~~~~




################################################################################
########################### NGWF CG iteration  032 #############################
################################################################################

>>> Checking for convergence of NGWFs:   NOT CONVERGED
  ========================================================================
         NGWF RMS gradient =  1.3144E-05 >  1.0000E-06  | above tolerance
  Maximum change in energy =  2.6979E-06 >  1.0000E-07  | above tolerance
  ========================================================================

>>> Improving NGWFs using line search:
  ========================================================================
   Predicted total energy    =      -1.76310327329170E+04 Eh
   Predicted gain in energy  =      -1.89897225973255E-02 Eh
  ========================================================================

Writing NGWFs to file "Cr2I6_bilayer_LT_FM_AFM_SP.tightbox_ngwfs".... done

>>> Optimising kernel for current NGWFs:
   iter  |      energy (Eh)       | rms gradient |  commutator  |   dE (Eh)
    1        -1.763101490418E+04     3.3180E-04     3.4729E-06
    2        -1.763101492662E+04     3.3180E-04     3.2926E-06    -2.2445E-05
    3        -1.763101494778E+04     3.3180E-04     3.2425E-06    -2.1155E-05
    4        -1.763101496831E+04     3.3180E-04     3.2198E-06    -2.0527E-05
    5        -1.763101498848E+04     3.3180E-04     3.1981E-06    -2.0173E-05
    6        -1.763101500842E+04     3.3180E-04     3.1817E-06    -1.9936E-05
    7        -1.763101502818E+04     3.3181E-04     3.1700E-06    -1.9762E-05
    8        -1.763101504833E+04     3.3180E-04     3.1458E-06    -2.0150E-05
    9        -1.763101506828E+04     3.3180E-04     3.1303E-06    -1.9954E-05
   10        -1.763101508812E+04     3.3180E-04     3.1251E-06    -1.9835E-05
   11        -1.763101510786E+04     3.3180E-04     3.1255E-06    -1.9744E-05
   12        -1.763101512754E+04     3.3180E-04     3.1218E-06    -1.9674E-05
   13        -1.763101514715E+04     3.3180E-04     3.1192E-06    -1.9611E-05
   14        -1.763101516682E+04     3.3180E-04     3.1111E-06    -1.9678E-05
   15        -1.763101518642E+04     3.3180E-04     3.0977E-06    -1.9595E-05
Finished density kernel iterations (  15)

Writing density kernel to file "Cr2I6_bilayer_LT_FM_AFM_SP.dkn" ... done


>>> Density kernel optimised for the current NGWF basis:
     ~~~~~~~~~~~~~~~~~~~~~~~~~~~~~~~~~~~~~~~~~~~~~~~~~~~~~~~~~~~
     Total energy                =  -1.76310151864196E+04  Eh
     Estimated bandgap (UP spin) =  -8.6657E-03  Eh
     Estimated bandgap (DN spin) =   4.4636E-02  Eh
     RMS occupancy error         =   1.5727E-03
     [H,K] commutator            =   3.0977E-06
     UP spin occupancy bounds    = [  0.002:  1.002]
     DN spin occupancy bounds    = [ -0.000:  1.000]
     ~~~~~~~~~~~~~~~~~~~~~~~~~~~~~~~~~~~~~~~~~~~~~~~~~~~~~~~~~~~




################################################################################
########################### NGWF CG iteration  033 #############################
################################################################################

>>> Checking for convergence of NGWFs:   NOT CONVERGED
  ========================================================================
         NGWF RMS gradient =  1.3135E-05 >  1.0000E-06  | above tolerance
  Maximum change in energy =  2.6021E-06 >  1.0000E-07  | above tolerance
  ========================================================================

>>> Improving NGWFs using line search:
  ========================================================================
   Predicted total energy    =      -1.76310340059049E+04 Eh
   Predicted gain in energy  =      -1.88194852635206E-02 Eh
  ========================================================================

Writing NGWFs to file "Cr2I6_bilayer_LT_FM_AFM_SP.tightbox_ngwfs".... done

>>> Optimising kernel for current NGWFs:
   iter  |      energy (Eh)       | rms gradient |  commutator  |   dE (Eh)
    1        -1.763101625253E+04     3.3178E-04     3.4182E-06
    2        -1.763101627431E+04     3.3178E-04     3.2290E-06    -2.1774E-05
    3        -1.763101629482E+04     3.3178E-04     3.1834E-06    -2.0507E-05
    4        -1.763101631474E+04     3.3178E-04     3.1661E-06    -1.9921E-05
    5        -1.763101633434E+04     3.3178E-04     3.1672E-06    -1.9600E-05
    6        -1.763101635375E+04     3.3178E-04     3.1555E-06    -1.9418E-05
    7        -1.763101637304E+04     3.3178E-04     3.1276E-06    -1.9283E-05
    8        -1.763101639266E+04     3.3178E-04     3.1067E-06    -1.9623E-05
    9        -1.763101641209E+04     3.3178E-04     3.0812E-06    -1.9435E-05
   10        -1.763101643139E+04     3.3178E-04     3.0826E-06    -1.9294E-05
   11        -1.763101645060E+04     3.3178E-04     3.0925E-06    -1.9211E-05
   12        -1.763101646976E+04     3.3178E-04     3.0909E-06    -1.9163E-05
   13        -1.763101648888E+04     3.3178E-04     3.0864E-06    -1.9116E-05
   14        -1.763101650809E+04     3.3178E-04     3.0679E-06    -1.9211E-05
   15        -1.763101652718E+04     3.3178E-04     3.0585E-06    -1.9087E-05
Finished density kernel iterations (  15)

Writing density kernel to file "Cr2I6_bilayer_LT_FM_AFM_SP.dkn" ... done


>>> Density kernel optimised for the current NGWF basis:
     ~~~~~~~~~~~~~~~~~~~~~~~~~~~~~~~~~~~~~~~~~~~~~~~~~~~~~~~~~~~
     Total energy                =  -1.76310165271782E+04  Eh
     Estimated bandgap (UP spin) =  -8.6231E-03  Eh
     Estimated bandgap (DN spin) =   4.4670E-02  Eh
     RMS occupancy error         =   1.5727E-03
     [H,K] commutator            =   3.0585E-06
     UP spin occupancy bounds    = [  0.002:  1.002]
     DN spin occupancy bounds    = [ -0.000:  1.000]
     ~~~~~~~~~~~~~~~~~~~~~~~~~~~~~~~~~~~~~~~~~~~~~~~~~~~~~~~~~~~




################################################################################
########################### NGWF CG iteration  034 #############################
################################################################################

>>> Checking for convergence of NGWFs:   NOT CONVERGED
  ========================================================================
         NGWF RMS gradient =  1.3127E-05 >  1.0000E-06  | above tolerance
  Maximum change in energy =  2.5056E-06 >  1.0000E-07  | above tolerance
  ========================================================================

>>> Improving NGWFs using line search:
  ========================================================================
   Predicted total energy    =      -1.76310353788744E+04 Eh
   Predicted gain in energy  =      -1.88516962880385E-02 Eh
  ========================================================================

Writing NGWFs to file "Cr2I6_bilayer_LT_FM_AFM_SP.tightbox_ngwfs".... done

>>> Optimising kernel for current NGWFs:
   iter  |      energy (Eh)       | rms gradient |  commutator  |   dE (Eh)
    1        -1.763101755741E+04     3.3176E-04     3.3771E-06
    2        -1.763101757866E+04     3.3176E-04     3.1897E-06    -2.1249E-05
    3        -1.763101759868E+04     3.3176E-04     3.1502E-06    -2.0018E-05
    4        -1.763101761814E+04     3.3176E-04     3.1204E-06    -1.9461E-05
