==================================================================================
It's Mon 28 Apr 2025 12:19:08 PM BST.
*** Starting onetep_launcher (node nid001527, PIDs 210658 210659 210660 210661 210662 210663)...
    - ONETEP arguments: Cr2I6_bilayer_LT_FM_AFM_nSP.dat
    - Current directory: /mnt/lustre/a2fs-work3/work/e89/e89/phsmea/CrI3_onetep_U/U_2.97/LT_FM/LT_FM_AFM_J/nsp
    - Launcher executable directory: /mnt/lustre/a2fs-work3/work/e89/e89/phsmea/CrI3_onetep_U/U_2.97/LT_FM/LT_FM_AFM_J/nsp
    - (-e) ONETEP executable specified through command-line: /work/e89/e89/phsmea/onetep.archer2_2024_cray
      ... trying /work/e89/e89/phsmea/onetep.archer2_2024_cray
          -> looks OK
*** Setting up environment...
    - (-s) Process stack size: unlimited
    - (-t) OMP_NUM_THREADS: 16
    - (-o) OMP_STACKSIZE: 64M
    - (-c) Maximum core file size: 2048000
    - (-d) decfort_dump_flag: n
    - (-m) I_MPI_OFA_TRANSLATION_CACHE: 0
    - (-m) I_MPI_DAPL_TRANSLATION_CACHE: 0
    - (-m) I_MPI_DAPL_UD_TRANSLATION_CACHE: 0
*** Starting ONETEP...
    - /work/e89/e89/phsmea/onetep.archer2_2024_cray Cr2I6_bilayer_LT_FM_AFM_nSP.dat
=================================================================================
_________________________________________________________________________________
 +---------------------------------------------------------------+
 |                                                               |
 |        ####### #     # ####### ####### ####### ######         |
 |        #     # ##    # #          #    #       #     #        |
 |        #     # # #   # #          #    #       #     #        |
 |        #     # #  #  # #####      #    #####   ######         |
 |        #     # #   # # #          #    #       #              |
 |        #     # #    ## #          #    #       #              |
 |        ####### #     # #######    #    ####### #              |
 |                                                               |
 |        Linear-Scaling Ab Initio Total Energy Program          |
 |                                                               |
 |          Release for academic collaborators of ODG            |
 |                                             Version 7.3.0     |
 | Remote: git@github.com:Miesaz/onetep_mea.git                  |
 | Local branch: master                                          |
 | Commit ID: 4af45e89288c8df5499704252eec3e032ee3d0c8           |
 | Date: Tue Aug 6 11:28:44 2024 +0100                           |
 | Working tree clean                                            |
 |                                                               |
 +---------------------------------------------------------------+
 |                                                               |
 |  Authors:                                                     |
 |  Jacek Dziedzic, Peter D. Haynes, Nicholas D. M. Hine,        |
 |  Arash A. Mostofi, Mike C. Payne and Chris-Kriton Skylaris    |
 |                                                               |
 |  Contributors:                                                |
 |  J. Aarons, L. Andrinopoulos, P. W. Avraam, R. A. Bell,       |
 |  A. Bhandari, G. A. Bramley, R. J. Charlton, S. J. Clark,     |
 |  R. J. Clements, G. C. Constantinescu, F. Corsetti,           |
 |  N. Corsini, O. Dieguez, S. M. M. Dubois, K. K. B. Duff,      |
 |  J. M. Escartin, M. Escobar Azor, A. Greco,                   |
 |  H. Helal, Q. O. Hill, L. P. Lee, J.-H. Li,                   |
 |  T. Li, E. B. Linscott, G. Moynihan, D. D. O`Regan,           |
 |  O. K. Okan, E. Parkinson, M. J. S. Phipps,                   |
 |  C. J. Pickard, J. C. A. Prentice, M. I. J. Probert,          |
 |  L. E. Ratcliff, M. Robinson, A. Ruiz Serrano,                |
 |  M. dos Santos Dias, J. S. Spencer, E. W. Tait,               |
 |  G. Teobaldi, D. Turban, V. Vitale, K. A. Wilkinson,          |
 |  C. Weber, J. C. Womack, Chengcheng Xiao, N. Yeung,           |
 |  and T. J. Zuehlsdorff.                                       |
 |                                                               |
 |                                   Copyright (c) 2004-2024     |
 |                                                               |
 |  Please cite:                                                 |
 |  "The ONETEP linear-scaling density functional theory program"|
 |   J. Chem. Phys. 152(17) 174111 (2020)                        |
 |                                                               |
 |          in all publications arising from your use of ONETEP. |
 |                                                               |
 +---------------------------------------------------------------+
 |                                                               |
 |   ONETEP is based on developments described in the following  |
 |   publications:                                               |
 |                                                               |
 |  "Nonorthogonal generalized Wannier function pseudopotential  |
 |   plane-wave method".                                         |
 |   C.-K. Skylaris, A. A. Mostofi, P. D. Haynes, O. Dieguez,    |
 |   M. C. Payne.                                                |
 |   Phys. Rev. B 66 035119 (2002).                              |
 |                                                               |
 |  "Preconditioned iterative minimization for linear-scaling    |
 |   electronic structure calculations".                         |
 |   A. A. Mostofi, P. D. Haynes, C.-K. Skylaris, M. C. Payne.   |
 |   J. Chem. Phys. 119(17), pp.8842-8848 (2003).                |
 |                                                               |
 |  "Total-energy calculations on a real space grid with         |
 |   localized functions and a plane-wave basis".                |
 |   A. A. Mostofi, C.-K. Skylaris, P. D. Haynes, M. C. Payne.   |
 |   Comput. Phys. Commun. 147, pp.788-802 (2002).               |
 |                                                               |
 |  "Accurate kinetic energy evaluation in electronic structure  |
 |   calculations with localized functions on real space grids"  |
 |   C.-K. Skylaris, A. A. Mostofi, P. D. Haynes, C. J. Pickard, |
 |   M. C. Payne.                                                |
 |   Comput. Phys. Commun. 140, pp.315-322 (2001).               |
 |                                                               |
 |  "Accurate ionic forces and geometry optimization in linear-  |
 |   scaling density-functional theory with local orbitals"      |
 |   N. D. M. Hine, M. Robinson, P. D. Haynes, C.-K. Skylaris,   |
 |   M. C. Payne, and A. A. Mostofi.                             |
 |   Phys. Rev. B 83 195102 (2011).                              |
 |                                                               |
 +---------------------------------------------------------------+

Job started: 28-04-2025 12:19 (+0100)
 
Reading parameters from file "Cr2I6_bilayer_LT_FM_AFM_nSP.dat" ...... done

If your calculation crashes here, before "Checking processes and threads..."
is displayed, then your stack size is insufficient.
If so, use "ulimit -s unlimited" at runtime.
You can disable this check with "check_stack_size F".

Checking processes and threads...
      Default threads: 16
   Running with 150 MPI processes.
   There are 6 MPI processes running on the same node as the root process.
   Each MPI process is using: 
               1 threads for simulation cell FFTs.
               1 threads for threaded FFT box operations.
              16 threads for loops over batched FFT box operations.
              16 threads in other parallel regions.
   MPI Interface: S1 (use mpi_f08) (-DMPI -DUSE_MPI_F08).
   MPI_ASYNC_PROTECTS_NONBLOCKING: Yes. MPI_SUBARRAYS_SUPPORTED: Yes.
   FFTW Interface: OMP-capable and MODERN. (-DUSE_MODERN_FFTW specified).
   GPU Interface: None.
   GPU FFT Backend: None.
... done

Basic input checks...... done

Reading geometry and species blocks from file "Cr2I6_bilayer_LT_FM_AFM_nSP.dat" ...... done


--------------------------------------------------------------------------------
---------------------------------- INPUT FILE ----------------------------------
--------------------------------------------------------------------------------

charge : 0                                                                      
cutoff_energy : 1000 eV                                                         
delta_e_conv : F                                                                
do_properties : T                                                               
edft : F                                                                        
edft_init_maxit : 15                                                            
elec_energy_tol : 1e-07 Ha                                                      
fine_grid_scale : 4                                                             
forces_output_detail : VERBOSE                                                  
MAXIT_LNV     : 15                                                              
MINIT_LNV     : 5                                                               
maxit_ngwf_cg : 100                                                             
ngwf_threshold_orig : 1e-06                                                     
ngwfs_spin_polarized : F                                                        
output_detail : NORMAL                                                          
paw : T                                                                         
read_denskern : F                                                               
read_hamiltonian : F                                                            
read_tightbox_ngwfs : F                                                         
spin : 0                                                                        
spin_polarized : T                                                              
task : SinglePoint                                                              
write_denskern : T                                                              
write_forces : T                                                                
write_hamiltonian : T                                                           
write_tightbox_ngwfs : T                                                        
xc_functional : PBE                                                             
%BLOCK LATTICE_CART                                                             
ang                                                                             
41.261892132    0.000000000    0.000000000                                      
-20.630946066   35.733846792    0.000000000                                     
0.000000000    0.000000000   27.507928088                                       
%ENDBLOCK LATTICE_CART                                                          
%BLOCK POSITIONS_ABS                                                            
ang                                                                             
Cr       2.29230603       3.97040895      17.03520929                           
Cr      -1.14615438       5.95565340      17.04368562                           
I        3.29127824       1.97929933      15.50172901                           
I        0.06846335       4.10088269      15.50172980                           
I       -3.35976942       5.83112629      15.50174515                           
I        1.29815293       1.98813153      18.57647573                           
I        1.07268127       5.82255136      18.57647595                           
I       -2.37086124       4.10061929      18.57646027                           
Cr      5.73080703       1.98523473      10.46423698                            
Cr      2.29229229       3.97042256      10.47271549                            
I        6.72497778      -0.00289519       8.93147663                           
I        3.51196949       2.11831465       8.93145308                           
I        0.07849930       3.84024628       8.93144278                           
I        4.73186155       0.00594958      12.00619783                           
I        4.51617900       3.83998833      12.00619302                           
I        1.06740595       2.10972815      12.00620106                           
Cr      -1.14618498       9.92605008      17.03520929                           
Cr      -4.58464539      11.91129453      17.04368562                           
I       -0.14721277       7.93494046      15.50172901                           
I       -3.37002766      10.05652383      15.50172980                           
I       -6.79826043      11.78676742      15.50174515                           
I       -2.14033808       7.94377266      18.57647573                           
I       -2.36580974      11.77819249      18.57647595                           
I       -5.80935225      10.05626043      18.57646027                           
Cr      2.29231601       7.94087586      10.46423698                            
Cr     -1.14619872       9.92606369      10.47271549                            
I        3.28648677       5.95274594       8.93147663                           
I        0.07347848       8.07395578       8.93145308                           
I       -3.35999171       9.79588741       8.93144278                           
I        1.29337054       5.96159071      12.00619783                           
I        1.07768799       9.79562946      12.00619302                           
I       -2.37108506       8.06536928      12.00620106                           
Cr      -4.58467600      15.88169122      17.03520929                           
Cr      -8.02313640      17.86693567      17.04368562                           
I       -3.58570378      13.89058160      15.50172901                           
I       -6.80851867      16.01216496      15.50172980                           
I      -10.23675144      17.74240855      15.50174515                           
I       -5.57882909      13.89941380      18.57647573                           
I       -5.80430075      17.73383362      18.57647595                           
I       -9.24784326      16.01190156      18.57646027                           
Cr     -1.14617500      13.89651700      10.46423698                            
Cr     -4.58468973      15.88170482      10.47271549                            
I       -0.15200424      11.90838708       8.93147663                           
I       -3.36501253      14.02959691       8.93145308                           
I       -6.79848272      15.75152855       8.93144278                           
I       -2.14512047      11.91723184      12.00619783                           
I       -2.36080302      15.75127059      12.00619302                           
I       -5.80957607      14.02101041      12.00620106                           
Cr      -8.02316701      21.83733235      17.03520929                           
Cr     -11.46162741      23.82257680      17.04368562                           
I       -7.02419479      19.84622273      15.50172901                           
I      -10.24700968      21.96780609      15.50172980                           
I      -13.67524245      23.69804968      15.50174515                           
I       -9.01732010      19.85505493      18.57647573                           
I       -9.24279176      23.68947476      18.57647595                           
I      -12.68633427      21.96754269      18.57646027                           
Cr     -4.58466601      19.85215813      10.46423698                            
Cr     -8.02318074      21.83734595      10.47271549                            
I       -3.59049526      17.86402821       8.93147663                           
I       -6.80350354      19.98523804       8.93145308                           
I      -10.23697373      21.70716968       8.93144278                           
I       -5.58361148      17.87287297      12.00619783                           
I       -5.79929403      21.70691172      12.00619302                           
I       -9.24806708      19.97665154      12.00620106                           
Cr     -11.46165802      27.79297348      17.03520929                           
Cr     -14.90011843      29.77821793      17.04368562                           
I      -10.46268580      25.80186386      15.50172901                           
I      -13.68550069      27.92344722      15.50172980                           
I      -17.11373346      29.65369082      15.50174515                           
I      -12.45581112      25.81069606      18.57647573                           
I      -12.68128277      29.64511589      18.57647595                           
I      -16.12482528      27.92318382      18.57646027                           
Cr     -8.02315702      25.80779926      10.46423698                            
Cr    -11.46167176      27.79298708      10.47271549                            
I       -7.02898627      23.81966934       8.93147663                           
I      -10.24199455      25.94087917       8.93145308                           
I      -13.67546474      27.66281081       8.93144278                           
I       -9.02210249      23.82851411      12.00619783                           
I       -9.23778504      27.66255286      12.00619302                           
I      -12.68655809      25.93229268      12.00620106                           
Cr     -14.90014903      33.74861461      17.03520929                           
Cr     -18.33860944      35.73385906      17.04368562                           
I      -13.90117681      31.75750499      15.50172901                           
I      -17.12399170      33.87908835      15.50172980                           
I      -20.55222447      35.60933195      15.50174515                           
I      -15.89430213      31.76633719      18.57647573                           
I      -16.11977378      35.60075702      18.57647595                           
I      -19.56331629      33.87882495      18.57646027                           
Cr    -11.46164803      31.76344039      10.46423698                            
Cr    -14.90016277      33.74862822      10.47271549                            
I      -10.46747728      29.77531047       8.93147663                           
I      -13.68048556      31.89652031       8.93145308                           
I      -17.11395575      33.61845194       8.93144278                           
I      -12.46059350      29.78415524      12.00619783                           
I      -12.67627606      33.61819399      12.00619302                           
I      -16.12504910      31.88793381      12.00620106                           
Cr       9.16928805       3.97040895      17.03520929                           
Cr       5.73082764       5.95565340      17.04368562                           
I       10.16826026       1.97929933      15.50172901                           
I        6.94544538       4.10088269      15.50172980                           
I        3.51721261       5.83112629      15.50174515                           
I        8.17513495       1.98813153      18.57647573                           
I        7.94966330       5.82255136      18.57647595                           
I        4.50612079       4.10061929      18.57646027                           
Cr     12.60778905       1.98523473      10.46423698                            
Cr      9.16927431       3.97042256      10.47271549                            
I       13.60195980      -0.00289519       8.93147663                           
I       10.38895151       2.11831465       8.93145308                           
I        6.95548132       3.84024628       8.93144278                           
I       11.60884358       0.00594958      12.00619783                           
I       11.39316102       3.83998833      12.00619302                           
I        7.94438798       2.10972815      12.00620106                           
Cr       5.73079704       9.92605008      17.03520929                           
Cr       2.29233663      11.91129453      17.04368562                           
I        6.72976925       7.93494046      15.50172901                           
I        3.50695437      10.05652383      15.50172980                           
I        0.07872159      11.78676742      15.50174515                           
I        4.73664394       7.94377266      18.57647573                           
I        4.51117228      11.77819249      18.57647595                           
I        1.06762977      10.05626043      18.57646027                           
Cr      9.16929804       7.94087586      10.46423698                            
Cr      5.73078330       9.92606369      10.47271549                            
I       10.16346879       5.95274594       8.93147663                           
I        6.95046050       8.07395578       8.93145308                           
I        3.51699031       9.79588741       8.93144278                           
I        8.17035256       5.96159071      12.00619783                           
I        7.95467001       9.79562946      12.00619302                           
I        4.50589697       8.06536928      12.00620106                           
Cr       2.29230603      15.88169122      17.03520929                           
Cr      -1.14615438      17.86693567      17.04368562                           
I        3.29127824      13.89058160      15.50172901                           
I        0.06846335      16.01216496      15.50172980                           
I       -3.35976942      17.74240855      15.50174515                           
I        1.29815293      13.89941380      18.57647573                           
I        1.07268127      17.73383362      18.57647595                           
I       -2.37086124      16.01190156      18.57646027                           
Cr      5.73080703      13.89651700      10.46423698                            
Cr      2.29229229      15.88170482      10.47271549                            
I        6.72497778      11.90838708       8.93147663                           
I        3.51196949      14.02959691       8.93145308                           
I        0.07849930      15.75152855       8.93144278                           
I        4.73186155      11.91723184      12.00619783                           
I        4.51617900      15.75127059      12.00619302                           
I        1.06740595      14.02101041      12.00620106                           
Cr      -1.14618498      21.83733235      17.03520929                           
Cr      -4.58464539      23.82257680      17.04368562                           
I       -0.14721277      19.84622273      15.50172901                           
I       -3.37002766      21.96780609      15.50172980                           
I       -6.79826043      23.69804968      15.50174515                           
I       -2.14033808      19.85505493      18.57647573                           
I       -2.36580974      23.68947476      18.57647595                           
I       -5.80935225      21.96754269      18.57646027                           
Cr      2.29231601      19.85215813      10.46423698                            
Cr     -1.14619872      21.83734595      10.47271549                            
I        3.28648677      17.86402821       8.93147663                           
I        0.07347848      19.98523804       8.93145308                           
I       -3.35999171      21.70716968       8.93144278                           
I        1.29337054      17.87287297      12.00619783                           
I        1.07768799      21.70691172      12.00619302                           
I       -2.37108506      19.97665154      12.00620106                           
Cr      -4.58467600      27.79297348      17.03520929                           
Cr      -8.02313640      29.77821793      17.04368562                           
I       -3.58570378      25.80186386      15.50172901                           
I       -6.80851867      27.92344722      15.50172980                           
I      -10.23675144      29.65369082      15.50174515                           
I       -5.57882909      25.81069606      18.57647573                           
I       -5.80430075      29.64511589      18.57647595                           
I       -9.24784326      27.92318382      18.57646027                           
Cr     -1.14617500      25.80779926      10.46423698                            
Cr     -4.58468973      27.79298708      10.47271549                            
I       -0.15200424      23.81966934       8.93147663                           
I       -3.36501253      25.94087917       8.93145308                           
I       -6.79848272      27.66281081       8.93144278                           
I       -2.14512047      23.82851411      12.00619783                           
I       -2.36080302      27.66255286      12.00619302                           
I       -5.80957607      25.93229268      12.00620106                           
Cr      -8.02316701      33.74861461      17.03520929                           
Cr     -11.46162741      35.73385906      17.04368562                           
I       -7.02419479      31.75750499      15.50172901                           
I      -10.24700968      33.87908835      15.50172980                           
I      -13.67524245      35.60933195      15.50174515                           
I       -9.01732010      31.76633719      18.57647573                           
I       -9.24279176      35.60075702      18.57647595                           
I      -12.68633427      33.87882495      18.57646027                           
Cr     -4.58466601      31.76344039      10.46423698                            
Cr     -8.02318074      33.74862822      10.47271549                            
I       -3.59049526      29.77531047       8.93147663                           
I       -6.80350354      31.89652031       8.93145308                           
I      -10.23697373      33.61845194       8.93144278                           
I       -5.58361148      29.78415524      12.00619783                           
I       -5.79929403      33.61819399      12.00619302                           
I       -9.24806708      31.88793381      12.00620106                           
Cr      16.04627007       3.97040895      17.03520929                           
Cr      12.60780966       5.95565340      17.04368562                           
I       17.04524228       1.97929933      15.50172901                           
I       13.82242740       4.10088269      15.50172980                           
I       10.39419463       5.83112629      15.50174515                           
I       15.05211697       1.98813153      18.57647573                           
I       14.82664532       5.82255136      18.57647595                           
I       11.38310281       4.10061929      18.57646027                           
Cr     19.48477107       1.98523473      10.46423698                            
Cr     16.04625633       3.97042256      10.47271549                            
I       20.47894182      -0.00289519       8.93147663                           
I       17.26593353       2.11831465       8.93145308                           
I       13.83246335       3.84024628       8.93144278                           
I       18.48582560       0.00594958      12.00619783                           
I       18.27014304       3.83998833      12.00619302                           
I       14.82137000       2.10972815      12.00620106                           
Cr      12.60777906       9.92605008      17.03520929                           
Cr       9.16931865      11.91129453      17.04368562                           
I       13.60675127       7.93494046      15.50172901                           
I       10.38393639      10.05652383      15.50172980                           
I        6.95570362      11.78676742      15.50174515                           
I       11.61362596       7.94377266      18.57647573                           
I       11.38815431      11.77819249      18.57647595                           
I        7.94461180      10.05626043      18.57646027                           
Cr     16.04628006       7.94087586      10.46423698                            
Cr     12.60776532       9.92606369      10.47271549                            
I       17.04045081       5.95274594       8.93147663                           
I       13.82744252       8.07395578       8.93145308                           
I       10.39397233       9.79588741       8.93144278                           
I       15.04733459       5.96159071      12.00619783                           
I       14.83165203       9.79562946      12.00619302                           
I       11.38287899       8.06536928      12.00620106                           
Cr       9.16928805      15.88169122      17.03520929                           
Cr       5.73082764      17.86693567      17.04368562                           
I       10.16826026      13.89058160      15.50172901                           
I        6.94544538      16.01216496      15.50172980                           
I        3.51721261      17.74240855      15.50174515                           
I        8.17513495      13.89941380      18.57647573                           
I        7.94966330      17.73383362      18.57647595                           
I        4.50612079      16.01190156      18.57646027                           
Cr     12.60778905      13.89651700      10.46423698                            
Cr      9.16927431      15.88170482      10.47271549                            
I       13.60195980      11.90838708       8.93147663                           
I       10.38895151      14.02959691       8.93145308                           
I        6.95548132      15.75152855       8.93144278                           
I       11.60884358      11.91723184      12.00619783                           
I       11.39316102      15.75127059      12.00619302                           
I        7.94438798      14.02101041      12.00620106                           
Cr       5.73079704      21.83733235      17.03520929                           
Cr       2.29233663      23.82257680      17.04368562                           
I        6.72976925      19.84622273      15.50172901                           
I        3.50695437      21.96780609      15.50172980                           
I        0.07872159      23.69804968      15.50174515                           
I        4.73664394      19.85505493      18.57647573                           
I        4.51117228      23.68947476      18.57647595                           
I        1.06762977      21.96754269      18.57646027                           
Cr      9.16929804      19.85215813      10.46423698                            
Cr      5.73078330      21.83734595      10.47271549                            
I       10.16346879      17.86402821       8.93147663                           
I        6.95046050      19.98523804       8.93145308                           
I        3.51699031      21.70716968       8.93144278                           
I        8.17035256      17.87287297      12.00619783                           
I        7.95467001      21.70691172      12.00619302                           
I        4.50589697      19.97665154      12.00620106                           
Cr       2.29230603      27.79297348      17.03520929                           
Cr      -1.14615438      29.77821793      17.04368562                           
I        3.29127824      25.80186386      15.50172901                           
I        0.06846335      27.92344722      15.50172980                           
I       -3.35976942      29.65369082      15.50174515                           
I        1.29815293      25.81069606      18.57647573                           
I        1.07268127      29.64511589      18.57647595                           
I       -2.37086124      27.92318382      18.57646027                           
Cr      5.73080703      25.80779926      10.46423698                            
Cr      2.29229229      27.79298708      10.47271549                            
I        6.72497778      23.81966934       8.93147663                           
I        3.51196949      25.94087917       8.93145308                           
I        0.07849930      27.66281081       8.93144278                           
I        4.73186155      23.82851411      12.00619783                           
I        4.51617900      27.66255286      12.00619302                           
I        1.06740595      25.93229268      12.00620106                           
Cr      -1.14618498      33.74861461      17.03520929                           
Cr      -4.58464539      35.73385906      17.04368562                           
I       -0.14721277      31.75750499      15.50172901                           
I       -3.37002766      33.87908835      15.50172980                           
I       -6.79826043      35.60933195      15.50174515                           
I       -2.14033808      31.76633719      18.57647573                           
I       -2.36580974      35.60075702      18.57647595                           
I       -5.80935225      33.87882495      18.57646027                           
Cr      2.29231601      31.76344039      10.46423698                            
Cr     -1.14619872      33.74862822      10.47271549                            
I        3.28648677      29.77531047       8.93147663                           
I        0.07347848      31.89652031       8.93145308                           
I       -3.35999171      33.61845194       8.93144278                           
I        1.29337054      29.78415524      12.00619783                           
I        1.07768799      33.61819399      12.00619302                           
I       -2.37108506      31.88793381      12.00620106                           
Cr      22.92325209       3.97040895      17.03520929                           
Cr      19.48479168       5.95565340      17.04368562                           
I       23.92222431       1.97929933      15.50172901                           
I       20.69940942       4.10088269      15.50172980                           
I       17.27117665       5.83112629      15.50174515                           
I       21.92909899       1.98813153      18.57647573                           
I       21.70362734       5.82255136      18.57647595                           
I       18.26008483       4.10061929      18.57646027                           
Cr     26.36175309       1.98523473      10.46423698                            
Cr     22.92323835       3.97042256      10.47271549                            
I       27.35592384      -0.00289519       8.93147663                           
I       24.14291556       2.11831465       8.93145308                           
I       20.70944537       3.84024628       8.93144278                           
I       25.36280762       0.00594958      12.00619783                           
I       25.14712507       3.83998833      12.00619302                           
I       21.69835202       2.10972815      12.00620106                           
Cr      19.48476108       9.92605008      17.03520929                           
Cr      16.04630067      11.91129453      17.04368562                           
I       20.48373330       7.93494046      15.50172901                           
I       17.26091841      10.05652383      15.50172980                           
I       13.83268564      11.78676742      15.50174515                           
I       18.49060798       7.94377266      18.57647573                           
I       18.26513633      11.77819249      18.57647595                           
I       14.82159382      10.05626043      18.57646027                           
Cr     22.92326208       7.94087586      10.46423698                            
Cr     19.48474734       9.92606369      10.47271549                            
I       23.91743283       5.95274594       8.93147663                           
I       20.70442455       8.07395578       8.93145308                           
I       17.27095436       9.79588741       8.93144278                           
I       21.92431661       5.96159071      12.00619783                           
I       21.70863405       9.79562946      12.00619302                           
I       18.25986101       8.06536928      12.00620106                           
Cr      16.04627007      15.88169122      17.03520929                           
Cr      12.60780966      17.86693567      17.04368562                           
I       17.04524228      13.89058160      15.50172901                           
I       13.82242740      16.01216496      15.50172980                           
I       10.39419463      17.74240855      15.50174515                           
I       15.05211697      13.89941380      18.57647573                           
I       14.82664532      17.73383362      18.57647595                           
I       11.38310281      16.01190156      18.57646027                           
Cr     19.48477107      13.89651700      10.46423698                            
Cr     16.04625633      15.88170482      10.47271549                            
I       20.47894182      11.90838708       8.93147663                           
I       17.26593353      14.02959691       8.93145308                           
I       13.83246335      15.75152855       8.93144278                           
I       18.48582560      11.91723184      12.00619783                           
I       18.27014304      15.75127059      12.00619302                           
I       14.82137000      14.02101041      12.00620106                           
Cr      12.60777906      21.83733235      17.03520929                           
Cr       9.16931865      23.82257680      17.04368562                           
I       13.60675127      19.84622273      15.50172901                           
I       10.38393639      21.96780609      15.50172980                           
I        6.95570362      23.69804968      15.50174515                           
I       11.61362596      19.85505493      18.57647573                           
I       11.38815431      23.68947476      18.57647595                           
I        7.94461180      21.96754269      18.57646027                           
Cr     16.04628006      19.85215813      10.46423698                            
Cr     12.60776532      21.83734595      10.47271549                            
I       17.04045081      17.86402821       8.93147663                           
I       13.82744252      19.98523804       8.93145308                           
I       10.39397233      21.70716968       8.93144278                           
I       15.04733459      17.87287297      12.00619783                           
I       14.83165203      21.70691172      12.00619302                           
I       11.38287899      19.97665154      12.00620106                           
Cr       9.16928805      27.79297348      17.03520929                           
Cr       5.73082764      29.77821793      17.04368562                           
I       10.16826026      25.80186386      15.50172901                           
I        6.94544538      27.92344722      15.50172980                           
I        3.51721261      29.65369082      15.50174515                           
I        8.17513495      25.81069606      18.57647573                           
I        7.94966330      29.64511589      18.57647595                           
I        4.50612079      27.92318382      18.57646027                           
Cr     12.60778905      25.80779926      10.46423698                            
Cr      9.16927431      27.79298708      10.47271549                            
I       13.60195980      23.81966934       8.93147663                           
I       10.38895151      25.94087917       8.93145308                           
I        6.95548132      27.66281081       8.93144278                           
I       11.60884358      23.82851411      12.00619783                           
I       11.39316102      27.66255286      12.00619302                           
I        7.94438798      25.93229268      12.00620106                           
Cr       5.73079704      33.74861461      17.03520929                           
Cr       2.29233663      35.73385906      17.04368562                           
I        6.72976925      31.75750499      15.50172901                           
I        3.50695437      33.87908835      15.50172980                           
I        0.07872159      35.60933195      15.50174515                           
I        4.73664394      31.76633719      18.57647573                           
I        4.51117228      35.60075702      18.57647595                           
I        1.06762977      33.87882495      18.57646027                           
Cr      9.16929804      31.76344039      10.46423698                            
Cr      5.73078330      33.74862822      10.47271549                            
I       10.16346879      29.77531047       8.93147663                           
I        6.95046050      31.89652031       8.93145308                           
I        3.51699031      33.61845194       8.93144278                           
I        8.17035256      29.78415524      12.00619783                           
I        7.95467001      33.61819399      12.00619302                           
I        4.50589697      31.88793381      12.00620106                           
Cr      29.80023411       3.97040895      17.03520929                           
Cr      26.36177371       5.95565340      17.04368562                           
I       30.79920633       1.97929933      15.50172901                           
I       27.57639144       4.10088269      15.50172980                           
I       24.14815867       5.83112629      15.50174515                           
I       28.80608102       1.98813153      18.57647573                           
I       28.58060936       5.82255136      18.57647595                           
I       25.13706685       4.10061929      18.57646027                           
Cr     33.23873511       1.98523473      10.46423698                            
Cr     29.80022038       3.97042256      10.47271549                            
I       34.23290587      -0.00289519       8.93147663                           
I       31.01989758       2.11831465       8.93145308                           
I       27.58642739       3.84024628       8.93144278                           
I       32.23978964       0.00594958      12.00619783                           
I       32.02410709       3.83998833      12.00619302                           
I       28.57533404       2.10972815      12.00620106                           
Cr      26.36174310       9.92605008      17.03520929                           
Cr      22.92328270      11.91129453      17.04368562                           
I       27.36071532       7.93494046      15.50172901                           
I       24.13790043      10.05652383      15.50172980                           
I       20.70966766      11.78676742      15.50174515                           
I       25.36759001       7.94377266      18.57647573                           
I       25.14211835      11.77819249      18.57647595                           
I       21.69857584      10.05626043      18.57646027                           
Cr     29.80024410       7.94087586      10.46423698                            
Cr     26.36172937       9.92606369      10.47271549                            
I       30.79441485       5.95274594       8.93147663                           
I       27.58140657       8.07395578       8.93145308                           
I       24.14793638       9.79588741       8.93144278                           
I       28.80129863       5.96159071      12.00619783                           
I       28.58561608       9.79562946      12.00619302                           
I       25.13684303       8.06536928      12.00620106                           
Cr      22.92325209      15.88169122      17.03520929                           
Cr      19.48479168      17.86693567      17.04368562                           
I       23.92222431      13.89058160      15.50172901                           
I       20.69940942      16.01216496      15.50172980                           
I       17.27117665      17.74240855      15.50174515                           
I       21.92909899      13.89941380      18.57647573                           
I       21.70362734      17.73383362      18.57647595                           
I       18.26008483      16.01190156      18.57646027                           
Cr     26.36175309      13.89651700      10.46423698                            
Cr     22.92323835      15.88170482      10.47271549                            
I       27.35592384      11.90838708       8.93147663                           
I       24.14291556      14.02959691       8.93145308                           
I       20.70944537      15.75152855       8.93144278                           
I       25.36280762      11.91723184      12.00619783                           
I       25.14712507      15.75127059      12.00619302                           
I       21.69835202      14.02101041      12.00620106                           
Cr      19.48476108      21.83733235      17.03520929                           
Cr      16.04630067      23.82257680      17.04368562                           
I       20.48373330      19.84622273      15.50172901                           
I       17.26091841      21.96780609      15.50172980                           
I       13.83268564      23.69804968      15.50174515                           
I       18.49060798      19.85505493      18.57647573                           
I       18.26513633      23.68947476      18.57647595                           
I       14.82159382      21.96754269      18.57646027                           
Cr     22.92326208      19.85215813      10.46423698                            
Cr     19.48474734      21.83734595      10.47271549                            
I       23.91743283      17.86402821       8.93147663                           
I       20.70442455      19.98523804       8.93145308                           
I       17.27095436      21.70716968       8.93144278                           
I       21.92431661      17.87287297      12.00619783                           
I       21.70863405      21.70691172      12.00619302                           
I       18.25986101      19.97665154      12.00620106                           
Cr      16.04627007      27.79297348      17.03520929                           
Cr      12.60780966      29.77821793      17.04368562                           
I       17.04524228      25.80186386      15.50172901                           
I       13.82242740      27.92344722      15.50172980                           
I       10.39419463      29.65369082      15.50174515                           
I       15.05211697      25.81069606      18.57647573                           
I       14.82664532      29.64511589      18.57647595                           
I       11.38310281      27.92318382      18.57646027                           
Cr     19.48477107      25.80779926      10.46423698                            
Cr     16.04625633      27.79298708      10.47271549                            
I       20.47894182      23.81966934       8.93147663                           
I       17.26593353      25.94087917       8.93145308                           
I       13.83246335      27.66281081       8.93144278                           
I       18.48582560      23.82851411      12.00619783                           
I       18.27014304      27.66255286      12.00619302                           
I       14.82137000      25.93229268      12.00620106                           
Cr      12.60777906      33.74861461      17.03520929                           
Cr       9.16931865      35.73385906      17.04368562                           
I       13.60675127      31.75750499      15.50172901                           
I       10.38393639      33.87908835      15.50172980                           
I        6.95570362      35.60933195      15.50174515                           
I       11.61362596      31.76633719      18.57647573                           
I       11.38815431      35.60075702      18.57647595                           
I        7.94461180      33.87882495      18.57646027                           
Cr     16.04628006      31.76344039      10.46423698                            
Cr     12.60776532      33.74862822      10.47271549                            
I       17.04045081      29.77531047       8.93147663                           
I       13.82744252      31.89652031       8.93145308                           
I       10.39397233      33.61845194       8.93144278                           
I       15.04733459      29.78415524      12.00619783                           
I       14.83165203      33.61819399      12.00619302                           
I       11.38287899      31.88793381      12.00620106                           
Cr      36.67721614       3.97040895      17.03520929                           
Cr      33.23875573       5.95565340      17.04368562                           
I       37.67618835       1.97929933      15.50172901                           
I       34.45337346       4.10088269      15.50172980                           
I       31.02514069       5.83112629      15.50174515                           
I       35.68306304       1.98813153      18.57647573                           
I       35.45759138       5.82255136      18.57647595                           
I       32.01404887       4.10061929      18.57646027                           
Cr     40.11571714       1.98523473      10.46423698                            
Cr     36.67720240       3.97042256      10.47271549                            
I       41.10988789      -0.00289519       8.93147663                           
I       37.89687960       2.11831465       8.93145308                           
I       34.46340941       3.84024628       8.93144278                           
I       39.11677166       0.00594958      12.00619783                           
I       38.90108911       3.83998833      12.00619302                           
I       35.45231606       2.10972815      12.00620106                           
Cr      33.23872513       9.92605008      17.03520929                           
Cr      29.80026472      11.91129453      17.04368562                           
I       34.23769734       7.93494046      15.50172901                           
I       31.01488245      10.05652383      15.50172980                           
I       27.58664968      11.78676742      15.50174515                           
I       32.24457203       7.94377266      18.57647573                           
I       32.01910037      11.77819249      18.57647595                           
I       28.57555786      10.05626043      18.57646027                           
Cr     36.67722612       7.94087586      10.46423698                            
Cr     33.23871139       9.92606369      10.47271549                            
I       37.67139688       5.95274594       8.93147663                           
I       34.45838859       8.07395578       8.93145308                           
I       31.02491840       9.79588741       8.93144278                           
I       35.67828065       5.96159071      12.00619783                           
I       35.46259810       9.79562946      12.00619302                           
I       32.01382505       8.06536928      12.00620106                           
Cr      29.80023411      15.88169122      17.03520929                           
Cr      26.36177371      17.86693567      17.04368562                           
I       30.79920633      13.89058160      15.50172901                           
I       27.57639144      16.01216496      15.50172980                           
I       24.14815867      17.74240855      15.50174515                           
I       28.80608102      13.89941380      18.57647573                           
I       28.58060936      17.73383362      18.57647595                           
I       25.13706685      16.01190156      18.57646027                           
Cr     33.23873511      13.89651700      10.46423698                            
Cr     29.80022038      15.88170482      10.47271549                            
I       34.23290587      11.90838708       8.93147663                           
I       31.01989758      14.02959691       8.93145308                           
I       27.58642739      15.75152855       8.93144278                           
I       32.23978964      11.91723184      12.00619783                           
I       32.02410709      15.75127059      12.00619302                           
I       28.57533404      14.02101041      12.00620106                           
Cr      26.36174310      21.83733235      17.03520929                           
Cr      22.92328270      23.82257680      17.04368562                           
I       27.36071532      19.84622273      15.50172901                           
I       24.13790043      21.96780609      15.50172980                           
I       20.70966766      23.69804968      15.50174515                           
I       25.36759001      19.85505493      18.57647573                           
I       25.14211835      23.68947476      18.57647595                           
I       21.69857584      21.96754269      18.57646027                           
Cr     29.80024410      19.85215813      10.46423698                            
Cr     26.36172937      21.83734595      10.47271549                            
I       30.79441485      17.86402821       8.93147663                           
I       27.58140657      19.98523804       8.93145308                           
I       24.14793638      21.70716968       8.93144278                           
I       28.80129863      17.87287297      12.00619783                           
I       28.58561608      21.70691172      12.00619302                           
I       25.13684303      19.97665154      12.00620106                           
Cr      22.92325209      27.79297348      17.03520929                           
Cr      19.48479168      29.77821793      17.04368562                           
I       23.92222431      25.80186386      15.50172901                           
I       20.69940942      27.92344722      15.50172980                           
I       17.27117665      29.65369082      15.50174515                           
I       21.92909899      25.81069606      18.57647573                           
I       21.70362734      29.64511589      18.57647595                           
I       18.26008483      27.92318382      18.57646027                           
Cr     26.36175309      25.80779926      10.46423698                            
Cr     22.92323835      27.79298708      10.47271549                            
I       27.35592384      23.81966934       8.93147663                           
I       24.14291556      25.94087917       8.93145308                           
I       20.70944537      27.66281081       8.93144278                           
I       25.36280762      23.82851411      12.00619783                           
I       25.14712507      27.66255286      12.00619302                           
I       21.69835202      25.93229268      12.00620106                           
Cr      19.48476108      33.74861461      17.03520929                           
Cr      16.04630067      35.73385906      17.04368562                           
I       20.48373330      31.75750499      15.50172901                           
I       17.26091841      33.87908835      15.50172980                           
I       13.83268564      35.60933195      15.50174515                           
I       18.49060798      31.76633719      18.57647573                           
I       18.26513633      35.60075702      18.57647595                           
I       14.82159382      33.87882495      18.57646027                           
Cr     22.92326208      31.76344039      10.46423698                            
Cr     19.48474734      33.74862822      10.47271549                            
I       23.91743283      29.77531047       8.93147663                           
I       20.70442455      31.89652031       8.93145308                           
I       17.27095436      33.61845194       8.93144278                           
I       21.92431661      29.78415524      12.00619783                           
I       21.70863405      33.61819399      12.00619302                           
I       18.25986101      31.88793381      12.00620106                           
%ENDBLOCK POSITIONS_ABS                                                         
%BLOCK SPECIES                                                                  
Cr Cr 24 -1 15                                                                  
I   I  53 -1 15                                                                 
%ENDBLOCK SPECIES                                                               
%BLOCK SPECIES_ATOMIC_SET                                                       
Cr "SOLVE INIT SPIN=3"                                                          
I   "SOLVE"                                                                     
%ENDBLOCK SPECIES_ATOMIC_SET                                                    
%BLOCK HUBBARD                                                                  
Cr  2 2.97 0.37 -10.0 0.00 0.0                                                  
%ENDBLOCK HUBBARD                                                               
%BLOCK SPECIES_LDOS_GROUPS                                                      
Cr                                                                              
I                                                                               
%ENDBLOCK SPECIES_LDOS_GROUPS                                                   
%BLOCK SPECIES_POT                                                              
Cr  "../../../../Cr.PBE-paw.abinit"                                             
I   "../../../../I.PBE-paw.abinit"                                              
%ENDBLOCK SPECIES_POT                                                           

--------------------------------------------------------------------------------
-------------------------------- END INPUT FILE --------------------------------
--------------------------------------------------------------------------------


 
 ESDF WARNING(1): "charge" (esdf_physical) has no units. Assume "e".
<<<<<<<<<<<<<<<<<<<<<<<<<<<<<<<<< Full system >>>>>>>>>>>>>>>>>>>>>>>>>>>>>>>>>>
<<<<<<<<<<<<<<<<<<<<<<<<<<< PAW Dataset information >>>>>>>>>>>>>>>>>>>>>>>>>>>
File: ../../../../Cr.PBE-paw.abinit; rc = 2.11 bohr; shape type =  2; rshape = 1.80 bohr;
  Atomic number: 24;  ionic charge: 14.000000
    Partial Wave 1: l = 0
    Partial Wave 2: l = 0
    Partial Wave 3: l = 1
    Partial Wave 4: l = 1
    Partial Wave 5: l = 2
    Partial Wave 6: l = 2
  Core charge supplied for Nonlinear Core Corrections
File: ../../../../I.PBE-paw.abinit; rc = 2.30 bohr; shape type =  2; rshape = 2.11 bohr;
  Atomic number: 53;  ionic charge:  7.000000
    Partial Wave 1: l = 0
    Partial Wave 2: l = 0
    Partial Wave 3: l = 1
    Partial Wave 4: l = 1
  Core charge supplied for Nonlinear Core Corrections
<<<<<<<<<<<<<<<<<<<<<<<<<<<<<<<<<<<<<<< >>>>>>>>>>>>>>>>>>>>>>>>>>>>>>>>>>>>>>>

-------------------------- Atom counting information ---------------------------
Symbol    Natoms    Nngwfs    Nprojs
  Cr       144      1872      2592
  I        432      1728      3456
.......   ......    ......    ......
Totals:    576      3600      6048
--------------------------------------------------------------------------------

=============================== PSINC grid sizes ===============================
                      Simulation cell:  175 x 175 x 117
                              FFT-box:  175 x 175 x 117
                                  PPD:    5 x   5 x   1
Grid space d1=  0.445563862424a0 (KE cutoff=  38.26345Eh =1041.20135eV)
Grid space d2=  0.445563862400a0 (KE cutoff=  38.26345Eh =1041.20135eV)
Grid space d3=  0.444294449711a0 (KE cutoff=  38.48241Eh =1047.15957eV)
================================================================================

********************* Fourier parallelisation information **********************
       Coarse grid (whole simulation cell) dimensions:    175   175   117
          Real-space ('12') slabs/proc (min max mean):      0     1     0
         Recip-space ('23') slabs/proc (min max mean):      0     1     0
********************************************************************************

********************* Fourier parallelisation information **********************
       Double grid (whole simulation cell) dimensions:    350   350   234
          Real-space ('12') slabs/proc (min max mean):      1     2     1
         Recip-space ('23') slabs/proc (min max mean):      1     2     1
********************************************************************************

********************* Fourier parallelisation information **********************
         Fine grid (whole simulation cell) dimensions:    700   700   468
          Real-space ('12') slabs/proc (min max mean):      3     4     3
         Recip-space ('23') slabs/proc (min max mean):      2     3     2
********************************************************************************
energy_and_force_init_cell: WARNING in internal_setup_spin:
        even number of electrons in cell and zero spin
        but continuing with spin-polarised calculation

Atom SCF Calculation for Cr : Z (AE atom) =  24 : Z (PS atom) =  14
Config String: 3s2.0 3p6.0 3d5.0 4s1.0 4p0.0 INIT SPIN=3
Orbitals (num,occ):  5     2.00 6.00 5.00 1.00 0.00
Orbitals   (num,l):  5        0    1    2    0    1
Atom SCF converged after  64 iterations to a total energy of    -87.07044631
Adjusting orbital occupancies:
Orbitals (num,spin,occ):  5  1     1.00 3.00 3.50 1.00 0.00
Orbitals   (num,spin,l):  5  1        0    1    2    0    1
Orbitals (num,spin,occ):  5  2     1.00 3.00 1.00 0.50 0.00
Orbitals   (num,spin,l):  5  2        0    1    2    0    1

Atom SCF Calculation for I  : Z (AE atom) =  53 : Z (PS atom) =   7
Config String: 5s2.0 5p5.0
Orbitals (num,occ):  2     2.00 5.00
Orbitals   (num,l):  2        0    1
Atom SCF converged after  28 iterations to a total energy of    -11.61352964

Atom SCF Calculation for Cr : Z (AE atom) =  24 : Z (PS atom) =  14
Config String: 3s2.0 3p6.0 3d5.0 4s1.0 4p0.0 INIT SPIN=3
Orbitals (num,occ):  5     2.00 6.00 5.00 1.00 0.00
Orbitals   (num,l):  5        0    1    2    0    1
Atom SCF converged after  64 iterations to a total energy of    -87.07044631

Atom SCF Calculation for I  : Z (AE atom) =  53 : Z (PS atom) =   7
Config String: 5s2.0 5p5.0
Orbitals (num,occ):  2     2.00 5.00
Orbitals   (num,l):  2        0    1
Atom SCF converged after  28 iterations to a total energy of    -11.61352964

Determining parallel strategy ...... done
Calculating Ewald energy ...            31583.245177 Hartree
Basis initialisation ...
... done

============================= Charge Augmentation ==============================
                           Aug box size:   49 x  49 x  45
================================================================================
Sparse matrix initialisation ...
 done
NGWF initialisation ... done
 done

================================= Core Density =================================
               Core den box size:  125 x 125 x 105
================================================================================
Density renormalisation, spin  1 ...
Target Charge:  2520.000000000000 ; Input Charge:  2736.855376390692
Density renormalisation, spin  2 ...
Target Charge:  2520.000000000000 ; Input Charge:  2304.928261094418
Density kernel initialisation

--------------------------- Ensemble-DFT optimisation --------------------------
Running ScaLAPACK on  150 processor(s).
With smearing scheme: FERMIDIRAC                                                                      

--------------------------------------------------------------------------------
  Iter                              Commutator    Free_energy(A=E-TS)     DeltaA
#    0                          0.010006519595  -17074.15688714125280  -1.71E+04
#    1                          0.002791106093  -17538.24123751134540  -4.64E+02
#    2                          0.002802263786  -17569.75553418492930  -3.15E+01
#    3                          0.001538422551  -17588.13106436192540  -1.84E+01
#    4                          0.001079039663  -17592.16016966691310  -4.03E+00
#    5                          0.000897549144  -17593.63692660865490  -1.48E+00
#    6                          0.000803803780  -17594.66228632935600  -1.03E+00
#    7                          0.000685358156  -17595.33461410081870  -6.72E-01
#    8                          0.000652466323  -17595.57556123554240  -2.41E-01
#    9                          0.000618916815  -17595.78879711412450  -2.13E-01
#   10                          0.000591173997  -17595.96274616904340  -1.74E-01
#   11                          0.000562228716  -17596.14684852375290  -1.84E-01
#   12                          0.000530977750  -17596.31420182259170  -1.67E-01
#   13                          0.000504323911  -17596.46552319929830  -1.51E-01
#   14                          0.000475791209  -17596.60158286666410  -1.36E-01
#   15                          0.000451593012  -17596.72428589324410  -1.23E-01
Finished EDFT density kernel iterations (  15)


Writing density kernel to file "Cr2I6_bilayer_LT_FM_AFM_nSP.dkn" ... done

Writing Hamiltonian to file "Cr2I6_bilayer_LT_FM_AFM_nSP.ham" ... done

Writing density kernel to file "Cr2I6_bilayer_LT_FM_AFM_nSP.dkn" ... done

>>> Optimising kernel for current NGWFs:
   iter  |      energy (Eh)       | rms gradient |  commutator  |   dE (Eh)
    1        -1.759763602639E+04     1.6682E-03     4.6161E-04
    2        -1.760163486273E+04     7.0330E-04     1.8427E-04    -3.9988E+00
    3        -1.760167931646E+04     3.7682E-04     8.8603E-05    -4.4454E-02
    4        -1.760169560826E+04     3.6514E-04     7.5300E-05    -1.6292E-02
    5        -1.760170789870E+04     3.6028E-04     6.8965E-05    -1.2290E-02
Finished density kernel iterations (   5)

Writing density kernel to file "Cr2I6_bilayer_LT_FM_AFM_nSP.dkn" ... done


>>> Density kernel optimised for the current NGWF basis:
     ~~~~~~~~~~~~~~~~~~~~~~~~~~~~~~~~~~~~~~~~~~~~~~~~~~~~~~~~~~~
     Total energy                =  -1.76017078986968E+04  Eh
     Estimated bandgap (UP spin) =   1.3784E-03  Eh
     Estimated bandgap (DN spin) =   7.4688E-04  Eh
     RMS occupancy error         =   1.5727E-03
     [H,K] commutator            =   6.8965E-05
     UP spin occupancy bounds    = [  0.002:  1.002]
     DN spin occupancy bounds    = [  0.000:  1.000]
     ~~~~~~~~~~~~~~~~~~~~~~~~~~~~~~~~~~~~~~~~~~~~~~~~~~~~~~~~~~~




################################################################################
########################### NGWF CG iteration  001 #############################
################################################################################

>>> Checking for convergence of NGWFs:   NOT CONVERGED
  ========================================================================
         NGWF RMS gradient =  9.6370E-05 >  1.0000E-06  | above tolerance
  ========================================================================

>>> Improving NGWFs using line search:
  ========================================================================
   Predicted total energy    =      -1.76088025251243E+04 Eh
   Predicted gain in energy  =      -7.09462642756989E+00 Eh
  ========================================================================

Writing NGWFs to file "Cr2I6_bilayer_LT_FM_AFM_nSP.tightbox_ngwfs".... done

>>> Optimising kernel for current NGWFs:
   iter  |      energy (Eh)       | rms gradient |  commutator  |   dE (Eh)
    1        -1.760909761633E+04     4.8545E-04     1.7921E-04
    2        -1.760919597839E+04     4.1014E-04     1.2163E-04    -9.8362E-02
    3        -1.760924069034E+04     3.7792E-04     9.0744E-05    -4.4712E-02
    4        -1.760926520419E+04     3.6328E-04     7.3506E-05    -2.4514E-02
    5        -1.760928051106E+04     3.5659E-04     6.4258E-05    -1.5307E-02
Finished density kernel iterations (   5)

Writing density kernel to file "Cr2I6_bilayer_LT_FM_AFM_nSP.dkn" ... done


>>> Density kernel optimised for the current NGWF basis:
     ~~~~~~~~~~~~~~~~~~~~~~~~~~~~~~~~~~~~~~~~~~~~~~~~~~~~~~~~~~~
     Total energy                =  -1.76092805110623E+04  Eh
     Estimated bandgap (UP spin) =   1.3155E-03  Eh
     Estimated bandgap (DN spin) =  -3.7348E-05  Eh
     RMS occupancy error         =   1.5727E-03
     [H,K] commutator            =   6.4258E-05
     UP spin occupancy bounds    = [  0.002:  1.002]
     DN spin occupancy bounds    = [  0.000:  1.000]
     ~~~~~~~~~~~~~~~~~~~~~~~~~~~~~~~~~~~~~~~~~~~~~~~~~~~~~~~~~~~




################################################################################
########################### NGWF CG iteration  002 #############################
################################################################################

>>> Checking for convergence of NGWFs:   NOT CONVERGED
  ========================================================================
         NGWF RMS gradient =  6.4434E-05 >  1.0000E-06  | above tolerance
  Maximum change in energy =  1.3147E-02 >  1.0000E-07  | above tolerance
  ========================================================================

>>> Improving NGWFs using line search:
  ========================================================================
   Predicted total energy    =      -1.76114716507147E+04 Eh
   Predicted gain in energy  =      -2.19113965239740E+00 Eh
  ========================================================================

Writing NGWFs to file "Cr2I6_bilayer_LT_FM_AFM_nSP.tightbox_ngwfs".... done

>>> Optimising kernel for current NGWFs:
   iter  |      energy (Eh)       | rms gradient |  commutator  |   dE (Eh)
    1        -1.761168461485E+04     3.7676E-04     8.8904E-05
    2        -1.761170352881E+04     3.6690E-04     7.7589E-05    -1.8914E-02
    3        -1.761171843438E+04     3.6034E-04     6.9214E-05    -1.4906E-02
    4        -1.761173054734E+04     3.5596E-04     6.3092E-05    -1.2113E-02
    5        -1.761174066838E+04     3.5301E-04     5.8622E-05    -1.0121E-02
Finished density kernel iterations (   5)

Writing density kernel to file "Cr2I6_bilayer_LT_FM_AFM_nSP.dkn" ... done


>>> Density kernel optimised for the current NGWF basis:
     ~~~~~~~~~~~~~~~~~~~~~~~~~~~~~~~~~~~~~~~~~~~~~~~~~~~~~~~~~~~
     Total energy                =  -1.76117406683819E+04  Eh
     Estimated bandgap (UP spin) =   9.6298E-04  Eh
     Estimated bandgap (DN spin) =  -5.2919E-04  Eh
     RMS occupancy error         =   1.5727E-03
     [H,K] commutator            =   5.8622E-05
     UP spin occupancy bounds    = [  0.002:  1.002]
     DN spin occupancy bounds    = [  0.000:  1.000]
     ~~~~~~~~~~~~~~~~~~~~~~~~~~~~~~~~~~~~~~~~~~~~~~~~~~~~~~~~~~~




################################################################################
########################### NGWF CG iteration  003 #############################
################################################################################

>>> Checking for convergence of NGWFs:   NOT CONVERGED
  ========================================================================
         NGWF RMS gradient =  3.7487E-05 >  1.0000E-06  | above tolerance
  Maximum change in energy =  1.3147E-02 >  1.0000E-07  | above tolerance
  ========================================================================

>>> Improving NGWFs using line search:
  ========================================================================
   Predicted total energy    =      -1.76124448658660E+04 Eh
   Predicted gain in energy  =      -7.04197484101314E-01 Eh
  ========================================================================

Writing NGWFs to file "Cr2I6_bilayer_LT_FM_AFM_nSP.tightbox_ngwfs".... done

>>> Optimising kernel for current NGWFs:
   iter  |      energy (Eh)       | rms gradient |  commutator  |   dE (Eh)
    1        -1.761263873652E+04     3.5849E-04     6.7615E-05
    2        -1.761264890898E+04     3.5355E-04     6.0400E-05    -1.0172E-02
    3        -1.761265736152E+04     3.5070E-04     5.5813E-05    -8.4525E-03
    4        -1.761266468597E+04     3.4905E-04     5.2941E-05    -7.3245E-03
    5        -1.761267124477E+04     3.4804E-04     5.1078E-05    -6.5588E-03
Finished density kernel iterations (   5)

Writing density kernel to file "Cr2I6_bilayer_LT_FM_AFM_nSP.dkn" ... done


>>> Density kernel optimised for the current NGWF basis:
     ~~~~~~~~~~~~~~~~~~~~~~~~~~~~~~~~~~~~~~~~~~~~~~~~~~~~~~~~~~~
     Total energy                =  -1.76126712447738E+04  Eh
     Estimated bandgap (UP spin) =   9.1338E-04  Eh
     Estimated bandgap (DN spin) =  -7.5332E-04  Eh
     RMS occupancy error         =   1.5727E-03
     [H,K] commutator            =   5.1078E-05
     UP spin occupancy bounds    = [  0.002:  1.002]
     DN spin occupancy bounds    = [  0.000:  1.000]
     ~~~~~~~~~~~~~~~~~~~~~~~~~~~~~~~~~~~~~~~~~~~~~~~~~~~~~~~~~~~




################################################################################
########################### NGWF CG iteration  004 #############################
################################################################################

>>> Checking for convergence of NGWFs:   NOT CONVERGED
  ========================================================================
         NGWF RMS gradient =  2.4341E-05 >  1.0000E-06  | above tolerance
  Maximum change in energy =  4.2711E-03 >  1.0000E-07  | above tolerance
  ========================================================================

>>> Improving NGWFs using line search:
  ========================================================================
   Predicted total energy    =      -1.76129385222978E+04 Eh
   Predicted gain in energy  =      -2.67277523991652E-01 Eh
  ========================================================================

Writing NGWFs to file "Cr2I6_bilayer_LT_FM_AFM_nSP.tightbox_ngwfs".... done

>>> Optimising kernel for current NGWFs:
   iter  |      energy (Eh)       | rms gradient |  commutator  |   dE (Eh)
    1        -1.761303269314E+04     3.4828E-04     5.2004E-05
    2        -1.761303869578E+04     3.4740E-04     5.0428E-05    -6.0026E-03
    3        -1.761304440866E+04     3.4664E-04     4.9041E-05    -5.7129E-03
    4        -1.761304986520E+04     3.4599E-04     4.7820E-05    -5.4565E-03
    5        -1.761305509077E+04     3.4542E-04     4.6710E-05    -5.2256E-03
Finished density kernel iterations (   5)

Writing density kernel to file "Cr2I6_bilayer_LT_FM_AFM_nSP.dkn" ... done


>>> Density kernel optimised for the current NGWF basis:
     ~~~~~~~~~~~~~~~~~~~~~~~~~~~~~~~~~~~~~~~~~~~~~~~~~~~~~~~~~~~
     Total energy                =  -1.76130550907750E+04  Eh
     Estimated bandgap (UP spin) =   1.0481E-03  Eh
     Estimated bandgap (DN spin) =  -4.9413E-04  Eh
     RMS occupancy error         =   1.5727E-03
     [H,K] commutator            =   4.6710E-05
     UP spin occupancy bounds    = [  0.002:  1.002]
     DN spin occupancy bounds    = [ -0.000:  1.000]
     ~~~~~~~~~~~~~~~~~~~~~~~~~~~~~~~~~~~~~~~~~~~~~~~~~~~~~~~~~~~




################################################################################
########################### NGWF CG iteration  005 #############################
################################################################################

>>> Checking for convergence of NGWFs:   NOT CONVERGED
  ========================================================================
         NGWF RMS gradient =  1.9160E-05 >  1.0000E-06  | above tolerance
  Maximum change in energy =  1.6156E-03 >  1.0000E-07  | above tolerance
  ========================================================================

>>> Improving NGWFs using line search:
  ========================================================================
   Predicted total energy    =      -1.76131783653994E+04 Eh
   Predicted gain in energy  =      -1.23274624380429E-01 Eh
  ========================================================================

Writing NGWFs to file "Cr2I6_bilayer_LT_FM_AFM_nSP.tightbox_ngwfs".... done

>>> Optimising kernel for current NGWFs:
   iter  |      energy (Eh)       | rms gradient |  commutator  |   dE (Eh)
    1        -1.761320894844E+04     3.4599E-04     4.7715E-05
    2        -1.761321394144E+04     3.4535E-04     4.6564E-05    -4.9930E-03
    3        -1.761321874963E+04     3.4481E-04     4.5581E-05    -4.8082E-03
    4        -1.761322339281E+04     3.4433E-04     4.4691E-05    -4.6432E-03
    5        -1.761322788383E+04     3.4389E-04     4.3863E-05    -4.4910E-03
Finished density kernel iterations (   5)

Writing density kernel to file "Cr2I6_bilayer_LT_FM_AFM_nSP.dkn" ... done


>>> Density kernel optimised for the current NGWF basis:
     ~~~~~~~~~~~~~~~~~~~~~~~~~~~~~~~~~~~~~~~~~~~~~~~~~~~~~~~~~~~
     Total energy                =  -1.76132278838339E+04  Eh
     Estimated bandgap (UP spin) =   8.2638E-04  Eh
     Estimated bandgap (DN spin) =  -8.9760E-04  Eh
     RMS occupancy error         =   1.5727E-03
     [H,K] commutator            =   4.3863E-05
     UP spin occupancy bounds    = [  0.002:  1.002]
     DN spin occupancy bounds    = [ -0.000:  1.000]
     ~~~~~~~~~~~~~~~~~~~~~~~~~~~~~~~~~~~~~~~~~~~~~~~~~~~~~~~~~~~




################################################################################
########################### NGWF CG iteration  006 #############################
################################################################################

>>> Checking for convergence of NGWFs:   NOT CONVERGED
  ========================================================================
         NGWF RMS gradient =  1.5813E-05 >  1.0000E-06  | above tolerance
  Maximum change in energy =  6.6640E-04 >  1.0000E-07  | above tolerance
  ========================================================================

>>> Improving NGWFs using line search:
  ========================================================================
   Predicted total energy    =      -1.76133009677207E+04 Eh
   Predicted gain in energy  =      -7.30838867602870E-02 Eh
  ========================================================================

Writing NGWFs to file "Cr2I6_bilayer_LT_FM_AFM_nSP.tightbox_ngwfs".... done

>>> Optimising kernel for current NGWFs:
[...]
   13        -1.763044462669E+04     3.3370E-04     9.7714E-06    -2.3616E-04
   14        -1.763044485575E+04     3.3369E-04     9.6892E-06    -2.2907E-04
   15        -1.763044508138E+04     3.3368E-04     9.6114E-06    -2.2563E-04
Finished density kernel iterations (  15)

Writing density kernel to file "Cr2I6_bilayer_LT_FM_AFM_nSP.dkn" ... done


>>> Density kernel optimised for the current NGWF basis:
     ~~~~~~~~~~~~~~~~~~~~~~~~~~~~~~~~~~~~~~~~~~~~~~~~~~~~~~~~~~~
     Total energy                =  -1.76304450813804E+04  Eh
     Estimated bandgap (UP spin) =  -1.1899E-02  Eh
     Estimated bandgap (DN spin) =   4.2961E-02  Eh
     RMS occupancy error         =   1.5727E-03
     [H,K] commutator            =   9.6114E-06
     UP spin occupancy bounds    = [  0.002:  1.002]
     DN spin occupancy bounds    = [  0.000:  1.000]
     ~~~~~~~~~~~~~~~~~~~~~~~~~~~~~~~~~~~~~~~~~~~~~~~~~~~~~~~~~~~




################################################################################
########################### NGWF CG iteration  036 #############################
################################################################################

>>> Checking for convergence of NGWFs:   NOT CONVERGED
  ========================================================================
         NGWF RMS gradient =  1.1192E-05 >  1.0000E-06  | above tolerance
  Maximum change in energy =  3.4165E-05 >  1.0000E-07  | above tolerance
  ========================================================================

>>> Improving NGWFs using line search:
  ========================================================================
   Predicted total energy    =      -1.76304652236942E+04 Eh
   Predicted gain in energy  =      -2.01423137441452E-02 Eh
  ========================================================================

Writing NGWFs to file "Cr2I6_bilayer_LT_FM_AFM_nSP.tightbox_ngwfs".... done

>>> Optimising kernel for current NGWFs:
   iter  |      energy (Eh)       | rms gradient |  commutator  |   dE (Eh)
    1        -1.763045849578E+04     3.3367E-04     1.0425E-05
    2        -1.763045874353E+04     3.3364E-04     1.0073E-05    -2.4775E-04
    3        -1.763045898062E+04     3.3362E-04     9.8253E-06    -2.3709E-04
    4        -1.763045920967E+04     3.3362E-04     9.6556E-06    -2.2905E-04
    5        -1.763045943242E+04     3.3361E-04     9.5286E-06    -2.2276E-04
    6        -1.763045965011E+04     3.3361E-04     9.4235E-06    -2.1769E-04
    7        -1.763045986357E+04     3.3360E-04     9.3325E-06    -2.1347E-04
    8        -1.763046007150E+04     3.3359E-04     9.2323E-06    -2.0793E-04
    9        -1.763046027587E+04     3.3358E-04     9.1482E-06    -2.0436E-04
   10        -1.763046047759E+04     3.3358E-04     9.0770E-06    -2.0172E-04
   11        -1.763046067684E+04     3.3357E-04     9.0107E-06    -1.9925E-04
   12        -1.763046087372E+04     3.3356E-04     8.9438E-06    -1.9689E-04
   13        -1.763046106831E+04     3.3355E-04     8.8757E-06    -1.9459E-04
   14        -1.763046125751E+04     3.3355E-04     8.7985E-06    -1.8920E-04
   15        -1.763046144403E+04     3.3354E-04     8.7347E-06    -1.8652E-04
Finished density kernel iterations (  15)

Writing density kernel to file "Cr2I6_bilayer_LT_FM_AFM_nSP.dkn" ... done


>>> Density kernel optimised for the current NGWF basis:
     ~~~~~~~~~~~~~~~~~~~~~~~~~~~~~~~~~~~~~~~~~~~~~~~~~~~~~~~~~~~
     Total energy                =  -1.76304614440299E+04  Eh
     Estimated bandgap (UP spin) =  -1.1666E-02  Eh
     Estimated bandgap (DN spin) =   4.3049E-02  Eh
     RMS occupancy error         =   1.5727E-03
     [H,K] commutator            =   8.7347E-06
     UP spin occupancy bounds    = [  0.002:  1.002]
     DN spin occupancy bounds    = [ -0.000:  1.000]
     ~~~~~~~~~~~~~~~~~~~~~~~~~~~~~~~~~~~~~~~~~~~~~~~~~~~~~~~~~~~




################################################################################
########################### NGWF CG iteration  037 #############################
################################################################################

>>> Checking for convergence of NGWFs:   NOT CONVERGED
  ========================================================================
         NGWF RMS gradient =  1.1080E-05 >  1.0000E-06  | above tolerance
  Maximum change in energy =  3.1051E-05 >  1.0000E-07  | above tolerance
  ========================================================================

>>> Improving NGWFs using line search:
  ========================================================================
   Predicted total energy    =      -1.76304799466049E+04 Eh
   Predicted gain in energy  =      -1.85025750033674E-02 Eh
  ========================================================================

Writing NGWFs to file "Cr2I6_bilayer_LT_FM_AFM_nSP.tightbox_ngwfs".... done

>>> Optimising kernel for current NGWFs:
   iter  |      energy (Eh)       | rms gradient |  commutator  |   dE (Eh)
    1        -1.763047285106E+04     3.3352E-04     9.5065E-06
    2        -1.763047305593E+04     3.3349E-04     9.1651E-06    -2.0488E-04
    3        -1.763047325164E+04     3.3348E-04     8.9315E-06    -1.9570E-04
    4        -1.763047344059E+04     3.3347E-04     8.7824E-06    -1.8895E-04
    5        -1.763047362444E+04     3.3347E-04     8.6711E-06    -1.8385E-04
    6        -1.763047380428E+04     3.3347E-04     8.5833E-06    -1.7984E-04
    7        -1.763047398085E+04     3.3347E-04     8.5087E-06    -1.7657E-04
    8        -1.763047415387E+04     3.3346E-04     8.4148E-06    -1.7302E-04
    9        -1.763047432394E+04     3.3345E-04     8.3408E-06    -1.7007E-04
   10        -1.763047449185E+04     3.3344E-04     8.2775E-06    -1.6791E-04
   11        -1.763047465776E+04     3.3344E-04     8.2196E-06    -1.6591E-04
   12        -1.763047482179E+04     3.3343E-04     8.1701E-06    -1.6403E-04
   13        -1.763047498404E+04     3.3343E-04     8.1202E-06    -1.6225E-04
   14        -1.763047514228E+04     3.3342E-04     8.0478E-06    -1.5824E-04
   15        -1.763047529840E+04     3.3342E-04     7.9938E-06    -1.5612E-04
Finished density kernel iterations (  15)

Writing density kernel to file "Cr2I6_bilayer_LT_FM_AFM_nSP.dkn" ... done


>>> Density kernel optimised for the current NGWF basis:
     ~~~~~~~~~~~~~~~~~~~~~~~~~~~~~~~~~~~~~~~~~~~~~~~~~~~~~~~~~~~
     Total energy                =  -1.76304752983974E+04  Eh
     Estimated bandgap (UP spin) =  -1.1475E-02  Eh
     Estimated bandgap (DN spin) =   4.2965E-02  Eh
     RMS occupancy error         =   1.5727E-03
     [H,K] commutator            =   7.9938E-06
     UP spin occupancy bounds    = [  0.002:  1.002]
     DN spin occupancy bounds    = [ -0.000:  1.000]
     ~~~~~~~~~~~~~~~~~~~~~~~~~~~~~~~~~~~~~~~~~~~~~~~~~~~~~~~~~~~




################################################################################
########################### NGWF CG iteration  038 #############################
################################################################################

>>> Checking for convergence of NGWFs:   NOT CONVERGED
  ========================================================================
         NGWF RMS gradient =  1.0982E-05 >  1.0000E-06  | above tolerance
  Maximum change in energy =  2.8407E-05 >  1.0000E-07  | above tolerance
  ========================================================================

>>> Improving NGWFs using line search:
  ========================================================================
   Predicted total energy    =      -1.76304935235130E+04 Eh
   Predicted gain in energy  =      -1.82251156402344E-02 Eh
  ========================================================================

Writing NGWFs to file "Cr2I6_bilayer_LT_FM_AFM_nSP.tightbox_ngwfs".... done

>>> Optimising kernel for current NGWFs:
   iter  |      energy (Eh)       | rms gradient |  commutator  |   dE (Eh)
    1        -1.763048622218E+04     3.3339E-04     8.7804E-06
    2        -1.763048639575E+04     3.3337E-04     8.4308E-06    -1.7357E-04
    3        -1.763048656099E+04     3.3336E-04     8.2132E-06    -1.6525E-04
    4        -1.763048672032E+04     3.3336E-04     8.0703E-06    -1.5932E-04
    5        -1.763048687521E+04     3.3336E-04     7.9685E-06    -1.5489E-04
    6        -1.763048702667E+04     3.3336E-04     7.8904E-06    -1.5147E-04
    7        -1.763048717541E+04     3.3336E-04     7.8255E-06    -1.4873E-04
    8        -1.763048732159E+04     3.3335E-04     7.7412E-06    -1.4618E-04
    9        -1.763048746540E+04     3.3334E-04     7.6763E-06    -1.4381E-04
   10        -1.763048760746E+04     3.3334E-04     7.6220E-06    -1.4206E-04
   11        -1.763048774791E+04     3.3333E-04     7.5729E-06    -1.4046E-04
   12        -1.763048788686E+04     3.3333E-04     7.5260E-06    -1.3895E-04
   13        -1.763048802438E+04     3.3332E-04     7.4796E-06    -1.3752E-04
   14        -1.763048815867E+04     3.3332E-04     7.4274E-06    -1.3429E-04
   15        -1.763048829141E+04     3.3332E-04     7.3801E-06    -1.3274E-04
Finished density kernel iterations (  15)

Writing density kernel to file "Cr2I6_bilayer_LT_FM_AFM_nSP.dkn" ... done


>>> Density kernel optimised for the current NGWF basis:
     ~~~~~~~~~~~~~~~~~~~~~~~~~~~~~~~~~~~~~~~~~~~~~~~~~~~~~~~~~~~
     Total energy                =  -1.76304882914149E+04  Eh
     Estimated bandgap (UP spin) =  -1.1288E-02  Eh
     Estimated bandgap (DN spin) =   4.3007E-02  Eh
     RMS occupancy error         =   1.5727E-03
     [H,K] commutator            =   7.3801E-06
     UP spin occupancy bounds    = [  0.002:  1.002]
     DN spin occupancy bounds    = [ -0.000:  1.000]
     ~~~~~~~~~~~~~~~~~~~~~~~~~~~~~~~~~~~~~~~~~~~~~~~~~~~~~~~~~~~




################################################################################
########################### NGWF CG iteration  039 #############################
################################################################################

>>> Checking for convergence of NGWFs:   NOT CONVERGED
  ========================================================================
         NGWF RMS gradient =  1.0890E-05 >  1.0000E-06  | above tolerance
  Maximum change in energy =  2.4053E-05 >  1.0000E-07  | above tolerance
  ========================================================================

>>> Improving NGWFs using line search:
  ========================================================================
   Predicted total energy    =      -1.76305061172195E+04 Eh
   Predicted gain in energy  =      -1.78258045852999E-02 Eh
  ========================================================================

Writing NGWFs to file "Cr2I6_bilayer_LT_FM_AFM_nSP.tightbox_ngwfs".... done

>>> Optimising kernel for current NGWFs:
   iter  |      energy (Eh)       | rms gradient |  commutator  |   dE (Eh)
    1        -1.763049867633E+04     3.3329E-04     8.1800E-06
    2        -1.763049882573E+04     3.3327E-04     7.8209E-06    -1.4940E-04
    3        -1.763049896741E+04     3.3326E-04     7.6153E-06    -1.4169E-04
    4        -1.763049910379E+04     3.3326E-04     7.4802E-06    -1.3638E-04
    5        -1.763049923626E+04     3.3326E-04     7.3865E-06    -1.3247E-04
    6        -1.763049936576E+04     3.3326E-04     7.3165E-06    -1.2950E-04
    7        -1.763049949293E+04     3.3326E-04     7.2595E-06    -1.2718E-04
    8        -1.763049961833E+04     3.3325E-04     7.1816E-06    -1.2539E-04
    9        -1.763049974175E+04     3.3325E-04     7.1236E-06    -1.2342E-04
   10        -1.763049986371E+04     3.3325E-04     7.0764E-06    -1.2196E-04
   11        -1.763049998436E+04     3.3324E-04     7.0345E-06    -1.2065E-04
   12        -1.763050010379E+04     3.3324E-04     6.9947E-06    -1.1943E-04
   13        -1.763050022206E+04     3.3324E-04     6.9553E-06    -1.1827E-04
   14        -1.763050033779E+04     3.3323E-04     6.9097E-06    -1.1573E-04
   15        -1.763050045230E+04     3.3323E-04     6.8688E-06    -1.1451E-04
Finished density kernel iterations (  15)

Writing density kernel to file "Cr2I6_bilayer_LT_FM_AFM_nSP.dkn" ... done


>>> Density kernel optimised for the current NGWF basis:
     ~~~~~~~~~~~~~~~~~~~~~~~~~~~~~~~~~~~~~~~~~~~~~~~~~~~~~~~~~~~
     Total energy                =  -1.76305004522996E+04  Eh
     Estimated bandgap (UP spin) =  -1.1129E-02  Eh
     Estimated bandgap (DN spin) =   4.2955E-02  Eh
     RMS occupancy error         =   1.5727E-03
     [H,K] commutator            =   6.8688E-06
     UP spin occupancy bounds    = [  0.002:  1.002]
     DN spin occupancy bounds    = [ -0.000:  1.000]
     ~~~~~~~~~~~~~~~~~~~~~~~~~~~~~~~~~~~~~~~~~~~~~~~~~~~~~~~~~~~




################################################################################
########################### NGWF CG iteration  040 #############################
################################################################################

>>> Checking for convergence of NGWFs:   NOT CONVERGED
  ========================================================================
         NGWF RMS gradient =  1.0803E-05 >  1.0000E-06  | above tolerance
  Maximum change in energy =  2.2557E-05 >  1.0000E-07  | above tolerance
  ========================================================================

>>> Improving NGWFs using line search:
  ========================================================================
   Predicted total energy    =      -1.76305178656142E+04 Eh
   Predicted gain in energy  =      -1.74133145264932E-02 Eh
  ========================================================================

Writing NGWFs to file "Cr2I6_bilayer_LT_FM_AFM_nSP.tightbox_ngwfs".... done

>>> Optimising kernel for current NGWFs:
   iter  |      energy (Eh)       | rms gradient |  commutator  |   dE (Eh)
    1        -1.763051031079E+04     3.3320E-04     7.6615E-06
    2        -1.763051044080E+04     3.3318E-04     7.3102E-06    -1.3001E-04
    3        -1.763051056384E+04     3.3318E-04     7.1134E-06    -1.2303E-04
    4        -1.763051068212E+04     3.3318E-04     6.9860E-06    -1.1828E-04
    5        -1.763051079695E+04     3.3318E-04     6.9042E-06    -1.1483E-04
    6        -1.763051090921E+04     3.3318E-04     6.8463E-06    -1.1226E-04
    7        -1.763051101949E+04     3.3318E-04     6.8004E-06    -1.1028E-04
    8        -1.763051112856E+04     3.3317E-04     6.7107E-06    -1.0906E-04
    9        -1.763051123583E+04     3.3317E-04     6.6608E-06    -1.0727E-04
   10        -1.763051134187E+04     3.3317E-04     6.6210E-06    -1.0604E-04
   11        -1.763051144684E+04     3.3316E-04     6.5852E-06    -1.0497E-04
   12        -1.763051155082E+04     3.3316E-04     6.5505E-06    -1.0398E-04
   13        -1.763051165387E+04     3.3316E-04     6.5158E-06    -1.0304E-04
   14        -1.763051175490E+04     3.3316E-04     6.4745E-06    -1.0103E-04
   15        -1.763051185493E+04     3.3315E-04     6.4386E-06    -1.0003E-04
Finished density kernel iterations (  15)

Writing density kernel to file "Cr2I6_bilayer_LT_FM_AFM_nSP.dkn" ... done


>>> Density kernel optimised for the current NGWF basis:
     ~~~~~~~~~~~~~~~~~~~~~~~~~~~~~~~~~~~~~~~~~~~~~~~~~~~~~~~~~~~
     Total energy                =  -1.76305118549277E+04  Eh
     Estimated bandgap (UP spin) =  -1.0956E-02  Eh
     Estimated bandgap (DN spin) =   4.2898E-02  Eh
     RMS occupancy error         =   1.5727E-03
     [H,K] commutator            =   6.4386E-06
     UP spin occupancy bounds    = [  0.002:  1.002]
     DN spin occupancy bounds    = [ -0.000:  1.000]
     ~~~~~~~~~~~~~~~~~~~~~~~~~~~~~~~~~~~~~~~~~~~~~~~~~~~~~~~~~~~




################################################################################
########################### NGWF CG iteration  041 #############################
################################################################################

>>> Checking for convergence of NGWFs:   NOT CONVERGED
  ========================================================================
         NGWF RMS gradient =  1.0721E-05 >  1.0000E-06  | above tolerance
  Maximum change in energy =  2.1113E-05 >  1.0000E-07  | above tolerance
  ========================================================================

>>> Improving NGWFs using line search:
  ========================================================================
   Predicted total energy    =      -1.76305281862270E+04 Eh
   Predicted gain in energy  =      -1.63312993172440E-02 Eh
  ========================================================================

Writing NGWFs to file "Cr2I6_bilayer_LT_FM_AFM_nSP.tightbox_ngwfs".... done

>>> Optimising kernel for current NGWFs:
   iter  |      energy (Eh)       | rms gradient |  commutator  |   dE (Eh)
    1        -1.763052046633E+04     3.3312E-04     7.0501E-06
    2        -1.763052057751E+04     3.3311E-04     6.8044E-06    -1.1117E-04
    3        -1.763052068388E+04     3.3311E-04     6.6427E-06    -1.0637E-04
    4        -1.763052078675E+04     3.3311E-04     6.5377E-06    -1.0287E-04
    5        -1.763052088700E+04     3.3311E-04     6.4725E-06    -1.0025E-04
    6        -1.763052098528E+04     3.3311E-04     6.4235E-06    -9.8278E-05
    7        -1.763052108203E+04     3.3311E-04     6.3800E-06    -9.6743E-05
    8        -1.763052117770E+04     3.3311E-04     6.3075E-06    -9.5676E-05
    9        -1.763052127201E+04     3.3310E-04     6.2656E-06    -9.4313E-05
   10        -1.763052136538E+04     3.3310E-04     6.2318E-06    -9.3362E-05
   11        -1.763052145788E+04     3.3310E-04     6.2004E-06    -9.2508E-05
   12        -1.763052154958E+04     3.3310E-04     6.1697E-06    -9.1700E-05
   13        -1.763052164051E+04     3.3309E-04     6.1391E-06    -9.0922E-05
   14        -1.763052172974E+04     3.3309E-04     6.1041E-06    -8.9235E-05
   15        -1.763052181818E+04     3.3309E-04     6.0749E-06    -8.8442E-05
Finished density kernel iterations (  15)

Writing density kernel to file "Cr2I6_bilayer_LT_FM_AFM_nSP.dkn" ... done


>>> Density kernel optimised for the current NGWF basis:
     ~~~~~~~~~~~~~~~~~~~~~~~~~~~~~~~~~~~~~~~~~~~~~~~~~~~~~~~~~~~
     Total energy                =  -1.76305218181823E+04  Eh
     Estimated bandgap (UP spin) =  -1.0824E-02  Eh
     Estimated bandgap (DN spin) =   4.2876E-02  Eh
     RMS occupancy error         =   1.5727E-03
     [H,K] commutator            =   6.0749E-06
     UP spin occupancy bounds    = [  0.002:  1.002]
     DN spin occupancy bounds    = [ -0.000:  1.000]
     ~~~~~~~~~~~~~~~~~~~~~~~~~~~~~~~~~~~~~~~~~~~~~~~~~~~~~~~~~~~




################################################################################
########################### NGWF CG iteration  042 #############################
################################################################################

>>> Checking for convergence of NGWFs:   NOT CONVERGED
  ========================================================================
         NGWF RMS gradient =  1.0651E-05 >  1.0000E-06  | above tolerance
  Maximum change in energy =  1.9796E-05 >  1.0000E-07  | above tolerance
  ========================================================================

>>> Improving NGWFs using line search:
  ========================================================================
   Predicted total energy    =      -1.76305379846972E+04 Eh
   Predicted gain in energy  =      -1.61665149207693E-02 Eh
  ========================================================================

Writing NGWFs to file "Cr2I6_bilayer_LT_FM_AFM_nSP.tightbox_ngwfs".... done

>>> Optimising kernel for current NGWFs:
   iter  |      energy (Eh)       | rms gradient |  commutator  |   dE (Eh)
    1        -1.763053011341E+04     3.3306E-04     6.6975E-06
    2        -1.763053021272E+04     3.3305E-04     6.4497E-06    -9.9311E-05

onetep_launcher: !!! ONETEP finished with an error

************************************************
*** onetep_launcher terminated               ***
************************************************
