==================================================================================
It's Thu 29 May 2025 03:41:22 PM BST.
*** Starting onetep_launcher (node nid001490, PIDs 211845 211846 211847 211848 211849 211850)...
    - ONETEP arguments: Cr2I6_bilayer_LT_FM_AFM_SP.dat
    - Current directory: /mnt/lustre/a2fs-work3/work/e89/e89/phsmea/CrI3_onetep_U/U_2.97/LT_FM/LT_FM_AFM/sp
    - Launcher executable directory: /mnt/lustre/a2fs-work3/work/e89/e89/phsmea/CrI3_onetep_U/U_2.97/LT_FM/LT_FM_AFM/sp
    - (-e) ONETEP executable specified through command-line: /work/e89/e89/phsmea/onetep.archer2_2024_cray
      ... trying /work/e89/e89/phsmea/onetep.archer2_2024_cray
          -> looks OK
*** Setting up environment...
    - (-s) Process stack size: unlimited
    - (-t) OMP_NUM_THREADS: 16
    - (-o) OMP_STACKSIZE: 64M
    - (-c) Maximum core file size: 2048000
    - (-d) decfort_dump_flag: n
    - (-m) I_MPI_OFA_TRANSLATION_CACHE: 0
    - (-m) I_MPI_DAPL_TRANSLATION_CACHE: 0
    - (-m) I_MPI_DAPL_UD_TRANSLATION_CACHE: 0
*** Starting ONETEP...
    - /work/e89/e89/phsmea/onetep.archer2_2024_cray Cr2I6_bilayer_LT_FM_AFM_SP.dat
=================================================================================
_________________________________________________________________________________
 +---------------------------------------------------------------+
 |                                                               |
 |        ####### #     # ####### ####### ####### ######         |
 |        #     # ##    # #          #    #       #     #        |
 |        #     # # #   # #          #    #       #     #        |
 |        #     # #  #  # #####      #    #####   ######         |
 |        #     # #   # # #          #    #       #              |
 |        #     # #    ## #          #    #       #              |
 |        ####### #     # #######    #    ####### #              |
 |                                                               |
 |        Linear-Scaling Ab Initio Total Energy Program          |
 |                                                               |
 |          Release for academic collaborators of ODG            |
 |                                             Version 7.3.0     |
 | Remote: git@github.com:Miesaz/onetep_mea.git                  |
 | Local branch: master                                          |
 | Commit ID: 4af45e89288c8df5499704252eec3e032ee3d0c8           |
 | Date: Tue Aug 6 11:28:44 2024 +0100                           |
 | Working tree clean                                            |
 |                                                               |
 +---------------------------------------------------------------+
 |                                                               |
 |  Authors:                                                     |
 |  Jacek Dziedzic, Peter D. Haynes, Nicholas D. M. Hine,        |
 |  Arash A. Mostofi, Mike C. Payne and Chris-Kriton Skylaris    |
 |                                                               |
 |  Contributors:                                                |
 |  J. Aarons, L. Andrinopoulos, P. W. Avraam, R. A. Bell,       |
 |  A. Bhandari, G. A. Bramley, R. J. Charlton, S. J. Clark,     |
 |  R. J. Clements, G. C. Constantinescu, F. Corsetti,           |
 |  N. Corsini, O. Dieguez, S. M. M. Dubois, K. K. B. Duff,      |
 |  J. M. Escartin, M. Escobar Azor, A. Greco,                   |
 |  H. Helal, Q. O. Hill, L. P. Lee, J.-H. Li,                   |
 |  T. Li, E. B. Linscott, G. Moynihan, D. D. O`Regan,           |
 |  O. K. Okan, E. Parkinson, M. J. S. Phipps,                   |
 |  C. J. Pickard, J. C. A. Prentice, M. I. J. Probert,          |
 |  L. E. Ratcliff, M. Robinson, A. Ruiz Serrano,                |
 |  M. dos Santos Dias, J. S. Spencer, E. W. Tait,               |
 |  G. Teobaldi, D. Turban, V. Vitale, K. A. Wilkinson,          |
 |  C. Weber, J. C. Womack, Chengcheng Xiao, N. Yeung,           |
 |  and T. J. Zuehlsdorff.                                       |
 |                                                               |
 |                                   Copyright (c) 2004-2024     |
 |                                                               |
 |  Please cite:                                                 |
 |  "The ONETEP linear-scaling density functional theory program"|
 |   J. Chem. Phys. 152(17) 174111 (2020)                        |
 |                                                               |
 |          in all publications arising from your use of ONETEP. |
 |                                                               |
 +---------------------------------------------------------------+
 |                                                               |
 |   ONETEP is based on developments described in the following  |
 |   publications:                                               |
 |                                                               |
 |  "Nonorthogonal generalized Wannier function pseudopotential  |
 |   plane-wave method".                                         |
 |   C.-K. Skylaris, A. A. Mostofi, P. D. Haynes, O. Dieguez,    |
 |   M. C. Payne.                                                |
 |   Phys. Rev. B 66 035119 (2002).                              |
 |                                                               |
 |  "Preconditioned iterative minimization for linear-scaling    |
 |   electronic structure calculations".                         |
 |   A. A. Mostofi, P. D. Haynes, C.-K. Skylaris, M. C. Payne.   |
 |   J. Chem. Phys. 119(17), pp.8842-8848 (2003).                |
 |                                                               |
 |  "Total-energy calculations on a real space grid with         |
 |   localized functions and a plane-wave basis".                |
 |   A. A. Mostofi, C.-K. Skylaris, P. D. Haynes, M. C. Payne.   |
 |   Comput. Phys. Commun. 147, pp.788-802 (2002).               |
 |                                                               |
 |  "Accurate kinetic energy evaluation in electronic structure  |
 |   calculations with localized functions on real space grids"  |
 |   C.-K. Skylaris, A. A. Mostofi, P. D. Haynes, C. J. Pickard, |
 |   M. C. Payne.                                                |
 |   Comput. Phys. Commun. 140, pp.315-322 (2001).               |
 |                                                               |
 |  "Accurate ionic forces and geometry optimization in linear-  |
 |   scaling density-functional theory with local orbitals"      |
 |   N. D. M. Hine, M. Robinson, P. D. Haynes, C.-K. Skylaris,   |
 |   M. C. Payne, and A. A. Mostofi.                             |
 |   Phys. Rev. B 83 195102 (2011).                              |
 |                                                               |
 +---------------------------------------------------------------+

Job started: 29-05-2025 15:41 (+0100)
 
Reading parameters from file "Cr2I6_bilayer_LT_FM_AFM_SP.dat" ...... done

If your calculation crashes here, before "Checking processes and threads..."
is displayed, then your stack size is insufficient.
If so, use "ulimit -s unlimited" at runtime.
You can disable this check with "check_stack_size F".

Checking processes and threads...
      Default threads: 16
   Running with 150 MPI processes.
   There are 6 MPI processes running on the same node as the root process.
   Each MPI process is using: 
               1 threads for simulation cell FFTs.
               1 threads for threaded FFT box operations.
              16 threads for loops over batched FFT box operations.
              16 threads in other parallel regions.
   MPI Interface: S1 (use mpi_f08) (-DMPI -DUSE_MPI_F08).
   MPI_ASYNC_PROTECTS_NONBLOCKING: Yes. MPI_SUBARRAYS_SUPPORTED: Yes.
   FFTW Interface: OMP-capable and MODERN. (-DUSE_MODERN_FFTW specified).
   GPU Interface: None.
   GPU FFT Backend: None.
... done

Basic input checks...... done

Reading geometry and species blocks from file "Cr2I6_bilayer_LT_FM_AFM_SP.dat" ...... done


--------------------------------------------------------------------------------
---------------------------------- INPUT FILE ----------------------------------
--------------------------------------------------------------------------------

charge : 0                                                                      
cutoff_energy : 1000 eV                                                         
delta_e_conv : F                                                                
do_properties : T                                                               
edft : F                                                                        
edft_init_maxit : 15                                                            
elec_energy_tol : 1e-07 Ha                                                      
fine_grid_scale : 4                                                             
forces_output_detail : VERBOSE                                                  
MAXIT_LNV     : 15                                                              
MINIT_LNV     : 5                                                               
maxit_ngwf_cg : 100                                                             
ngwf_threshold_orig : 1e-06                                                     
ngwfs_spin_polarized : T                                                        
output_detail : NORMAL                                                          
paw : T                                                                         
read_denskern : F                                                               
read_hamiltonian : F                                                            
read_tightbox_ngwfs : F                                                         
spin : 0                                                                        
spin_polarized : T                                                              
task : SinglePoint                                                              
write_denskern : T                                                              
write_forces : T                                                                
write_hamiltonian : T                                                           
write_tightbox_ngwfs : T                                                        
xc_functional : PBE                                                             
%BLOCK LATTICE_CART                                                             
ang                                                                             
41.261892132    0.000000000    0.000000000                                      
-20.630946066   35.733846792    0.000000000                                     
0.000000000    0.000000000   27.507928088                                       
%ENDBLOCK LATTICE_CART                                                          
%BLOCK POSITIONS_ABS                                                            
ang                                                                             
Cr       2.29230603       3.97040895      17.03520929                           
Cr      -1.14615438       5.95565340      17.04368562                           
I        3.29127824       1.97929933      15.50172901                           
I        0.06846335       4.10088269      15.50172980                           
I       -3.35976942       5.83112629      15.50174515                           
I        1.29815293       1.98813153      18.57647573                           
I        1.07268127       5.82255136      18.57647595                           
I       -2.37086124       4.10061929      18.57646027                           
Cr1      5.73080703       1.98523473      10.46423698                           
Cr1      2.29229229       3.97042256      10.47271549                           
I        6.72497778      -0.00289519       8.93147663                           
I        3.51196949       2.11831465       8.93145308                           
I        0.07849930       3.84024628       8.93144278                           
I        4.73186155       0.00594958      12.00619783                           
I        4.51617900       3.83998833      12.00619302                           
I        1.06740595       2.10972815      12.00620106                           
Cr      -1.14618498       9.92605008      17.03520929                           
Cr      -4.58464539      11.91129453      17.04368562                           
I       -0.14721277       7.93494046      15.50172901                           
I       -3.37002766      10.05652383      15.50172980                           
I       -6.79826043      11.78676742      15.50174515                           
I       -2.14033808       7.94377266      18.57647573                           
I       -2.36580974      11.77819249      18.57647595                           
I       -5.80935225      10.05626043      18.57646027                           
Cr1      2.29231601       7.94087586      10.46423698                           
Cr1     -1.14619872       9.92606369      10.47271549                           
I        3.28648677       5.95274594       8.93147663                           
I        0.07347848       8.07395578       8.93145308                           
I       -3.35999171       9.79588741       8.93144278                           
I        1.29337054       5.96159071      12.00619783                           
I        1.07768799       9.79562946      12.00619302                           
I       -2.37108506       8.06536928      12.00620106                           
Cr      -4.58467600      15.88169122      17.03520929                           
Cr      -8.02313640      17.86693567      17.04368562                           
I       -3.58570378      13.89058160      15.50172901                           
I       -6.80851867      16.01216496      15.50172980                           
I      -10.23675144      17.74240855      15.50174515                           
I       -5.57882909      13.89941380      18.57647573                           
I       -5.80430075      17.73383362      18.57647595                           
I       -9.24784326      16.01190156      18.57646027                           
Cr1     -1.14617500      13.89651700      10.46423698                           
Cr1     -4.58468973      15.88170482      10.47271549                           
I       -0.15200424      11.90838708       8.93147663                           
I       -3.36501253      14.02959691       8.93145308                           
I       -6.79848272      15.75152855       8.93144278                           
I       -2.14512047      11.91723184      12.00619783                           
I       -2.36080302      15.75127059      12.00619302                           
I       -5.80957607      14.02101041      12.00620106                           
Cr      -8.02316701      21.83733235      17.03520929                           
Cr     -11.46162741      23.82257680      17.04368562                           
I       -7.02419479      19.84622273      15.50172901                           
I      -10.24700968      21.96780609      15.50172980                           
I      -13.67524245      23.69804968      15.50174515                           
I       -9.01732010      19.85505493      18.57647573                           
I       -9.24279176      23.68947476      18.57647595                           
I      -12.68633427      21.96754269      18.57646027                           
Cr1     -4.58466601      19.85215813      10.46423698                           
Cr1     -8.02318074      21.83734595      10.47271549                           
I       -3.59049526      17.86402821       8.93147663                           
I       -6.80350354      19.98523804       8.93145308                           
I      -10.23697373      21.70716968       8.93144278                           
I       -5.58361148      17.87287297      12.00619783                           
I       -5.79929403      21.70691172      12.00619302                           
I       -9.24806708      19.97665154      12.00620106                           
Cr     -11.46165802      27.79297348      17.03520929                           
Cr     -14.90011843      29.77821793      17.04368562                           
I      -10.46268580      25.80186386      15.50172901                           
I      -13.68550069      27.92344722      15.50172980                           
I      -17.11373346      29.65369082      15.50174515                           
I      -12.45581112      25.81069606      18.57647573                           
I      -12.68128277      29.64511589      18.57647595                           
I      -16.12482528      27.92318382      18.57646027                           
Cr1     -8.02315702      25.80779926      10.46423698                           
Cr1    -11.46167176      27.79298708      10.47271549                           
I       -7.02898627      23.81966934       8.93147663                           
I      -10.24199455      25.94087917       8.93145308                           
I      -13.67546474      27.66281081       8.93144278                           
I       -9.02210249      23.82851411      12.00619783                           
I       -9.23778504      27.66255286      12.00619302                           
I      -12.68655809      25.93229268      12.00620106                           
Cr     -14.90014903      33.74861461      17.03520929                           
Cr     -18.33860944      35.73385906      17.04368562                           
I      -13.90117681      31.75750499      15.50172901                           
I      -17.12399170      33.87908835      15.50172980                           
I      -20.55222447      35.60933195      15.50174515                           
I      -15.89430213      31.76633719      18.57647573                           
I      -16.11977378      35.60075702      18.57647595                           
I      -19.56331629      33.87882495      18.57646027                           
Cr1    -11.46164803      31.76344039      10.46423698                           
Cr1    -14.90016277      33.74862822      10.47271549                           
I      -10.46747728      29.77531047       8.93147663                           
I      -13.68048556      31.89652031       8.93145308                           
I      -17.11395575      33.61845194       8.93144278                           
I      -12.46059350      29.78415524      12.00619783                           
I      -12.67627606      33.61819399      12.00619302                           
I      -16.12504910      31.88793381      12.00620106                           
Cr       9.16928805       3.97040895      17.03520929                           
Cr       5.73082764       5.95565340      17.04368562                           
I       10.16826026       1.97929933      15.50172901                           
I        6.94544538       4.10088269      15.50172980                           
I        3.51721261       5.83112629      15.50174515                           
I        8.17513495       1.98813153      18.57647573                           
I        7.94966330       5.82255136      18.57647595                           
I        4.50612079       4.10061929      18.57646027                           
Cr1     12.60778905       1.98523473      10.46423698                           
Cr1      9.16927431       3.97042256      10.47271549                           
I       13.60195980      -0.00289519       8.93147663                           
I       10.38895151       2.11831465       8.93145308                           
I        6.95548132       3.84024628       8.93144278                           
I       11.60884358       0.00594958      12.00619783                           
I       11.39316102       3.83998833      12.00619302                           
I        7.94438798       2.10972815      12.00620106                           
Cr       5.73079704       9.92605008      17.03520929                           
Cr       2.29233663      11.91129453      17.04368562                           
I        6.72976925       7.93494046      15.50172901                           
I        3.50695437      10.05652383      15.50172980                           
I        0.07872159      11.78676742      15.50174515                           
I        4.73664394       7.94377266      18.57647573                           
I        4.51117228      11.77819249      18.57647595                           
I        1.06762977      10.05626043      18.57646027                           
Cr1      9.16929804       7.94087586      10.46423698                           
Cr1      5.73078330       9.92606369      10.47271549                           
I       10.16346879       5.95274594       8.93147663                           
I        6.95046050       8.07395578       8.93145308                           
I        3.51699031       9.79588741       8.93144278                           
I        8.17035256       5.96159071      12.00619783                           
I        7.95467001       9.79562946      12.00619302                           
I        4.50589697       8.06536928      12.00620106                           
Cr       2.29230603      15.88169122      17.03520929                           
Cr      -1.14615438      17.86693567      17.04368562                           
I        3.29127824      13.89058160      15.50172901                           
I        0.06846335      16.01216496      15.50172980                           
I       -3.35976942      17.74240855      15.50174515                           
I        1.29815293      13.89941380      18.57647573                           
I        1.07268127      17.73383362      18.57647595                           
I       -2.37086124      16.01190156      18.57646027                           
Cr1      5.73080703      13.89651700      10.46423698                           
Cr1      2.29229229      15.88170482      10.47271549                           
I        6.72497778      11.90838708       8.93147663                           
I        3.51196949      14.02959691       8.93145308                           
I        0.07849930      15.75152855       8.93144278                           
I        4.73186155      11.91723184      12.00619783                           
I        4.51617900      15.75127059      12.00619302                           
I        1.06740595      14.02101041      12.00620106                           
Cr      -1.14618498      21.83733235      17.03520929                           
Cr      -4.58464539      23.82257680      17.04368562                           
I       -0.14721277      19.84622273      15.50172901                           
I       -3.37002766      21.96780609      15.50172980                           
I       -6.79826043      23.69804968      15.50174515                           
I       -2.14033808      19.85505493      18.57647573                           
I       -2.36580974      23.68947476      18.57647595                           
I       -5.80935225      21.96754269      18.57646027                           
Cr1      2.29231601      19.85215813      10.46423698                           
Cr1     -1.14619872      21.83734595      10.47271549                           
I        3.28648677      17.86402821       8.93147663                           
I        0.07347848      19.98523804       8.93145308                           
I       -3.35999171      21.70716968       8.93144278                           
I        1.29337054      17.87287297      12.00619783                           
I        1.07768799      21.70691172      12.00619302                           
I       -2.37108506      19.97665154      12.00620106                           
Cr      -4.58467600      27.79297348      17.03520929                           
Cr      -8.02313640      29.77821793      17.04368562                           
I       -3.58570378      25.80186386      15.50172901                           
I       -6.80851867      27.92344722      15.50172980                           
I      -10.23675144      29.65369082      15.50174515                           
I       -5.57882909      25.81069606      18.57647573                           
I       -5.80430075      29.64511589      18.57647595                           
I       -9.24784326      27.92318382      18.57646027                           
Cr1     -1.14617500      25.80779926      10.46423698                           
Cr1     -4.58468973      27.79298708      10.47271549                           
I       -0.15200424      23.81966934       8.93147663                           
I       -3.36501253      25.94087917       8.93145308                           
I       -6.79848272      27.66281081       8.93144278                           
I       -2.14512047      23.82851411      12.00619783                           
I       -2.36080302      27.66255286      12.00619302                           
I       -5.80957607      25.93229268      12.00620106                           
Cr      -8.02316701      33.74861461      17.03520929                           
Cr     -11.46162741      35.73385906      17.04368562                           
I       -7.02419479      31.75750499      15.50172901                           
I      -10.24700968      33.87908835      15.50172980                           
I      -13.67524245      35.60933195      15.50174515                           
I       -9.01732010      31.76633719      18.57647573                           
I       -9.24279176      35.60075702      18.57647595                           
I      -12.68633427      33.87882495      18.57646027                           
Cr1     -4.58466601      31.76344039      10.46423698                           
Cr1     -8.02318074      33.74862822      10.47271549                           
I       -3.59049526      29.77531047       8.93147663                           
I       -6.80350354      31.89652031       8.93145308                           
I      -10.23697373      33.61845194       8.93144278                           
I       -5.58361148      29.78415524      12.00619783                           
I       -5.79929403      33.61819399      12.00619302                           
I       -9.24806708      31.88793381      12.00620106                           
Cr      16.04627007       3.97040895      17.03520929                           
Cr      12.60780966       5.95565340      17.04368562                           
I       17.04524228       1.97929933      15.50172901                           
I       13.82242740       4.10088269      15.50172980                           
I       10.39419463       5.83112629      15.50174515                           
I       15.05211697       1.98813153      18.57647573                           
I       14.82664532       5.82255136      18.57647595                           
I       11.38310281       4.10061929      18.57646027                           
Cr1     19.48477107       1.98523473      10.46423698                           
Cr1     16.04625633       3.97042256      10.47271549                           
I       20.47894182      -0.00289519       8.93147663                           
I       17.26593353       2.11831465       8.93145308                           
I       13.83246335       3.84024628       8.93144278                           
I       18.48582560       0.00594958      12.00619783                           
I       18.27014304       3.83998833      12.00619302                           
I       14.82137000       2.10972815      12.00620106                           
Cr      12.60777906       9.92605008      17.03520929                           
Cr       9.16931865      11.91129453      17.04368562                           
I       13.60675127       7.93494046      15.50172901                           
I       10.38393639      10.05652383      15.50172980                           
I        6.95570362      11.78676742      15.50174515                           
I       11.61362596       7.94377266      18.57647573                           
I       11.38815431      11.77819249      18.57647595                           
I        7.94461180      10.05626043      18.57646027                           
Cr1     16.04628006       7.94087586      10.46423698                           
Cr1     12.60776532       9.92606369      10.47271549                           
I       17.04045081       5.95274594       8.93147663                           
I       13.82744252       8.07395578       8.93145308                           
I       10.39397233       9.79588741       8.93144278                           
I       15.04733459       5.96159071      12.00619783                           
I       14.83165203       9.79562946      12.00619302                           
I       11.38287899       8.06536928      12.00620106                           
Cr       9.16928805      15.88169122      17.03520929                           
Cr       5.73082764      17.86693567      17.04368562                           
I       10.16826026      13.89058160      15.50172901                           
I        6.94544538      16.01216496      15.50172980                           
I        3.51721261      17.74240855      15.50174515                           
I        8.17513495      13.89941380      18.57647573                           
I        7.94966330      17.73383362      18.57647595                           
I        4.50612079      16.01190156      18.57646027                           
Cr1     12.60778905      13.89651700      10.46423698                           
Cr1      9.16927431      15.88170482      10.47271549                           
I       13.60195980      11.90838708       8.93147663                           
I       10.38895151      14.02959691       8.93145308                           
I        6.95548132      15.75152855       8.93144278                           
I       11.60884358      11.91723184      12.00619783                           
I       11.39316102      15.75127059      12.00619302                           
I        7.94438798      14.02101041      12.00620106                           
Cr       5.73079704      21.83733235      17.03520929                           
Cr       2.29233663      23.82257680      17.04368562                           
I        6.72976925      19.84622273      15.50172901                           
I        3.50695437      21.96780609      15.50172980                           
I        0.07872159      23.69804968      15.50174515                           
I        4.73664394      19.85505493      18.57647573                           
I        4.51117228      23.68947476      18.57647595                           
I        1.06762977      21.96754269      18.57646027                           
Cr1      9.16929804      19.85215813      10.46423698                           
Cr1      5.73078330      21.83734595      10.47271549                           
I       10.16346879      17.86402821       8.93147663                           
I        6.95046050      19.98523804       8.93145308                           
I        3.51699031      21.70716968       8.93144278                           
I        8.17035256      17.87287297      12.00619783                           
I        7.95467001      21.70691172      12.00619302                           
I        4.50589697      19.97665154      12.00620106                           
Cr       2.29230603      27.79297348      17.03520929                           
Cr      -1.14615438      29.77821793      17.04368562                           
I        3.29127824      25.80186386      15.50172901                           
I        0.06846335      27.92344722      15.50172980                           
I       -3.35976942      29.65369082      15.50174515                           
I        1.29815293      25.81069606      18.57647573                           
I        1.07268127      29.64511589      18.57647595                           
I       -2.37086124      27.92318382      18.57646027                           
Cr1      5.73080703      25.80779926      10.46423698                           
Cr1      2.29229229      27.79298708      10.47271549                           
I        6.72497778      23.81966934       8.93147663                           
I        3.51196949      25.94087917       8.93145308                           
I        0.07849930      27.66281081       8.93144278                           
I        4.73186155      23.82851411      12.00619783                           
I        4.51617900      27.66255286      12.00619302                           
I        1.06740595      25.93229268      12.00620106                           
Cr      -1.14618498      33.74861461      17.03520929                           
Cr      -4.58464539      35.73385906      17.04368562                           
I       -0.14721277      31.75750499      15.50172901                           
I       -3.37002766      33.87908835      15.50172980                           
I       -6.79826043      35.60933195      15.50174515                           
I       -2.14033808      31.76633719      18.57647573                           
I       -2.36580974      35.60075702      18.57647595                           
I       -5.80935225      33.87882495      18.57646027                           
Cr1      2.29231601      31.76344039      10.46423698                           
Cr1     -1.14619872      33.74862822      10.47271549                           
I        3.28648677      29.77531047       8.93147663                           
I        0.07347848      31.89652031       8.93145308                           
I       -3.35999171      33.61845194       8.93144278                           
I        1.29337054      29.78415524      12.00619783                           
I        1.07768799      33.61819399      12.00619302                           
I       -2.37108506      31.88793381      12.00620106                           
Cr      22.92325209       3.97040895      17.03520929                           
Cr      19.48479168       5.95565340      17.04368562                           
I       23.92222431       1.97929933      15.50172901                           
I       20.69940942       4.10088269      15.50172980                           
I       17.27117665       5.83112629      15.50174515                           
I       21.92909899       1.98813153      18.57647573                           
I       21.70362734       5.82255136      18.57647595                           
I       18.26008483       4.10061929      18.57646027                           
Cr1     26.36175309       1.98523473      10.46423698                           
Cr1     22.92323835       3.97042256      10.47271549                           
I       27.35592384      -0.00289519       8.93147663                           
I       24.14291556       2.11831465       8.93145308                           
I       20.70944537       3.84024628       8.93144278                           
I       25.36280762       0.00594958      12.00619783                           
I       25.14712507       3.83998833      12.00619302                           
I       21.69835202       2.10972815      12.00620106                           
Cr      19.48476108       9.92605008      17.03520929                           
Cr      16.04630067      11.91129453      17.04368562                           
I       20.48373330       7.93494046      15.50172901                           
I       17.26091841      10.05652383      15.50172980                           
I       13.83268564      11.78676742      15.50174515                           
I       18.49060798       7.94377266      18.57647573                           
I       18.26513633      11.77819249      18.57647595                           
I       14.82159382      10.05626043      18.57646027                           
Cr1     22.92326208       7.94087586      10.46423698                           
Cr1     19.48474734       9.92606369      10.47271549                           
I       23.91743283       5.95274594       8.93147663                           
I       20.70442455       8.07395578       8.93145308                           
I       17.27095436       9.79588741       8.93144278                           
I       21.92431661       5.96159071      12.00619783                           
I       21.70863405       9.79562946      12.00619302                           
I       18.25986101       8.06536928      12.00620106                           
Cr      16.04627007      15.88169122      17.03520929                           
Cr      12.60780966      17.86693567      17.04368562                           
I       17.04524228      13.89058160      15.50172901                           
I       13.82242740      16.01216496      15.50172980                           
I       10.39419463      17.74240855      15.50174515                           
I       15.05211697      13.89941380      18.57647573                           
I       14.82664532      17.73383362      18.57647595                           
I       11.38310281      16.01190156      18.57646027                           
Cr1     19.48477107      13.89651700      10.46423698                           
Cr1     16.04625633      15.88170482      10.47271549                           
I       20.47894182      11.90838708       8.93147663                           
I       17.26593353      14.02959691       8.93145308                           
I       13.83246335      15.75152855       8.93144278                           
I       18.48582560      11.91723184      12.00619783                           
I       18.27014304      15.75127059      12.00619302                           
I       14.82137000      14.02101041      12.00620106                           
Cr      12.60777906      21.83733235      17.03520929                           
Cr       9.16931865      23.82257680      17.04368562                           
I       13.60675127      19.84622273      15.50172901                           
I       10.38393639      21.96780609      15.50172980                           
I        6.95570362      23.69804968      15.50174515                           
I       11.61362596      19.85505493      18.57647573                           
I       11.38815431      23.68947476      18.57647595                           
I        7.94461180      21.96754269      18.57646027                           
Cr1     16.04628006      19.85215813      10.46423698                           
Cr1     12.60776532      21.83734595      10.47271549                           
I       17.04045081      17.86402821       8.93147663                           
I       13.82744252      19.98523804       8.93145308                           
I       10.39397233      21.70716968       8.93144278                           
I       15.04733459      17.87287297      12.00619783                           
I       14.83165203      21.70691172      12.00619302                           
I       11.38287899      19.97665154      12.00620106                           
Cr       9.16928805      27.79297348      17.03520929                           
Cr       5.73082764      29.77821793      17.04368562                           
I       10.16826026      25.80186386      15.50172901                           
I        6.94544538      27.92344722      15.50172980                           
I        3.51721261      29.65369082      15.50174515                           
I        8.17513495      25.81069606      18.57647573                           
I        7.94966330      29.64511589      18.57647595                           
I        4.50612079      27.92318382      18.57646027                           
Cr1     12.60778905      25.80779926      10.46423698                           
Cr1      9.16927431      27.79298708      10.47271549                           
I       13.60195980      23.81966934       8.93147663                           
I       10.38895151      25.94087917       8.93145308                           
I        6.95548132      27.66281081       8.93144278                           
I       11.60884358      23.82851411      12.00619783                           
I       11.39316102      27.66255286      12.00619302                           
I        7.94438798      25.93229268      12.00620106                           
Cr       5.73079704      33.74861461      17.03520929                           
Cr       2.29233663      35.73385906      17.04368562                           
I        6.72976925      31.75750499      15.50172901                           
I        3.50695437      33.87908835      15.50172980                           
I        0.07872159      35.60933195      15.50174515                           
I        4.73664394      31.76633719      18.57647573                           
I        4.51117228      35.60075702      18.57647595                           
I        1.06762977      33.87882495      18.57646027                           
Cr1      9.16929804      31.76344039      10.46423698                           
Cr1      5.73078330      33.74862822      10.47271549                           
I       10.16346879      29.77531047       8.93147663                           
I        6.95046050      31.89652031       8.93145308                           
I        3.51699031      33.61845194       8.93144278                           
I        8.17035256      29.78415524      12.00619783                           
I        7.95467001      33.61819399      12.00619302                           
I        4.50589697      31.88793381      12.00620106                           
Cr      29.80023411       3.97040895      17.03520929                           
Cr      26.36177371       5.95565340      17.04368562                           
I       30.79920633       1.97929933      15.50172901                           
I       27.57639144       4.10088269      15.50172980                           
I       24.14815867       5.83112629      15.50174515                           
I       28.80608102       1.98813153      18.57647573                           
I       28.58060936       5.82255136      18.57647595                           
I       25.13706685       4.10061929      18.57646027                           
Cr1     33.23873511       1.98523473      10.46423698                           
Cr1     29.80022038       3.97042256      10.47271549                           
I       34.23290587      -0.00289519       8.93147663                           
I       31.01989758       2.11831465       8.93145308                           
I       27.58642739       3.84024628       8.93144278                           
I       32.23978964       0.00594958      12.00619783                           
I       32.02410709       3.83998833      12.00619302                           
I       28.57533404       2.10972815      12.00620106                           
Cr      26.36174310       9.92605008      17.03520929                           
Cr      22.92328270      11.91129453      17.04368562                           
I       27.36071532       7.93494046      15.50172901                           
I       24.13790043      10.05652383      15.50172980                           
I       20.70966766      11.78676742      15.50174515                           
I       25.36759001       7.94377266      18.57647573                           
I       25.14211835      11.77819249      18.57647595                           
I       21.69857584      10.05626043      18.57646027                           
Cr1     29.80024410       7.94087586      10.46423698                           
Cr1     26.36172937       9.92606369      10.47271549                           
I       30.79441485       5.95274594       8.93147663                           
I       27.58140657       8.07395578       8.93145308                           
I       24.14793638       9.79588741       8.93144278                           
I       28.80129863       5.96159071      12.00619783                           
I       28.58561608       9.79562946      12.00619302                           
I       25.13684303       8.06536928      12.00620106                           
Cr      22.92325209      15.88169122      17.03520929                           
Cr      19.48479168      17.86693567      17.04368562                           
I       23.92222431      13.89058160      15.50172901                           
I       20.69940942      16.01216496      15.50172980                           
I       17.27117665      17.74240855      15.50174515                           
I       21.92909899      13.89941380      18.57647573                           
I       21.70362734      17.73383362      18.57647595                           
I       18.26008483      16.01190156      18.57646027                           
Cr1     26.36175309      13.89651700      10.46423698                           
Cr1     22.92323835      15.88170482      10.47271549                           
I       27.35592384      11.90838708       8.93147663                           
I       24.14291556      14.02959691       8.93145308                           
I       20.70944537      15.75152855       8.93144278                           
I       25.36280762      11.91723184      12.00619783                           
I       25.14712507      15.75127059      12.00619302                           
I       21.69835202      14.02101041      12.00620106                           
Cr      19.48476108      21.83733235      17.03520929                           
Cr      16.04630067      23.82257680      17.04368562                           
I       20.48373330      19.84622273      15.50172901                           
I       17.26091841      21.96780609      15.50172980                           
I       13.83268564      23.69804968      15.50174515                           
I       18.49060798      19.85505493      18.57647573                           
I       18.26513633      23.68947476      18.57647595                           
I       14.82159382      21.96754269      18.57646027                           
Cr1     22.92326208      19.85215813      10.46423698                           
Cr1     19.48474734      21.83734595      10.47271549                           
I       23.91743283      17.86402821       8.93147663                           
I       20.70442455      19.98523804       8.93145308                           
I       17.27095436      21.70716968       8.93144278                           
I       21.92431661      17.87287297      12.00619783                           
I       21.70863405      21.70691172      12.00619302                           
I       18.25986101      19.97665154      12.00620106                           
Cr      16.04627007      27.79297348      17.03520929                           
Cr      12.60780966      29.77821793      17.04368562                           
I       17.04524228      25.80186386      15.50172901                           
I       13.82242740      27.92344722      15.50172980                           
I       10.39419463      29.65369082      15.50174515                           
I       15.05211697      25.81069606      18.57647573                           
I       14.82664532      29.64511589      18.57647595                           
I       11.38310281      27.92318382      18.57646027                           
Cr1     19.48477107      25.80779926      10.46423698                           
Cr1     16.04625633      27.79298708      10.47271549                           
I       20.47894182      23.81966934       8.93147663                           
I       17.26593353      25.94087917       8.93145308                           
I       13.83246335      27.66281081       8.93144278                           
I       18.48582560      23.82851411      12.00619783                           
I       18.27014304      27.66255286      12.00619302                           
I       14.82137000      25.93229268      12.00620106                           
Cr      12.60777906      33.74861461      17.03520929                           
Cr       9.16931865      35.73385906      17.04368562                           
I       13.60675127      31.75750499      15.50172901                           
I       10.38393639      33.87908835      15.50172980                           
I        6.95570362      35.60933195      15.50174515                           
I       11.61362596      31.76633719      18.57647573                           
I       11.38815431      35.60075702      18.57647595                           
I        7.94461180      33.87882495      18.57646027                           
Cr1     16.04628006      31.76344039      10.46423698                           
Cr1     12.60776532      33.74862822      10.47271549                           
I       17.04045081      29.77531047       8.93147663                           
I       13.82744252      31.89652031       8.93145308                           
I       10.39397233      33.61845194       8.93144278                           
I       15.04733459      29.78415524      12.00619783                           
I       14.83165203      33.61819399      12.00619302                           
I       11.38287899      31.88793381      12.00620106                           
Cr      36.67721614       3.97040895      17.03520929                           
Cr      33.23875573       5.95565340      17.04368562                           
I       37.67618835       1.97929933      15.50172901                           
I       34.45337346       4.10088269      15.50172980                           
I       31.02514069       5.83112629      15.50174515                           
I       35.68306304       1.98813153      18.57647573                           
I       35.45759138       5.82255136      18.57647595                           
I       32.01404887       4.10061929      18.57646027                           
Cr1     40.11571714       1.98523473      10.46423698                           
Cr1     36.67720240       3.97042256      10.47271549                           
I       41.10988789      -0.00289519       8.93147663                           
I       37.89687960       2.11831465       8.93145308                           
I       34.46340941       3.84024628       8.93144278                           
I       39.11677166       0.00594958      12.00619783                           
I       38.90108911       3.83998833      12.00619302                           
I       35.45231606       2.10972815      12.00620106                           
Cr      33.23872513       9.92605008      17.03520929                           
Cr      29.80026472      11.91129453      17.04368562                           
I       34.23769734       7.93494046      15.50172901                           
I       31.01488245      10.05652383      15.50172980                           
I       27.58664968      11.78676742      15.50174515                           
I       32.24457203       7.94377266      18.57647573                           
I       32.01910037      11.77819249      18.57647595                           
I       28.57555786      10.05626043      18.57646027                           
Cr1     36.67722612       7.94087586      10.46423698                           
Cr1     33.23871139       9.92606369      10.47271549                           
I       37.67139688       5.95274594       8.93147663                           
I       34.45838859       8.07395578       8.93145308                           
I       31.02491840       9.79588741       8.93144278                           
I       35.67828065       5.96159071      12.00619783                           
I       35.46259810       9.79562946      12.00619302                           
I       32.01382505       8.06536928      12.00620106                           
Cr      29.80023411      15.88169122      17.03520929                           
Cr      26.36177371      17.86693567      17.04368562                           
I       30.79920633      13.89058160      15.50172901                           
I       27.57639144      16.01216496      15.50172980                           
I       24.14815867      17.74240855      15.50174515                           
I       28.80608102      13.89941380      18.57647573                           
I       28.58060936      17.73383362      18.57647595                           
I       25.13706685      16.01190156      18.57646027                           
Cr1     33.23873511      13.89651700      10.46423698                           
Cr1     29.80022038      15.88170482      10.47271549                           
I       34.23290587      11.90838708       8.93147663                           
I       31.01989758      14.02959691       8.93145308                           
I       27.58642739      15.75152855       8.93144278                           
I       32.23978964      11.91723184      12.00619783                           
I       32.02410709      15.75127059      12.00619302                           
I       28.57533404      14.02101041      12.00620106                           
Cr      26.36174310      21.83733235      17.03520929                           
Cr      22.92328270      23.82257680      17.04368562                           
I       27.36071532      19.84622273      15.50172901                           
I       24.13790043      21.96780609      15.50172980                           
I       20.70966766      23.69804968      15.50174515                           
I       25.36759001      19.85505493      18.57647573                           
I       25.14211835      23.68947476      18.57647595                           
I       21.69857584      21.96754269      18.57646027                           
Cr1     29.80024410      19.85215813      10.46423698                           
Cr1     26.36172937      21.83734595      10.47271549                           
I       30.79441485      17.86402821       8.93147663                           
I       27.58140657      19.98523804       8.93145308                           
I       24.14793638      21.70716968       8.93144278                           
I       28.80129863      17.87287297      12.00619783                           
I       28.58561608      21.70691172      12.00619302                           
I       25.13684303      19.97665154      12.00620106                           
Cr      22.92325209      27.79297348      17.03520929                           
Cr      19.48479168      29.77821793      17.04368562                           
I       23.92222431      25.80186386      15.50172901                           
I       20.69940942      27.92344722      15.50172980                           
I       17.27117665      29.65369082      15.50174515                           
I       21.92909899      25.81069606      18.57647573                           
I       21.70362734      29.64511589      18.57647595                           
I       18.26008483      27.92318382      18.57646027                           
Cr1     26.36175309      25.80779926      10.46423698                           
Cr1     22.92323835      27.79298708      10.47271549                           
I       27.35592384      23.81966934       8.93147663                           
I       24.14291556      25.94087917       8.93145308                           
I       20.70944537      27.66281081       8.93144278                           
I       25.36280762      23.82851411      12.00619783                           
I       25.14712507      27.66255286      12.00619302                           
I       21.69835202      25.93229268      12.00620106                           
Cr      19.48476108      33.74861461      17.03520929                           
Cr      16.04630067      35.73385906      17.04368562                           
I       20.48373330      31.75750499      15.50172901                           
I       17.26091841      33.87908835      15.50172980                           
I       13.83268564      35.60933195      15.50174515                           
I       18.49060798      31.76633719      18.57647573                           
I       18.26513633      35.60075702      18.57647595                           
I       14.82159382      33.87882495      18.57646027                           
Cr1     22.92326208      31.76344039      10.46423698                           
Cr1     19.48474734      33.74862822      10.47271549                           
I       23.91743283      29.77531047       8.93147663                           
I       20.70442455      31.89652031       8.93145308                           
I       17.27095436      33.61845194       8.93144278                           
I       21.92431661      29.78415524      12.00619783                           
I       21.70863405      33.61819399      12.00619302                           
I       18.25986101      31.88793381      12.00620106                           
%ENDBLOCK POSITIONS_ABS                                                         
%BLOCK SPECIES                                                                  
Cr Cr 24 -1 15                                                                  
I   I  53 -1 15                                                                 
Cr1 Cr 24 -1 15                                                                 
%ENDBLOCK SPECIES                                                               
%BLOCK SPECIES_ATOMIC_SET                                                       
Cr "SOLVE INIT SPIN=3"                                                          
I   "SOLVE"                                                                     
Cr1 "SOLVE INIT SPIN=-3"                                                        
%ENDBLOCK SPECIES_ATOMIC_SET                                                    
%BLOCK HUBBARD                                                                  
Cr  2 2.97 0.00 -10.0 0.00 0.0                                                  
Cr1  2 2.97 0.00 -10.0 0.00 0.0                                                 
%ENDBLOCK HUBBARD                                                               
%BLOCK SPECIES_LDOS_GROUPS                                                      
Cr                                                                              
I                                                                               
Cr1                                                                             
%ENDBLOCK SPECIES_LDOS_GROUPS                                                   
%BLOCK SPECIES_POT                                                              
Cr  "../../../../Cr.PBE-paw.abinit"                                             
I   "../../../../I.PBE-paw.abinit"                                              
Cr1  "../../../../Cr.PBE-paw.abinit"                                            
%ENDBLOCK SPECIES_POT                                                           

--------------------------------------------------------------------------------
-------------------------------- END INPUT FILE --------------------------------
--------------------------------------------------------------------------------


 
 ESDF WARNING(1): "charge" (esdf_physical) has no units. Assume "e".
<<<<<<<<<<<<<<<<<<<<<<<<<<<<<<<<< Full system >>>>>>>>>>>>>>>>>>>>>>>>>>>>>>>>>>
<<<<<<<<<<<<<<<<<<<<<<<<<<< PAW Dataset information >>>>>>>>>>>>>>>>>>>>>>>>>>>
File: ../../../../Cr.PBE-paw.abinit; rc = 2.11 bohr; shape type =  2; rshape = 1.80 bohr;
  Atomic number: 24;  ionic charge: 14.000000
    Partial Wave 1: l = 0
    Partial Wave 2: l = 0
    Partial Wave 3: l = 1
    Partial Wave 4: l = 1
    Partial Wave 5: l = 2
    Partial Wave 6: l = 2
  Core charge supplied for Nonlinear Core Corrections
File: ../../../../I.PBE-paw.abinit; rc = 2.30 bohr; shape type =  2; rshape = 2.11 bohr;
  Atomic number: 53;  ionic charge:  7.000000
    Partial Wave 1: l = 0
    Partial Wave 2: l = 0
    Partial Wave 3: l = 1
    Partial Wave 4: l = 1
  Core charge supplied for Nonlinear Core Corrections
<<<<<<<<<<<<<<<<<<<<<<<<<<<<<<<<<<<<<<< >>>>>>>>>>>>>>>>>>>>>>>>>>>>>>>>>>>>>>>

-------------------------- Atom counting information ---------------------------
Symbol    Natoms    Nngwfs    Nprojs
  Cr       144      1872      2592
  I        432      1728      3456
.......   ......    ......    ......
Totals:    576      3600      6048
--------------------------------------------------------------------------------

=============================== PSINC grid sizes ===============================
                      Simulation cell:  175 x 175 x 117
                              FFT-box:  175 x 175 x 117
                                  PPD:    5 x   5 x   1
Grid space d1=  0.445563862424a0 (KE cutoff=  38.26345Eh =1041.20135eV)
Grid space d2=  0.445563862400a0 (KE cutoff=  38.26345Eh =1041.20135eV)
Grid space d3=  0.444294449711a0 (KE cutoff=  38.48241Eh =1047.15957eV)
================================================================================

********************* Fourier parallelisation information **********************
       Coarse grid (whole simulation cell) dimensions:    175   175   117
          Real-space ('12') slabs/proc (min max mean):      0     1     0
         Recip-space ('23') slabs/proc (min max mean):      0     1     0
********************************************************************************

********************* Fourier parallelisation information **********************
       Double grid (whole simulation cell) dimensions:    350   350   234
          Real-space ('12') slabs/proc (min max mean):      1     2     1
         Recip-space ('23') slabs/proc (min max mean):      1     2     1
********************************************************************************

********************* Fourier parallelisation information **********************
         Fine grid (whole simulation cell) dimensions:    700   700   468
          Real-space ('12') slabs/proc (min max mean):      3     4     3
         Recip-space ('23') slabs/proc (min max mean):      2     3     2
********************************************************************************
energy_and_force_init_cell: WARNING in internal_setup_spin:
        even number of electrons in cell and zero spin
        but continuing with spin-polarised calculation

Atom SCF Calculation for Cr : Z (AE atom) =  24 : Z (PS atom) =  14
Config String: 3s2.0 3p6.0 3d5.0 4s1.0 4p0.0 INIT SPIN=3
Orbitals (num,occ):  5     2.00 6.00 5.00 1.00 0.00
Orbitals   (num,l):  5        0    1    2    0    1
Atom SCF converged after  64 iterations to a total energy of    -87.07044631
Adjusting orbital occupancies:
Orbitals (num,spin,occ):  5  1     1.00 3.00 3.50 1.00 0.00
Orbitals   (num,spin,l):  5  1        0    1    2    0    1
Orbitals (num,spin,occ):  5  2     1.00 3.00 1.00 0.50 0.00
Orbitals   (num,spin,l):  5  2        0    1    2    0    1

Atom SCF Calculation for I  : Z (AE atom) =  53 : Z (PS atom) =   7
Config String: 5s2.0 5p5.0
Orbitals (num,occ):  2     2.00 5.00
Orbitals   (num,l):  2        0    1
Atom SCF converged after  28 iterations to a total energy of    -11.61352964

Atom SCF Calculation for Cr : Z (AE atom) =  24 : Z (PS atom) =  14
Config String: 3s2.0 3p6.0 3d5.0 4s1.0 4p0.0 INIT SPIN=-3
Orbitals (num,occ):  5     2.00 6.00 5.00 1.00 0.00
Orbitals   (num,l):  5        0    1    2    0    1
Atom SCF converged after  64 iterations to a total energy of    -87.07044631
Adjusting orbital occupancies:
Orbitals (num,spin,occ):  5  1     1.00 3.00 1.00 0.50 0.00
Orbitals   (num,spin,l):  5  1        0    1    2    0    1
Orbitals (num,spin,occ):  5  2     1.00 3.00 3.50 1.00 0.00
Orbitals   (num,spin,l):  5  2        0    1    2    0    1

Atom SCF Calculation for Cr : Z (AE atom) =  24 : Z (PS atom) =  14
Config String: 3s2.0 3p6.0 3d5.0 4s1.0 4p0.0 INIT SPIN=3
Orbitals (num,occ):  5     2.00 6.00 5.00 1.00 0.00
Orbitals   (num,l):  5        0    1    2    0    1
Atom SCF converged after  64 iterations to a total energy of    -87.07044631

Atom SCF Calculation for I  : Z (AE atom) =  53 : Z (PS atom) =   7
Config String: 5s2.0 5p5.0
Orbitals (num,occ):  2     2.00 5.00
Orbitals   (num,l):  2        0    1
Atom SCF converged after  28 iterations to a total energy of    -11.61352964

Atom SCF Calculation for Cr : Z (AE atom) =  24 : Z (PS atom) =  14
Config String: 3s2.0 3p6.0 3d5.0 4s1.0 4p0.0 INIT SPIN=-3
Orbitals (num,occ):  5     2.00 6.00 5.00 1.00 0.00
Orbitals   (num,l):  5        0    1    2    0    1
Atom SCF converged after  64 iterations to a total energy of    -87.07044631

Determining parallel strategy ...... done
Calculating Ewald energy ...            31583.245177 Hartree
Basis initialisation ...
... done

============================= Charge Augmentation ==============================
                           Aug box size:   49 x  49 x  45
================================================================================
Sparse matrix initialisation ...
 done
NGWF initialisation ... done
 done

================================= Core Density =================================
               Core den box size:  125 x 125 x 105
================================================================================
Density kernel initialisation

--------------------------- Ensemble-DFT optimisation --------------------------
Running ScaLAPACK on  150 processor(s).
With smearing scheme: FERMIDIRAC                                                                      

--------------------------------------------------------------------------------
  Iter                              Commutator    Free_energy(A=E-TS)     DeltaA
#    0                          0.006176997640  -17457.19020521861600  -1.75E+04
#    1                          0.001669888962  -17597.84445595852590  -1.41E+02
#    2                          0.000295873948  -17613.07406401147450  -1.52E+01
#    3                          0.000155677650  -17613.60552701724370  -5.31E-01
#    4                          0.000183634245  -17613.94679952490700  -3.41E-01
#    5                          0.000081015921  -17614.15185712284800  -2.05E-01
#    6                          0.000096343736  -17614.27024442974290  -1.18E-01
#    7                          0.000045844089  -17614.33135805014540  -6.11E-02
#    8                          0.000056222121  -17614.36660863351060  -3.53E-02
#    9                          0.000029045938  -17614.38897538634410  -2.24E-02
#   10                          0.000034495613  -17614.40221910756370  -1.32E-02
#   11                          0.000020048577  -17614.41172315110450  -9.50E-03
#   12                          0.000022162262  -17614.41744527408810  -5.72E-03
#   13                          0.000015013092  -17614.42194776168250  -4.50E-03
#   14                          0.000014848184  -17614.42465462402110  -2.71E-03
#   15                          0.000012369797  -17614.42700024313310  -2.35E-03
Finished EDFT density kernel iterations (  15)


Writing density kernel to file "Cr2I6_bilayer_LT_FM_AFM_SP.dkn" ... done

Writing Hamiltonian to file "Cr2I6_bilayer_LT_FM_AFM_SP.ham" ... done

Writing density kernel to file "Cr2I6_bilayer_LT_FM_AFM_SP.dkn" ... done

>>> Optimising kernel for current NGWFs:
   iter  |      energy (Eh)       | rms gradient |  commutator  |   dE (Eh)
    1        -1.761442640158E+04     2.3633E-05     1.1936E-05
    2        -1.761442738913E+04     2.5937E-05     1.3100E-05    -9.8755E-04
    3        -1.761442841296E+04     4.2948E-05     2.1692E-05    -1.0238E-03
    4        -1.761442965577E+04     5.0678E-05     2.5596E-05    -1.2428E-03
    5        -1.761443126750E+04     3.6227E-05     1.8297E-05    -1.6117E-03
Finished density kernel iterations (   5)

Writing density kernel to file "Cr2I6_bilayer_LT_FM_AFM_SP.dkn" ... done


>>> Density kernel optimised for the current NGWF basis:
     ~~~~~~~~~~~~~~~~~~~~~~~~~~~~~~~~~~~~~~~~~~~~~~~~~~~~~~~~~~~
     Total energy                =  -1.76144312674976E+04  Eh
     Estimated bandgap (UP spin) =   4.0899E-02  Eh
     Estimated bandgap (DN spin) =   4.0935E-02  Eh
     RMS occupancy error         =   1.3741E-09
     [H,K] commutator            =   1.8297E-05
     UP spin occupancy bounds    = [ -0.000:  1.000]
     DN spin occupancy bounds    = [ -0.000:  1.000]
     ~~~~~~~~~~~~~~~~~~~~~~~~~~~~~~~~~~~~~~~~~~~~~~~~~~~~~~~~~~~




################################################################################
########################### NGWF CG iteration  001 #############################
################################################################################

>>> Checking for convergence of NGWFs:   NOT CONVERGED
  ========================================================================
         NGWF RMS gradient =  1.0234E-04 >  1.0000E-06  | above tolerance
  ========================================================================

>>> Improving NGWFs using line search:
  ========================================================================
   Predicted total energy    =      -1.76224107417251E+04 Eh
   Predicted gain in energy  =      -7.97947422746074E+00 Eh
  ========================================================================

Writing NGWFs to file "Cr2I6_bilayer_LT_FM_AFM_SP.tightbox_ngwfs".... done

>>> Optimising kernel for current NGWFs:
   iter  |      energy (Eh)       | rms gradient |  commutator  |   dE (Eh)
    1        -1.762239605301E+04     5.2400E-04     2.6466E-04
    2        -1.762275755129E+04     2.1135E-04     1.0675E-04    -3.6150E-01
    3        -1.762279652538E+04     9.4667E-05     4.7814E-05    -3.8974E-02
    4        -1.762280872232E+04     6.4183E-05     3.2417E-05    -1.2197E-02
    5        -1.762281524803E+04     2.9509E-05     1.4904E-05    -6.5257E-03
Finished density kernel iterations (   5)

Writing density kernel to file "Cr2I6_bilayer_LT_FM_AFM_SP.dkn" ... done


>>> Density kernel optimised for the current NGWF basis:
     ~~~~~~~~~~~~~~~~~~~~~~~~~~~~~~~~~~~~~~~~~~~~~~~~~~~~~~~~~~~
     Total energy                =  -1.76228152480308E+04  Eh
     Estimated bandgap (UP spin) =   4.7959E-02  Eh
     Estimated bandgap (DN spin) =   4.7982E-02  Eh
     RMS occupancy error         =   7.0435E-10
     [H,K] commutator            =   1.4904E-05
     UP spin occupancy bounds    = [ -0.000:  1.000]
     DN spin occupancy bounds    = [ -0.000:  1.000]
     ~~~~~~~~~~~~~~~~~~~~~~~~~~~~~~~~~~~~~~~~~~~~~~~~~~~~~~~~~~~




################################################################################
########################### NGWF CG iteration  002 #############################
################################################################################

>>> Checking for convergence of NGWFs:   NOT CONVERGED
  ========================================================================
         NGWF RMS gradient =  6.8968E-05 >  1.0000E-06  | above tolerance
  Maximum change in energy =  1.4556E-02 >  1.0000E-07  | above tolerance
  ========================================================================

>>> Improving NGWFs using line search:
  ========================================================================
   Predicted total energy    =      -1.76254444075689E+04 Eh
   Predicted gain in energy  =      -2.62915953810807E+00 Eh
  ========================================================================

Writing NGWFs to file "Cr2I6_bilayer_LT_FM_AFM_SP.tightbox_ngwfs".... done

>>> Optimising kernel for current NGWFs:
   iter  |      energy (Eh)       | rms gradient |  commutator  |   dE (Eh)
    1        -1.762543574260E+04     2.0342E-04     1.0274E-04
    2        -1.762549919542E+04     4.7369E-05     2.3925E-05    -6.3453E-02
    3        -1.762550390128E+04     5.4700E-05     2.7628E-05    -4.7059E-03
    4        -1.762550765159E+04     3.0028E-05     1.5166E-05    -3.7503E-03
    5        -1.762550899360E+04     2.5390E-05     1.2824E-05    -1.3420E-03
Finished density kernel iterations (   5)

Writing density kernel to file "Cr2I6_bilayer_LT_FM_AFM_SP.dkn" ... done


>>> Density kernel optimised for the current NGWF basis:
     ~~~~~~~~~~~~~~~~~~~~~~~~~~~~~~~~~~~~~~~~~~~~~~~~~~~~~~~~~~~
     Total energy                =  -1.76255089935983E+04  Eh
     Estimated bandgap (UP spin) =   4.7127E-02  Eh
     Estimated bandgap (DN spin) =   4.7291E-02  Eh
     RMS occupancy error         =   7.6154E-11
     [H,K] commutator            =   1.2824E-05
     UP spin occupancy bounds    = [ -0.000:  1.000]
     DN spin occupancy bounds    = [ -0.000:  1.000]
     ~~~~~~~~~~~~~~~~~~~~~~~~~~~~~~~~~~~~~~~~~~~~~~~~~~~~~~~~~~~




################################################################################
########################### NGWF CG iteration  003 #############################
################################################################################

>>> Checking for convergence of NGWFs:   NOT CONVERGED
  ========================================================================
         NGWF RMS gradient =  4.2418E-05 >  1.0000E-06  | above tolerance
  Maximum change in energy =  1.4556E-02 >  1.0000E-07  | above tolerance
  ========================================================================

>>> Improving NGWFs using line search:
  ========================================================================
   Predicted total energy    =      -1.76265963088569E+04 Eh
   Predicted gain in energy  =      -1.08731525856274E+00 Eh
  ========================================================================

Writing NGWFs to file "Cr2I6_bilayer_LT_FM_AFM_SP.tightbox_ngwfs".... done

>>> Optimising kernel for current NGWFs:
   iter  |      energy (Eh)       | rms gradient |  commutator  |   dE (Eh)
    1        -1.762658614148E+04     1.9793E-04     9.9972E-05
    2        -1.762663020269E+04     9.1912E-05     4.6422E-05    -4.4061E-02
    3        -1.762663741541E+04     3.3335E-05     1.6837E-05    -7.2127E-03
    4        -1.762663912215E+04     2.7574E-05     1.3927E-05    -1.7067E-03
    5        -1.762664073176E+04     1.4627E-05     7.3879E-06    -1.6096E-03
Finished density kernel iterations (   5)

Writing density kernel to file "Cr2I6_bilayer_LT_FM_AFM_SP.dkn" ... done


>>> Density kernel optimised for the current NGWF basis:
     ~~~~~~~~~~~~~~~~~~~~~~~~~~~~~~~~~~~~~~~~~~~~~~~~~~~~~~~~~~~
     Total energy                =  -1.76266407317587E+04  Eh
     Estimated bandgap (UP spin) =   4.7296E-02  Eh
     Estimated bandgap (DN spin) =   4.7426E-02  Eh
     RMS occupancy error         =   1.6542E-10
     [H,K] commutator            =   7.3879E-06
     UP spin occupancy bounds    = [  0.000:  1.000]
     DN spin occupancy bounds    = [  0.000:  1.000]
     ~~~~~~~~~~~~~~~~~~~~~~~~~~~~~~~~~~~~~~~~~~~~~~~~~~~~~~~~~~~




################################################################################
########################### NGWF CG iteration  004 #############################
################################################################################

>>> Checking for convergence of NGWFs:   NOT CONVERGED
  ========================================================================
         NGWF RMS gradient =  2.9364E-05 >  1.0000E-06  | above tolerance
  Maximum change in energy =  4.6766E-03 >  1.0000E-07  | above tolerance
  ========================================================================

>>> Improving NGWFs using line search:
  ========================================================================
   Predicted total energy    =      -1.76272126889207E+04 Eh
   Predicted gain in energy  =      -5.71957162002946E-01 Eh
  ========================================================================

Writing NGWFs to file "Cr2I6_bilayer_LT_FM_AFM_SP.tightbox_ngwfs".... done

>>> Optimising kernel for current NGWFs:
   iter  |      energy (Eh)       | rms gradient |  commutator  |   dE (Eh)
    1        -1.762720239559E+04     8.3809E-05     4.2330E-05
    2        -1.762721157376E+04     3.8988E-05     1.9692E-05    -9.1782E-03
    3        -1.762721328512E+04     2.3390E-05     1.1814E-05    -1.7114E-03
    4        -1.762721430135E+04     2.3998E-05     1.2121E-05    -1.0162E-03
    5        -1.762721501579E+04     1.1697E-05     5.9081E-06    -7.1444E-04
Finished density kernel iterations (   5)

Writing density kernel to file "Cr2I6_bilayer_LT_FM_AFM_SP.dkn" ... done


>>> Density kernel optimised for the current NGWF basis:
     ~~~~~~~~~~~~~~~~~~~~~~~~~~~~~~~~~~~~~~~~~~~~~~~~~~~~~~~~~~~
     Total energy                =  -1.76272150157869E+04  Eh
     Estimated bandgap (UP spin) =   4.6451E-02  Eh
     Estimated bandgap (DN spin) =   4.6444E-02  Eh
     RMS occupancy error         =   8.0713E-11
     [H,K] commutator            =   5.9081E-06
     UP spin occupancy bounds    = [  0.000:  1.000]
     DN spin occupancy bounds    = [  0.000:  1.000]
     ~~~~~~~~~~~~~~~~~~~~~~~~~~~~~~~~~~~~~~~~~~~~~~~~~~~~~~~~~~~




################################################################################
########################### NGWF CG iteration  005 #############################
################################################################################

>>> Checking for convergence of NGWFs:   NOT CONVERGED
  ========================================================================
         NGWF RMS gradient =  2.0384E-05 >  1.0000E-06  | above tolerance
  Maximum change in energy =  1.9648E-03 >  1.0000E-07  | above tolerance
  ========================================================================

>>> Improving NGWFs using line search:
  ========================================================================
   Predicted total energy    =      -1.76273704441387E+04 Eh
   Predicted gain in energy  =      -1.55428351845330E-01 Eh
  ========================================================================

Writing NGWFs to file "Cr2I6_bilayer_LT_FM_AFM_SP.tightbox_ngwfs".... done

>>> Optimising kernel for current NGWFs:
   iter  |      energy (Eh)       | rms gradient |  commutator  |   dE (Eh)
    1        -1.762736990655E+04     1.0267E-05     5.1855E-06
    2        -1.762737010946E+04     1.4683E-05     7.4161E-06    -2.0292E-04
    3        -1.762737037291E+04     1.7023E-05     8.5979E-06    -2.6345E-04
    4        -1.762737062295E+04     1.5806E-05     7.9834E-06    -2.5004E-04
    5        -1.762737087337E+04     1.8621E-05     9.4049E-06    -2.5042E-04
Finished density kernel iterations (   5)

Writing density kernel to file "Cr2I6_bilayer_LT_FM_AFM_SP.dkn" ... done


>>> Density kernel optimised for the current NGWF basis:
     ~~~~~~~~~~~~~~~~~~~~~~~~~~~~~~~~~~~~~~~~~~~~~~~~~~~~~~~~~~~
     Total energy                =  -1.76273708733700E+04  Eh
     Estimated bandgap (UP spin) =   4.6190E-02  Eh
     Estimated bandgap (DN spin) =   4.6240E-02  Eh
     RMS occupancy error         =   2.5784E-10
     [H,K] commutator            =   9.4049E-06
     UP spin occupancy bounds    = [  0.000:  1.000]
     DN spin occupancy bounds    = [  0.000:  1.000]
[...]
*    I     436     -0.00281544  -0.00493107  -0.00796688 *
*    I     437     -0.00285572   0.00493659  -0.00796361 *
*    I     438     -0.00556258  -0.00000652   0.01043497 *
*    I     439      0.00277061   0.00479240   0.01043579 *
*    I     440      0.00278337  -0.00482037   0.01044107 *
*    Cr    441      0.00015625   0.00007658  -0.00017274 *
*    Cr    442      0.00000904   0.00002074   0.00016082 *
*    I     443      0.00555817   0.00000002  -0.01043641 *
*    I     444     -0.00277281  -0.00479738  -0.01043739 *
*    I     445     -0.00277352   0.00481781  -0.01043573 *
*    I     446     -0.00569193  -0.00003201   0.00797814 *
*    I     447      0.00284730   0.00490725   0.00793346 *
*    I     448      0.00287947  -0.00493199   0.00794580 *
*    Cr    449     -0.00001212  -0.00000234  -0.00013884 *
*    Cr    450     -0.00002182   0.00015903   0.00016816 *
*    I     451      0.00570395   0.00002383  -0.00796642 *
*    I     452     -0.00283772  -0.00491253  -0.00797660 *
*    I     453     -0.00288256   0.00493925  -0.00795396 *
*    I     454     -0.00556463  -0.00001441   0.01044008 *
*    I     455      0.00277169   0.00480222   0.01044968 *
*    I     456      0.00277952  -0.00482477   0.01044720 *
*    Cr    457      0.00016033   0.00009153  -0.00016651 *
*    Cr    458      0.00001923   0.00000994   0.00014091 *
*    I     459      0.00555887  -0.00000162  -0.01043537 *
*    I     460     -0.00277495  -0.00479764  -0.01043926 *
*    I     461     -0.00277478   0.00481671  -0.01043417 *
*    I     462     -0.00569833  -0.00002686   0.00796882 *
*    I     463      0.00281932   0.00492655   0.00795431 *
*    I     464      0.00286584  -0.00492849   0.00796781 *
*    Cr    465     -0.00000240  -0.00000863  -0.00015481 *
*    Cr    466     -0.00002320  -0.00001883   0.00019206 *
*    I     467      0.00570401   0.00003503  -0.00797867 *
*    I     468     -0.00284218  -0.00490161  -0.00796382 *
*    I     469     -0.00289945   0.00494157  -0.00793606 *
*    I     470     -0.00556986  -0.00001368   0.01044624 *
*    I     471      0.00276315   0.00480084   0.01044500 *
*    I     472      0.00278016  -0.00482383   0.01044291 *
*    Cr    473      0.00015766   0.00008747  -0.00016444 *
*    Cr    474      0.00013584  -0.00005906   0.00017829 *
*    I     475      0.00555972  -0.00000044  -0.01043241 *
*    I     476     -0.00277122  -0.00480014  -0.01043981 *
*    I     477     -0.00277334   0.00481604  -0.01043411 *
*    I     478     -0.00569644  -0.00001405   0.00795632 *
*    I     479      0.00279893   0.00494930   0.00794507 *
*    I     480      0.00285233  -0.00492501   0.00797558 *
*    Cr    481      0.00000134  -0.00000884  -0.00016057 *
*    Cr    482     -0.00001996  -0.00001680   0.00016943 *
*    I     483      0.00570714   0.00005186  -0.00797147 *
*    I     484     -0.00283669  -0.00490947  -0.00796036 *
*    I     485     -0.00288804   0.00496490  -0.00790488 *
*    I     486     -0.00556373  -0.00001440   0.01044129 *
*    I     487      0.00276242   0.00480056   0.01044430 *
*    I     488      0.00278260  -0.00481776   0.01044117 *
*    Cr    489      0.00000570  -0.00000289  -0.00019373 *
*    Cr    490      0.00015357  -0.00007384   0.00019149 *
*    I     491      0.00556078   0.00000318  -0.01043697 *
*    I     492     -0.00277345  -0.00479795  -0.01043937 *
*    I     493     -0.00277214   0.00482153  -0.01043773 *
*    I     494     -0.00569889  -0.00000905   0.00793941 *
*    I     495      0.00280116   0.00491513   0.00797470 *
*    I     496      0.00285522  -0.00492088   0.00798240 *
*    Cr    497      0.00000109  -0.00001032  -0.00016511 *
*    Cr    498     -0.00002012  -0.00000823   0.00015603 *
*    I     499      0.00571260   0.00003243  -0.00794613 *
*    I     500     -0.00281791  -0.00495734  -0.00792673 *
*    I     501     -0.00282477   0.00493942  -0.00796444 *
*    I     502     -0.00556352  -0.00001446   0.01044089 *
*    I     503      0.00276475   0.00480118   0.01044532 *
*    I     504      0.00278353  -0.00481869   0.01044182 *
*    Cr    505      0.00001371   0.00001136  -0.00024306 *
*    Cr    506      0.00000688   0.00001547   0.00020341 *
*    I     507      0.00556143   0.00000011  -0.01043577 *
*    I     508     -0.00277378  -0.00479889  -0.01043884 *
*    I     509     -0.00277469   0.00481678  -0.01043507 *
*    I     510     -0.00568342  -0.00004036   0.00797824 *
*    I     511      0.00280421   0.00489482   0.00799449 *
*    I     512      0.00284449  -0.00490927   0.00798952 *
*    Cr    513     -0.00000043  -0.00001153  -0.00016364 *
*    Cr    514     -0.00003615   0.00000146   0.00019457 *
*    I     515      0.00571828   0.00003917  -0.00793850 *
*    I     516     -0.00280583  -0.00494001  -0.00797353 *
*    I     517     -0.00283760   0.00493767  -0.00795984 *
*    I     518     -0.00556359  -0.00001604   0.01044241 *
*    I     519      0.00276433   0.00479896   0.01044510 *
*    I     520      0.00278219  -0.00481907   0.01044065 *
*    Cr    521      0.00002780  -0.00001168  -0.00026838 *
*    Cr    522      0.00000315   0.00003134   0.00019710 *
*    I     523      0.00555786   0.00000031  -0.01043506 *
*    I     524     -0.00277388  -0.00479797  -0.01043859 *
*    I     525     -0.00277383   0.00481892  -0.01043610 *
*    I     526     -0.00568293  -0.00003868   0.00798518 *
*    I     527      0.00279755   0.00491255   0.00798655 *
*    I     528      0.00289069  -0.00492136   0.00795368 *
*    Cr    529     -0.00000341  -0.00001217  -0.00016081 *
*    Cr    530     -0.00002786  -0.00001032   0.00017950 *
*    I     531      0.00572925   0.00004184  -0.00793007 *
*    I     532     -0.00281775  -0.00492839  -0.00797766 *
*    I     533     -0.00283944   0.00493515  -0.00795392 *
*    I     534     -0.00556434  -0.00001689   0.01044077 *
*    I     535      0.00276473   0.00479974   0.01044312 *
*    I     536      0.00277378  -0.00482002   0.01043416 *
*    Cr    537      0.00001281  -0.00001610  -0.00020073 *
*    Cr    538      0.00000298   0.00001041   0.00018229 *
*    I     539      0.00555715   0.00000053  -0.01043500 *
*    I     540     -0.00277358  -0.00479804  -0.01043865 *
*    I     541     -0.00277495   0.00481502  -0.01043343 *
*    I     542     -0.00568307  -0.00002994   0.00798530 *
*    I     543      0.00279667   0.00492251   0.00796551 *
*    I     544      0.00287910  -0.00492472   0.00796156 *
*    Cr    545     -0.00012981   0.00006519  -0.00017869 *
*    Cr    546     -0.00002312   0.00015958   0.00017014 *
*    I     547      0.00571822   0.00005841  -0.00794136 *
*    I     548     -0.00281655  -0.00492199  -0.00798494 *
*    I     549     -0.00285780   0.00494424  -0.00795541 *
*    I     550     -0.00556472  -0.00000954   0.01043644 *
*    I     551      0.00277626   0.00479482   0.01044441 *
*    I     552      0.00277704  -0.00482737   0.01044615 *
*    Cr    553      0.00001097  -0.00000216  -0.00018280 *
*    Cr    554      0.00000685   0.00001403   0.00015459 *
*    I     555      0.00555641   0.00000029  -0.01043507 *
*    I     556     -0.00277519  -0.00479715  -0.01043853 *
*    I     557     -0.00277446   0.00481691  -0.01043605 *
*    I     558     -0.00567915  -0.00001920   0.00799080 *
*    I     559      0.00284811   0.00490723   0.00793377 *
*    I     560      0.00289807  -0.00493281   0.00794441 *
*    Cr    561     -0.00001326  -0.00000774  -0.00015606 *
*    Cr    562     -0.00001640  -0.00001524   0.00018548 *
*    I     563      0.00571528   0.00006430  -0.00796039 *
*    I     564     -0.00283815  -0.00489222  -0.00797857 *
*    I     565     -0.00285538   0.00496165  -0.00792902 *
*    I     566     -0.00556423  -0.00000246   0.01043942 *
*    I     567      0.00276856   0.00479309   0.01043799 *
*    I     568      0.00277874  -0.00482521   0.01044275 *
*    Cr    569      0.00000557   0.00000157  -0.00019133 *
*    Cr    570      0.00001222   0.00000628   0.00015500 *
*    I     571      0.00555716  -0.00000067  -0.01043544 *
*    I     572     -0.00277384  -0.00479691  -0.01043959 *
*    I     573     -0.00277366   0.00481973  -0.01043494 *
*    I     574     -0.00568374  -0.00000639   0.00797318 *
*    I     575      0.00280844   0.00494941   0.00792744 *
*    I     576      0.00287225  -0.00493047   0.00796281 *
*                                                        *
**********************************************************
* TOTAL:           -0.00000000   0.00000000   0.00000000 *
**********************************************************
 
 
***********************************************************
********** Summary of Forces (values in Eh/a) *************
*                                                         *
* ---------------------- Minimum ------------------------ *
* Atom:       337, |F|min =    0.00011592                 *
* Components:     Fx|min       Fy|min       Fz|min        *
*              -0.00000755  -0.00000484  -0.00011557      *
*                                                         *
* ---------------------- Maximum ------------------------ *
* Atom:       456, |F|max =    0.01183842                 *
* Components:     Fx|max       Fy|max       Fz|max        *
*               0.00277952  -0.00482477   0.01044720      *
*                                                         *
* ---------------- Root Mean Square Force --------------- *
*                  |F|rms =    0.00940029                 *
* Components:     Fx|rms       Fy|rms       Fz|rms        *
*               0.00344586   0.00344299   0.00803973      *
***********************************************************
 

------------------------------ TIMING INFORMATION ------------------------------
AVERAGE TIME:   56610.165s on    150 proc(s)                                    
TOTAL TIME:     56610.167s on    150 proc(s)                                    
==================== AVERAGE TIMINGS FROM ALL PROCS (CUMULATIVE) =====================
|| TAG                                         #calls     cpu time   %total  Gflops ||
|| hubbard_species_proj                       :     1        0.00s   0.000%  ------ ||
|| sw_bessel_init_cpu                         :     1        0.01s   0.000%  ------ || (1 procs only)
|| onetep.F90 main loop imbalance             :     1        0.00s   0.000%  ------ ||
|| hubbard_projector_character                :     1        0.00s   0.000%  ------ ||
|| hubbard_ngwf_select                        :     1        0.00s   0.000%  ------ ||
|| density_fftbox_interp_mult_imbal           : 31500        0.00s   0.000%  ------ ||
|| hubbard_ngwf_on_grid                       :     1        0.00s   0.000%  ------ ||
|| hash_table_free                            :    68        0.00s   0.000%  ------ ||
|| ewald_calculate_forces_realspace           :     1        0.02s   0.000%  ------ ||
|| linalg_invert_sym_matrix                   :     4        0.02s   0.000%  ------ || (144 procs only)
|| hubbard_tensorial_correction               :     2        0.02s   0.000%  ------ ||
|| linalg_dgemv                               :    29        0.02s   0.000%  ------ ||
|| ewald_calculate_energy                     :     1        0.04s   0.000%  ------ ||
|| onetep.F90 final imbalance                 :     1        0.05s   0.000%  ------ ||
|| ewald_calculate_forces_recipspace          :     1        0.06s   0.000%  ------ ||
|| sparse_spam3toblacs_real_fast_imbal        :   206        0.08s   0.000%  ------ ||
|| sparse_set_to_garbage                      :  1488        0.10s   0.000%  ------ ||
|| ewald_calculate_forces                     :     1        0.10s   0.000%  ------ ||
|| sw_init                                    :  1259        0.10s   0.000%  ------ ||
|| sparse_blacstospam3_real_fast_imbal        :   220        0.11s   0.000%  ------ ||
|| pseudo_make_structure_factor               :     1        0.16s   0.000%  ------ ||
|| paw_dij_hartree                            :   678        0.20s   0.000%  ------ ||
|| augmentation_density_forces                :     1        0.26s   0.000%  ------ ||
|| sparse_spam3toblacs_real_fast_B2           : 30900        0.51s   0.001%  ------ ||
|| paw_tcore_hartree_on_grid                  :     1        0.51s   0.001%  ------ ||
|| restart_hamiltonian_write                  :     2        0.51s   0.001%  ------ ||
|| basis_extract_function_from_box            :  3264        0.54s   0.001%  ------ ||
|| paw_tcore_hartree_calc_forces              :     1        0.61s   0.001%  ------ ||
|| hubbard_projection_mtx                     :    70        1.10s   0.002%  ------ ||
|| paw_tcore_density                          :     1        1.23s   0.002%  ------ ||
|| paw_dataset_init                           :     2        1.52s   0.003%  ------ ||
|| paw_sphere_density_on_grid                 :     1        1.62s   0.003%  ------ ||
|| paw_nlcc_calculate_forces                  :     1        1.75s   0.003%  ------ ||
|| sparse_init                                :     1        2.19s   0.004%  ------ ||
|| ngwfs_initialise_from_radial               :     4        2.66s   0.005%  ------ ||
|| nonsc_forces_ngwfs_calc                    :     1        3.82s   0.007%  ------ ||
|| paw_species_calc_proj_prec_mat             :     1        5.92s   0.010%  ------ ||
|| hubbard_projector_ham                      :   295        8.26s   0.015%  ------ ||
|| restart_kernel_write                       :    36        8.61s   0.015%  ------ ||
|| hubbard_ham_matrix                         :   296        8.63s   0.015%  ------ ||
|| energy_and_force_init_cell                 :     1       14.51s   0.026%  ------ ||
|| sparse_spam3toblacs_real_fast_B1           : 30900       15.42s   0.027%  ------ ||
|| sparse_spam3toblacs_real_fast              :   206       17.07s   0.030%  ------ ||
|| sparse_embed_array_hotelling_invert        :    68       20.14s   0.036%  ------ ||
|| hubbard_calculate_forces                   :     1       20.25s   0.036%  ------ ||
|| integrals_grad_spam3                       :     4       23.93s   0.042%  ------ ||
|| hubbard_projector_update                   :     1       30.73s   0.054%  ------ ||
|| hubbard_energy_total                       :   642       33.10s   0.058%  ------ ||
|| sparse_blacstospam3_real_fast              :   220       33.28s   0.059%  ------ ||
|| ngwf_gradient_coeffs                       :    34       34.78s   0.061%  ------ ||
|| projectors_func_grad_ovlp_box_spam3        :     6       35.21s   0.062%  ------ ||
|| fourier_filter_cell                        :   660       35.85s   0.063% 326.497 ||
|| aug_nl_calculate_forces                    :     1       36.85s   0.065%  ------ ||
|| hamiltonian_energy_components              :     1       40.48s   0.072%  ------ ||
|| eigenstates_calculate                      :     1       45.90s   0.081%  ------ ||
|| fourier_apply_box_pair                     :  4992       50.55s   0.089%  5.779k ||
|| sparse_trace                               : 20062       51.97s   0.092%  ------ ||
|| hartree_on_grid_single                     :   629       54.22s   0.096%  ------ ||
|| density_init_guess_real                    :     2       58.03s   0.103%  ------ ||
|| basis_copy_function_to_box                 : 49929       58.37s   0.103%  ------ ||
|| dense_eigensolve                           :   100       59.45s   0.105%  ------ ||
|| fourier_interpolate_cell                   :  1260       74.32s   0.131% 300.675 ||
|| edft_diag_ngwf_ham                         :    98       74.62s   0.132%  ------ ||
|| kernel_fix                                 :   278      107.72s   0.190%  ------ ||
|| kernel_purify                              :   887      108.33s   0.191%  ------ ||
|| edft_apply_smearing_operator               :    49      122.37s   0.216%  ------ ||
|| lnv_gradient_norm                          :   278      128.10s   0.226%  ------ ||
|| augmentation_screen_dij_spam3              :   628      130.40s   0.230%  ------ ||
|| forces_calculate                           :     1      138.45s   0.245%  ------ ||
|| paw_dij_xc                                 :   678      141.51s   0.250%  ------ ||
|| aug_nonlocal_mat_spam3_embed_array         :   643      159.13s   0.281%  ------ ||
|| fourier_apply_cell_backward                :  5662      235.23s   0.416% 383.977 ||
|| projectors_init_fftbox_recip               :   693      239.88s   0.424%  ------ ||
|| fourier_apply_cell_forward                 :  5662      266.85s   0.471% 338.469 ||
|| cell_grid_deposit_box_real                 : 39702      300.54s   0.531%  ------ ||
|| aug_density_on_grid_spam3                  :   630      313.56s   0.554%  ------ ||
|| cell_grid_extract_box_real                 : 24682      324.77s   0.574%  ------ ||
|| fourier_filter                             :  9020      358.85s   0.634%  ------ ||
|| restart_ngwfs_tightbox_output              :    33      416.77s   0.736%  ------ ||
|| xc_energy_potential                        :   629      512.35s   0.905%  ------ ||
|| properties_calculate                       :     1      534.55s   0.944%  ------ ||
|| function_ops_brappd_ketppd_spam3           :   276      641.09s   1.132%  ------ ||
|| sparse_product                             : 37446      643.80s   1.137%  ------ ||
|| fourier_interpolate                        :  9020      674.19s   1.191%  ------ ||
|| projectors_func_ovlp_box_spam3             :   278      980.70s   1.732%  ------ ||
|| integrals_kinetic_spam3                    :   136     1484.66s   2.623%  ------ ||
|| density_fftbox_deposit_to_cell             : 31500     2037.78s   3.600%  ------ ||
|| basis_dot_function_with_box                : 30.05M    2214.21s   3.911%  ------ ||
|| projectors_gradient_batch                  :   272     2361.64s   4.172%  ------ ||
|| edft_calculate                             :     1     2643.86s   4.670%  ------ ||
|| potential_apply_to_ngwf_batch              :  1184     3893.84s   6.878%  ------ ||
|| basis_add_function_to_box                  : 64.86M    5409.08s   9.555%  ------ ||
|| fourier_apply_box                          : 145.4k    5499.59s   9.715%  5.458k ||
|| integrals_locpot_mat_els_batch             :  1184     5819.59s  10.280%  ------ ||
|| fourier_interpolate_product                : 30240     5971.54s  10.549%  ------ ||
|| density_fftbox_interpolate_multiply        : 31500     6209.30s  10.969%  ------ ||
|| projectors_grad_precond_batch              :   136     6884.15s  12.161%  ------ ||
|| integrals_locpot_dbl_grid                  :   592     9747.86s  17.219%  ------ ||
|| ngwf_gradient_build_batch                  :   136    10672.96s  18.853%  ------ ||
|| density_batch_interp_deposit               :  2520    11323.69s  20.003%  ------ ||
|| density_batch_row_sums                     :  2520    11842.52s  20.919%  ------ ||
|| ngwf_gradient_batch                        :   136    15672.95s  27.686%  ------ ||
|| ngwf_gradient_lnv                          :    34    16319.01s  28.827%  ------ ||
|| density_on_dbl_grid                        :  1260    23421.39s  41.373%  ------ ||
|| hamiltonian_lhxc_calculate                 :   626    24625.36s  43.500%  ------ ||
|| lnv_denskernel_optimise_cg                 :    34    31152.34s  55.030%  ------ ||
|| ngwf_cg_optimise                           :     1    53081.17s  93.766%  ------ ||
|| energy_and_forces                          :     1    56594.31s  99.972%  ------ ||
|| total_time                                 :     1    56610.17s 100.000%  ------ ||
======================================================================================
Overhead of generating timer report: 
- 0 ms averaging over threads,
- 9 ms ensuring consistency across MPI ranks,
- 2 ms printing in order.

Job completed: 30-05-2025 07:24 (+0100)

onetep_launcher: ONETEP seems to have finished correctly (zero exit code).
                 Brought to you by PID 211845 on nid001490.
